Title
82254
    1SAPS     N    1   1.978   6.255  11.345 -0.1073  0.2359  0.1040
    1SAPS   HN1    2   1.880   6.251  11.311  0.8504 -1.0760 -2.6438
    1SAPS   HN2    3   1.987   6.183  11.421  2.1514 -0.4959 -0.8031
    1SAPS   HN3    4   1.993   6.349  11.386 -0.9514  0.2548  0.3844
    1SAPS   C12    5   2.065   6.215  11.231  1.2920 -0.3951 -0.4061
    1SAPS  H12A    6   2.168   6.229  11.260  1.7938  1.3531 -2.8588
    1SAPS   C13    7   2.067   6.059  11.210 -0.1814 -0.3295  0.0739
    1SAPS  O13A    8   1.994   5.989  11.281  0.3526 -0.3369 -0.0043
    1SAPS  O13B    9   2.151   6.010  11.134  0.2565  0.2203 -0.1082
    1SAPS   C11   10   2.028   6.278  11.093  0.1903 -0.2351  0.2369
    1SAPS  H11A   11   1.927   6.250  11.056  0.3061 -0.5444  0.1561
    1SAPS  H11B   12   2.093   6.226  11.020 -1.3609  3.2753 -3.8515
    1SAPS     P   13   2.190   6.480  11.065  0.0488  0.2991 -0.2240
    1SAPS   O13   14   2.195   6.616  10.999  0.4695  0.0470 -0.0731
    1SAPS   O14   15   2.261   6.470  11.196  0.2203  0.1187 -0.1381
    1SAPS   O12   16   2.048   6.416  11.081  0.7186  0.1883  0.4731
    1SAPS   O11   17   2.256   6.371  10.975 -0.2296  0.2725 -0.1965
    1SAPS    C1   18   2.351   6.424  10.873 -0.0099  0.0821 -0.6652
    1SAPS    HA   19   2.411   6.509  10.913 -2.4526  2.0007 -0.9195
    1SAPS    HB   20   2.428   6.345  10.859 -0.7861 -0.5564 -1.3694
    1SAPS    C2   21   2.291   6.458  10.736  0.4604  0.4403  0.1736
    1SAPS    HS   22   2.225   6.546  10.757 -0.8701 -0.1974 -1.2483
    1SAPS   O21   23   2.214   6.339  10.703 -0.0009 -0.2496  0.0660
    1SAPS   C21   24   2.088   6.344  10.724 -0.4685 -0.7031 -0.0112
    1SAPS   O22   25   2.028   6.441  10.767 -0.5103  0.4447 -0.4787
    1SAPS   C22   26   2.028   6.208  10.703  0.0181 -0.2677  0.4795
    1SAPS   H2R   27   2.058   6.169  10.604  0.6973  0.0114  0.5714
    1SAPS   H2S   28   2.090   6.147  10.773  0.0221  0.5003  1.1466
    1SAPS    C3   29   2.393   6.482  10.627 -0.8582 -0.3038 -0.5626
    1SAPS    HX   30   2.456   6.393  10.603  0.5440  1.0616 -2.0217
    1SAPS    HY   31   2.459   6.562  10.666 -1.7952 -0.4912  1.4761
    1SAPS   O31   32   2.325   6.531  10.507  0.1267  0.6468  0.5645
    1SAPS   C31   33   2.329   6.448  10.403  0.0163  0.5429  0.1671
    1SAPS   O32   34   2.361   6.331  10.403  0.1254  0.0932  0.3120
    1SAPS   C32   35   2.265   6.519  10.286 -0.4200  0.7496 -0.5361
    1SAPS   H2X   36   2.324   6.610  10.259 -2.0125  1.6136 -1.1736
    1SAPS   H2Y   37   2.160   6.545  10.310 -1.9094 -2.8837 -2.6701
    1SAPS   C23   38   1.879   6.203  10.709  0.9278  0.1700 -0.2038
    1SAPS   H3R   39   1.855   6.248  10.808 -1.2722 -0.1668 -0.5519
    1SAPS   H3S   40   1.850   6.096  10.712  0.4508  0.3146  0.4628
    1SAPS   C24   41   1.806   6.268  10.587  0.1043 -0.8851 -0.4516
    1SAPS   H4R   42   1.826   6.205  10.498  1.7205 -1.5173  0.3423
    1SAPS   H4S   43   1.848   6.371  10.584  0.2673 -0.9288  0.3089
    1SAPS   C25   44   1.660   6.276  10.615 -0.3967 -0.5976 -0.1980
    1SAPS   H5R   45   1.626   6.360  10.678 -1.0597 -1.4937  0.6572
    1SAPS   C26   46   1.574   6.178  10.583 -0.3940 -0.2331 -0.5435
    1SAPS   H6R   47   1.470   6.185  10.618 -0.6061  0.2412 -1.2606
    1SAPS   C27   48   1.604   6.057  10.502  0.4424  0.1125  0.3487
    1SAPS   H7R   49   1.714   6.041  10.494  0.7732  1.3534  2.2085
    1SAPS   H7S   50   1.571   6.064  10.396  0.8311  0.0188  0.2195
    1SAPS   C28   51   1.542   5.924  10.559 -0.4686 -0.5599  0.1872
    1SAPS   H8R   52   1.595   5.866  10.636  0.7861  0.1118 -0.1663
    1SAPS   C29   53   1.427   5.852  10.515 -0.1464  0.4528  0.9189
    1SAPS   H9R   54   1.383   5.779  10.584  0.1854  1.2486  2.0048
    1SAPS  C210   55   1.341   5.904  10.402 -1.1226  0.0826  0.1659
    1SAPS  H10R   56   1.317   5.830  10.323  0.0442 -0.7374  0.5657
    1SAPS  H10S   57   1.384   5.984  10.338 -0.4053 -0.3654  0.0853
    1SAPS  C211   58   1.211   5.951  10.449 -0.3048  0.0887 -0.1553
    1SAPS  H11R   59   1.156   5.900  10.530 -1.4881  0.8364 -0.4700
    1SAPS  C212   60   1.145   6.051  10.389  0.7258  0.8761  0.1131
    1SAPS  H12R   61   1.048   6.081  10.430 -0.5585  1.0735 -2.9497
    1SAPS  C213   62   1.193   6.135  10.269  0.2459 -0.3306  0.0311
    1SAPS  H13R   63   1.104   6.189  10.231  0.5767  2.4386  3.0091
    1SAPS  H13S   64   1.223   6.063  10.190  2.1190 -0.3978  0.7760
    1SAPS  C214   65   1.303   6.231  10.305  0.2508  0.4499  0.5584
    1SAPS  H14R   66   1.304   6.266  10.409 -2.3715  0.2151  0.6874
    1SAPS  C215   67   1.408   6.273  10.230  0.6759  0.2838  0.3564
    1SAPS  H15R   68   1.478   6.348  10.270  0.0421  0.2785  1.5027
    1SAPS  C216   69   1.448   6.235  10.091 -0.3106  0.7278  0.6126
    1SAPS  H16R   70   1.505   6.308  10.029  0.4744  0.9720  1.6164
    1SAPS  H16S   71   1.360   6.217  10.025  1.6635  0.9152 -2.1574
    1SAPS  C217   72   1.528   6.103  10.106  0.0702  0.0360 -0.0938
    1SAPS  H17R   73   1.454   6.023  10.126  0.4287 -0.2748  0.0005
    1SAPS  H17S   74   1.591   6.101  10.197 -0.0891  1.9573  0.0645
    1SAPS  C218   75   1.612   6.067   9.987 -0.2540 -0.0025  0.1299
    1SAPS  H18R   76   1.675   5.975   9.991 -1.9295 -1.2184 -0.6051
    1SAPS  H18S   77   1.691   6.142   9.966  1.5684 -2.0674 -0.6216
    1SAPS  C219   78   1.526   6.042   9.859  0.6038 -0.3485  0.0724
    1SAPS  H19R   79   1.462   6.129   9.833  0.0079 -1.1443 -1.2117
    1SAPS  H19S   80   1.463   5.952   9.878  0.6083 -0.1062  1.2719
    1SAPS  C220   81   1.617   6.022   9.737 -0.1300  0.2474  0.7226
    1SAPS  H20R   82   1.700   5.950   9.753 -0.7215 -0.8054 -0.7415
    1SAPS  H20S   83   1.653   6.121   9.703 -0.0350 -0.3669 -1.0111
    1SAPS  H20T   84   1.557   5.982   9.652  0.5437  0.6606  0.0586
    1SAPS   C33   85   2.267   6.443  10.149  0.4144  0.1290  0.0805
    1SAPS   H3X   86   2.179   6.483  10.094  0.8436  0.8772 -0.0798
    1SAPS   H3Y   87   2.239   6.337  10.164  0.6504  0.2084  1.1441
    1SAPS   C34   88   2.391   6.459  10.059  0.3032 -0.0266 -0.3430
    1SAPS   H4X   89   2.478   6.409  10.107 -1.1301 -1.4126  0.8867
    1SAPS   H4Y   90   2.408   6.569  10.061 -2.0966  0.3652 -0.5837
    1SAPS   C35   91   2.365   6.415   9.913  0.4432 -0.8782  0.4643
    1SAPS   H5X   92   2.368   6.497   9.838 -2.4674 -1.2333 -0.0708
    1SAPS   H5Y   93   2.266   6.365   9.911  0.2438 -0.4340 -0.7335
    1SAPS   C36   94   2.476   6.315   9.862  0.1471  0.0128  0.2776
    1SAPS   H6X   95   2.440   6.219   9.905  0.8202  0.2848  1.4585
    1SAPS   H6Y   96   2.569   6.349   9.913 -0.8804  0.9203  1.5954
    1SAPS   C37   97   2.496   6.308   9.710  0.0879  0.3847  0.5659
    1SAPS   H7X   98   2.521   6.201   9.700 -0.6531  0.0471  2.0918
    1SAPS   H7Y   99   2.577   6.378   9.680  0.1186  0.3918  0.6657
    1SAPS   C38  100   2.372   6.318   9.620  1.0359  0.6513 -0.1926
    1SAPS   H8X  101   2.343   6.424   9.610  0.2639  0.4751  0.1755
    1SAPS   H8Y  102   2.289   6.254   9.657  0.1870 -0.0552 -3.1326
    1SAPS   C39  103   2.396   6.255   9.471  0.7615 -0.2349  0.4304
    1SAPS   H9X  104   2.381   6.147   9.496  0.2092 -0.5289 -1.1231
    1SAPS   H9Y  105   2.500   6.283   9.446  0.6709  0.8096  1.1892
    1SAPS  C310  106   2.303   6.301   9.360  0.3259 -0.3666  0.6426
    1SAPS  H10X  107   2.257   6.400   9.383 -0.4489 -0.5054 -0.3155
    1SAPS  H10Y  108   2.214   6.236   9.366  0.6286 -0.8208  0.1913
    1SAPS  C311  109   2.371   6.314   9.218  0.1629 -0.3018 -0.7339
    1SAPS  H11X  110   2.430   6.224   9.192 -0.1606 -0.3203 -1.4287
    1SAPS  H11Y  111   2.429   6.409   9.226 -2.2697  1.3159 -1.6745
    1SAPS  C312  112   2.273   6.336   9.100  0.1041 -0.3514 -0.4785
    1SAPS  H12X  113   2.340   6.362   9.015 -0.9627  0.6661 -1.0354
    1SAPS  H12Y  114   2.229   6.433   9.133  0.3690 -0.7001  0.9318
    1SAPS  C313  115   2.183   6.222   9.075 -0.3302  0.1247  0.0272
    1SAPS  H13X  116   2.116   6.246   8.989  1.2382  1.1571 -0.9307
    1SAPS  H13Y  117   2.128   6.193   9.167  0.6892  0.1254  0.6408
    1SAPS  C314  118   2.252   6.088   9.051  1.1628 -1.2683  0.2733
    1SAPS  H14X  119   2.314   6.056   9.137 -0.5979 -0.1547  1.9842
    1SAPS  H14Y  120   2.329   6.105   8.973  0.4171 -0.1533 -0.2381
    1SAPS  C315  121   2.156   5.974   9.013  0.2260 -0.6993  0.3493
    1SAPS  H15X  122   2.075   5.969   9.089  0.4361  2.4055  0.8378
    1SAPS  H15Y  123   2.215   5.880   9.014  0.0894 -0.8497 -2.4535
    1SAPS  C316  124   2.101   5.975   8.865 -0.2053 -0.1054 -0.2467
    1SAPS  H16X  125   2.174   6.016   8.792 -0.1598 -3.1632 -1.9909
    1SAPS  H16Y  126   2.010   6.038   8.869  0.1119  0.5929 -3.0482
    1SAPS  C317  127   2.056   5.833   8.819 -0.1862 -0.4477  0.2623
    1SAPS  H17X  128   1.991   5.784   8.895 -2.2653 -0.7336 -1.6450
    1SAPS  H17Y  129   2.143   5.764   8.818  0.7692  0.7451 -0.6021
    1SAPS  C318  130   1.987   5.839   8.681  0.3722  0.5240  0.4870
    1SAPS  H18X  131   1.878   5.861   8.684  0.6297  1.7630  1.4336
    1SAPS  H18Y  132   1.990   5.736   8.639  0.7406  0.8124 -0.1926
    1SAPS  H18Z  133   2.041   5.905   8.611 -0.0227  0.0214 -0.3011
    2SAPS     N  134   5.985   6.451  10.914  0.3368 -0.1802 -0.2003
    2SAPS   HN1  135   5.923   6.505  10.851  1.2318  0.4127 -0.5721
    2SAPS   HN2  136   5.954   6.462  11.013  2.2307  2.9703  0.0939
    2SAPS   HN3  137   6.085   6.480  10.918  0.8698 -1.8709 -0.8139
    2SAPS   C12  138   5.962   6.304  10.880  0.1522  0.0157 -0.4657
    2SAPS  H12A  139   5.968   6.279  10.776  2.2205 -0.0758 -0.3602
    2SAPS   C13  140   6.074   6.218  10.953  0.1016 -0.5223  0.0609
    2SAPS  O13A  141   6.156   6.276  11.027  0.2189 -0.1554  0.1045
    2SAPS  O13B  142   6.085   6.101  10.915  0.5078  0.4066 -0.1754
    2SAPS   C11  143   5.814   6.267  10.933 -0.6616 -0.0011 -0.0792
    2SAPS  H11A  144   5.806   6.302  11.038  0.4893  0.2717 -0.0751
    2SAPS  H11B  145   5.806   6.157  10.940 -0.6730  0.0239  0.3389
    2SAPS     P  146   5.640   6.255  10.739  0.3918  0.2018  0.0450
    2SAPS   O13  147   5.526   6.176  10.787 -0.0509  0.0037 -0.1763
    2SAPS   O14  148   5.608   6.347  10.630  0.1419 -0.5404 -0.5062
    2SAPS   O12  149   5.714   6.328  10.856  0.5828  0.1805  0.0739
    2SAPS   O11  150   5.759   6.161  10.691  0.2214  0.2102  0.4770
    2SAPS    C1  151   5.739   6.027  10.654 -0.3121 -0.0598  0.4773
    2SAPS    HA  152   5.712   5.963  10.740 -3.0381  0.3159 -0.0663
    2SAPS    HB  153   5.656   6.015  10.581  1.5651 -1.7161 -1.4869
    2SAPS    C2  154   5.879   5.966  10.605  0.6528  0.1909 -0.1370
    2SAPS    HS  155   5.947   6.009  10.681  0.3328  1.7857 -0.7413
    2SAPS   O21  156   5.892   6.023  10.473  0.2470 -0.8551  0.0959
    2SAPS   C21  157   6.014   6.071  10.441 -1.0517 -0.0967  0.2187
    2SAPS   O22  158   6.108   6.044  10.513 -0.2705  0.0832  0.8627
    2SAPS   C22  159   6.016   6.170  10.326  0.8926  0.1027 -0.0751
    2SAPS   H2R  160   5.927   6.148  10.263  0.2256  1.2035  0.4546
    2SAPS   H2S  161   6.009   6.272  10.370 -0.3032  0.8244 -1.8428
    2SAPS    C3  162   5.863   5.812  10.604 -0.0219 -0.6466 -0.1013
    2SAPS    HX  163   5.769   5.796  10.547  1.1518 -2.3458 -1.6449
    2SAPS    HY  164   5.851   5.776  10.708  1.2876  1.2397  0.7359
    2SAPS   O31  165   5.968   5.743  10.529  0.5197  0.1647  0.0850
    2SAPS   C31  166   6.084   5.741  10.597  0.8778  0.3531 -0.4813
    2SAPS   O32  167   6.107   5.778  10.714  0.1923 -0.3694 -0.0180
    2SAPS   C32  168   6.189   5.682  10.497  0.2267 -0.6040  0.2588
    2SAPS   H2X  169   6.144   5.673  10.395  0.2930 -1.6013  0.3144
    2SAPS   H2Y  170   6.217   5.581  10.534 -0.4051 -0.4619  1.1380
    2SAPS   C23  171   6.145   6.154  10.246  0.2888 -0.2718  0.4543
    2SAPS   H3R  172   6.233   6.185  10.307  0.7639  0.2069 -0.4653
    2SAPS   H3S  173   6.139   6.222  10.158  0.9996 -2.7768 -1.5886
    2SAPS   C24  174   6.155   6.010  10.189 -0.0484 -0.3885  0.1067
    2SAPS   H4R  175   6.069   5.998  10.121 -1.7255  0.2843  2.0477
    2SAPS   H4S  176   6.151   5.929  10.265 -1.1196 -1.0831 -0.6879
    2SAPS   C25  177   6.285   5.999  10.115 -0.1102  0.1406 -0.0537
    2SAPS   H5R  178   6.370   5.988  10.183 -1.1181  0.0213  1.2189
    2SAPS   C26  179   6.305   5.993   9.984 -0.3404 -0.8410  0.1817
    2SAPS   H6R  180   6.410   5.983   9.952 -0.4167  0.0957 -0.3520
    2SAPS   C27  181   6.208   5.991   9.872 -0.0419  0.1712  0.1100
    2SAPS   H7R  182   6.198   6.094   9.831  0.3125  0.1260 -0.0973
    2SAPS   H7S  183   6.109   5.965   9.915 -0.9054  3.4729  0.2343
    2SAPS   C28  184   6.251   5.895   9.764 -0.0610 -0.2427  0.9104
    2SAPS   H8R  185   6.277   5.796   9.805  2.2889  0.3617  0.9253
    2SAPS   C29  186   6.279   5.915   9.632  0.0223  0.0906  0.3198
    2SAPS   H9R  187   6.294   5.831   9.563  0.0009 -0.1515  0.6080
    2SAPS  C210  188   6.271   6.032   9.547 -0.4230 -0.6828 -0.5893
    2SAPS  H10R  189   6.343   6.008   9.465  1.9084 -1.5214  1.6274
    2SAPS  H10S  190   6.309   6.124   9.598 -1.6023 -0.9368  0.7614
    2SAPS  C211  191   6.128   6.053   9.494 -0.3140  0.2567  0.2749
    2SAPS  H11R  192   6.053   6.059   9.573 -0.2816 -1.3611  0.4493
    2SAPS  C212  193   6.099   6.063   9.362  0.7988  0.6283  0.6576
    2SAPS  H12R  194   5.992   6.069   9.338  0.8368 -0.0098  0.3300
    2SAPS  C213  195   6.194   6.049   9.242 -0.5181 -0.2965 -0.0392
    2SAPS  H13R  196   6.301   6.068   9.265 -0.3624 -0.7489 -0.3756
    2SAPS  H13S  197   6.149   6.135   9.188  1.0239  0.3588 -0.3226
    2SAPS  C214  198   6.172   5.912   9.176 -0.1945  0.7247  0.5070
    2SAPS  H14R  199   6.128   5.830   9.236  0.5410 -0.0945 -0.0622
    2SAPS  C215  200   6.189   5.884   9.046 -0.1876  0.5992 -0.6555
    2SAPS  H15R  201   6.172   5.779   9.019  2.5223 -0.4658  1.5009
    2SAPS  C216  202   6.231   5.967   8.926  0.4133 -0.0598  0.4329
    2SAPS  H16R  203   6.316   5.922   8.871  1.0912  1.5175  0.1733
    2SAPS  H16S  204   6.257   6.073   8.949 -0.6248  0.1549  0.6456
    2SAPS  C217  205   6.111   5.989   8.829 -0.1352  0.9529 -0.1384
    2SAPS  H17R  206   6.155   6.045   8.744 -0.6952  0.4115 -0.7831
    2SAPS  H17S  207   6.037   6.051   8.884 -1.4991 -1.0152  0.2671
    2SAPS  C218  208   6.039   5.868   8.772 -0.8314 -0.7468  0.3479
    2SAPS  H18R  209   6.005   5.812   8.862 -1.6925 -0.5880  0.1220
    2SAPS  H18S  210   6.124   5.818   8.720  0.0636  0.6454  0.4399
    2SAPS  C219  211   5.929   5.907   8.671  0.5740 -0.1468 -0.1623
    2SAPS  H19R  212   5.898   5.820   8.609 -0.3464 -0.0232  0.1150
    2SAPS  H19S  213   5.968   5.989   8.607 -0.0529  0.5205  0.3034
    2SAPS  C220  214   5.801   5.962   8.740  0.8832  0.0074  1.0477
    2SAPS  H20R  215   5.736   6.015   8.667  3.1677  1.7469  0.2162
    2SAPS  H20S  216   5.829   6.032   8.822  0.6701  0.7280  0.5123
    2SAPS  H20T  217   5.759   5.870   8.786  0.3528  0.6570  1.8867
    2SAPS   C33  218   6.322   5.759  10.494 -0.1587  0.0395 -0.2718
    2SAPS   H3X  219   6.367   5.737  10.593  1.5369 -0.6617 -1.1939
    2SAPS   H3Y  220   6.297   5.867  10.487 -0.4183 -0.1653 -3.0634
    2SAPS   C34  221   6.419   5.733  10.386  0.5414 -0.4210  0.4477
    2SAPS   H4X  222   6.363   5.720  10.291  2.2096  0.0526 -0.6108
    2SAPS   H4Y  223   6.467   5.633  10.396 -0.8283 -1.0906  0.5115
    2SAPS   C35  224   6.529   5.834  10.365 -0.3287  0.2845 -1.0560
    2SAPS   H5X  225   6.598   5.849  10.451 -1.0409 -2.5900  0.0548
    2SAPS   H5Y  226   6.477   5.931  10.345  0.1782  0.8503  0.3072
    2SAPS   C36  227   6.617   5.787  10.249 -0.3011  0.0865 -0.2902
    2SAPS   H6X  228   6.630   5.678  10.267 -1.2610 -0.4421 -2.6423
    2SAPS   H6Y  229   6.713   5.842  10.240  0.4866 -1.3390 -0.6082
    2SAPS   C37  230   6.557   5.790  10.104 -0.2212  0.0336  0.2737
    2SAPS   H7X  231   6.544   5.896  10.073  1.0279 -0.0164 -0.4597
    2SAPS   H7Y  232   6.462   5.732  10.103 -0.2878  0.1432 -1.1137
    2SAPS   C38  233   6.656   5.730  10.005  0.0082 -0.2841  0.5816
    2SAPS   H8X  234   6.684   5.632  10.051  2.5323  0.0107 -0.2283
    2SAPS   H8Y  235   6.754   5.782  10.013 -0.9959  1.5843  0.9160
    2SAPS   C39  236   6.593   5.726   9.871 -0.7534  1.2606  0.3657
    2SAPS   H9X  237   6.602   5.826   9.824 -0.4518  1.6061  1.1629
    2SAPS   H9Y  238   6.484   5.715   9.887 -0.6759  0.4538  0.3649
    2SAPS  C310  239   6.657   5.617   9.783 -0.2381  0.3573 -0.5610
    2SAPS  H10X  240   6.672   5.525   9.845 -0.3362 -0.4049 -1.6548
    2SAPS  H10Y  241   6.760   5.656   9.769  0.8615 -1.8984  0.8496
    2SAPS  C311  242   6.590   5.571   9.653 -0.3056 -0.8083  0.5128
    2SAPS  H11X  243   6.487   5.538   9.679 -0.0492 -1.5276  0.6331
    2SAPS  H11Y  244   6.642   5.478   9.620 -0.6643 -0.1146 -2.0849
    2SAPS  C312  245   6.588   5.678   9.543 -0.3671 -0.3192 -0.0338
    2SAPS  H12X  246   6.688   5.726   9.536 -0.4611 -0.4366 -2.7541
    2SAPS  H12Y  247   6.524   5.766   9.565 -0.8597 -0.9758  1.2422
    2SAPS  C313  248   6.548   5.611   9.413 -0.5196  0.2319  0.0805
    2SAPS  H13X  249   6.440   5.590   9.395  0.3139 -3.1127 -1.2185
    2SAPS  H13Y  250   6.600   5.513   9.411  0.3426  0.6581  1.1538
    2SAPS  C314  251   6.585   5.698   9.289 -0.5941  0.0497  0.8857
    2SAPS  H14X  252   6.579   5.632   9.200  0.2735 -1.4884  1.9565
    2SAPS  H14Y  253   6.692   5.728   9.283 -0.5568  0.1038  1.8103
    2SAPS  C315  254   6.512   5.832   9.272  0.9628 -0.3678 -0.0510
    2SAPS  H15X  255   6.522   5.885   9.369  0.7570  0.8657 -0.7029
    2SAPS  H15Y  256   6.406   5.806   9.256  0.7234  1.5245 -1.6470
    2SAPS  C316  257   6.570   5.926   9.163 -0.7719  0.0509  0.1040
    2SAPS  H16X  258   6.670   5.956   9.203 -0.5794 -0.2903 -0.1214
    2SAPS  H16Y  259   6.495   6.006   9.176 -2.0970 -0.8272 -1.9369
    2SAPS  C317  260   6.568   5.879   9.023  0.0822 -0.3353 -0.6863
    2SAPS  H17X  261   6.465   5.847   8.996 -0.6666 -1.2997  2.9657
    2SAPS  H17Y  262   6.628   5.786   9.019 -0.5888 -0.8334  0.3997
    2SAPS  C318  263   6.634   5.966   8.916  0.5183 -0.0945  0.5046
    2SAPS  H18X  264   6.674   5.902   8.834 -1.0425 -0.8400  0.2990
    2SAPS  H18Y  265   6.705   6.034   8.967 -1.6683  2.0114  0.8478
    2SAPS  H18Z  266   6.559   6.036   8.873 -0.5502 -1.1807  0.5793
    3SAPS     N  267   6.087   0.457  10.724  0.1513 -0.0652  0.1892
    3SAPS   HN1  268   5.997   0.446  10.674  1.8535 -2.0355 -2.5697
    3SAPS   HN2  269   6.162   0.451  10.653 -1.5776  1.3057 -1.8042
    3SAPS   HN3  270   6.101   0.371  10.780 -2.2047 -1.6997 -1.6269
    3SAPS   C12  271   6.101   0.583  10.800 -0.1368  0.4806  0.7061
    3SAPS  H12A  272   6.083   0.668  10.736  0.5195 -1.0636 -1.6002
    3SAPS   C13  273   5.995   0.596  10.909 -0.6153  0.4239  0.2659
    3SAPS  O13A  274   5.897   0.513  10.909  0.1285 -0.5630  0.6033
    3SAPS  O13B  275   5.994   0.698  10.982 -0.1569  0.7315 -0.5932
    3SAPS   C11  276   6.242   0.588  10.863 -0.2807 -0.5598  0.2165
    3SAPS  H11A  277   6.265   0.511  10.940  2.6115 -0.1298 -0.1374
    3SAPS  H11B  278   6.249   0.683  10.920 -1.7348  0.2854 -0.9922
    3SAPS     P  279   6.442   0.684  10.738  0.5361  0.0399 -0.1242
    3SAPS   O13  280   6.497   0.717  10.869  0.1464 -0.2291  0.2647
    3SAPS   O14  281   6.535   0.651  10.628  0.2540 -0.3350  0.2413
    3SAPS   O12  282   6.345   0.570  10.764 -0.2376  0.2667  0.5098
    3SAPS   O11  283   6.348   0.796  10.688  0.1227  0.2510 -0.0210
    3SAPS    C1  284   6.268   0.786  10.565  0.4007  0.1514 -0.2008
    3SAPS    HA  285   6.261   0.680  10.534  0.7556 -1.1850  3.9821
    3SAPS    HB  286   6.166   0.826  10.579 -0.1170 -1.4083  0.5738
    3SAPS    C2  287   6.327   0.868  10.444 -0.5337 -0.0574 -0.3048
    3SAPS    HS  288   6.423   0.819  10.419  0.4807  0.9503  1.5116
    3SAPS   O21  289   6.358   1.005  10.473  0.3739  0.2143  0.3925
    3SAPS   C21  290   6.469   1.025  10.544  0.2215  0.5556  0.1561
    3SAPS   O22  291   6.563   0.943  10.548  0.3114 -0.1059 -0.3097
    3SAPS   C22  292   6.469   1.158  10.621 -0.3632 -0.3071 -0.0766
    3SAPS   H2R  293   6.364   1.182  10.649 -0.3253  1.3124 -1.2353
    3SAPS   H2S  294   6.537   1.157  10.709 -0.3149  1.7521 -0.0768
    3SAPS    C3  295   6.239   0.864  10.313 -0.3894  0.3144  0.5800
    3SAPS    HX  296   6.277   0.948  10.252  2.0938 -1.2370 -0.0959
    3SAPS    HY  297   6.136   0.890  10.344 -0.1230  1.6309  0.3979
    3SAPS   O31  298   6.232   0.744  10.237  0.0445  0.5098 -0.1917
    3SAPS   C31  299   6.344   0.706  10.176  0.2773  0.3014  0.3661
    3SAPS   O32  300   6.454   0.761  10.188  0.5070 -0.4919  0.0428
    3SAPS   C32  301   6.328   0.580  10.097 -0.0127  0.0439  0.0316
    3SAPS   H2X  302   6.219   0.563  10.095  0.0050 -0.1286  0.4059
    3SAPS   H2Y  303   6.379   0.502  10.157  0.3771 -0.5782 -1.0930
    3SAPS   C23  304   6.523   1.268  10.534 -0.0037 -0.4890  0.1579
    3SAPS   H3R  305   6.629   1.251  10.508  0.0853  1.7750 -1.1291
    3SAPS   H3S  306   6.530   1.363  10.593 -2.9744  0.6119 -1.1336
    3SAPS   C24  307   6.439   1.305  10.407 -0.6093  0.1131 -0.5225
    3SAPS   H4R  308   6.338   1.314  10.451  0.0202 -0.0324  0.9712
    3SAPS   H4S  309   6.432   1.223  10.332  1.6470  0.3844 -1.0782
    3SAPS   C25  310   6.476   1.436  10.340 -0.1902 -0.0622  0.0684
    3SAPS   H5R  311   6.435   1.523  10.394  0.7489  2.3529 -2.9645
    3SAPS   C26  312   6.545   1.454  10.231 -0.2725 -0.2373  0.7088
    3SAPS   H6R  313   6.576   1.552  10.191  0.7338 -0.4316  1.0043
    3SAPS   C27  314   6.609   1.344  10.146  0.1644 -0.6826  0.3097
    3SAPS   H7R  315   6.618   1.382  10.042  1.0795  0.7291  0.8847
    3SAPS   H7S  316   6.549   1.251  10.137  0.5116 -0.7890 -1.0245
    3SAPS   C28  317   6.738   1.306  10.214 -0.2409 -0.8051  0.4682
    3SAPS   H8R  318   6.719   1.267  10.315  0.1122 -2.1598  0.0147
    3SAPS   C29  319   6.860   1.320  10.163 -0.4798 -0.1895  0.0905
    3SAPS   H9R  320   6.954   1.302  10.218 -0.5686 -1.3797 -0.1429
    3SAPS  C210  321   6.891   1.368  10.028  1.0487 -0.0858 -0.4304
    3SAPS  H10R  322   6.870   1.477  10.030 -0.5346 -0.3993  0.6816
    3SAPS  H10S  323   6.815   1.331   9.955  0.1370  2.6550 -0.9511
    3SAPS  C211  324   7.028   1.343   9.982 -0.0042  0.3091  0.1232
    3SAPS  H11R  325   7.056   1.239  10.004  0.7525  0.5473  0.3191
    3SAPS  C212  326   7.115   1.425   9.919 -0.0038  0.3240 -0.1568
    3SAPS  H12R  327   7.214   1.386   9.894  0.0837  1.9450 -2.4643
    3SAPS  C213  328   7.086   1.570   9.873  0.4914 -0.7160 -0.4086
    3SAPS  H13R  329   6.997   1.610   9.927  1.0320  1.5562 -1.1626
    3SAPS  H13S  330   7.043   1.561   9.771 -0.3028 -2.6557  0.0750
    3SAPS  C214  331   7.206   1.660   9.885  0.6738  0.0931  0.4343
    3SAPS  H14R  332   7.254   1.650   9.983  0.5046  0.4594  0.5566
    3SAPS  C215  333   7.260   1.742   9.788  0.0017 -0.0579 -0.4422
    3SAPS  H15R  334   7.354   1.798   9.797  1.0352 -1.4047 -2.3577
    3SAPS  C216  335   7.191   1.761   9.654 -0.0618  0.5503 -0.3297
    3SAPS  H16R  336   7.123   1.677   9.628 -0.0156  0.6538 -0.7776
    3SAPS  H16S  337   7.264   1.765   9.571  0.5092 -0.2363  0.1197
    3SAPS  C217  338   7.113   1.895   9.635 -0.4728  0.5345  0.1174
    3SAPS  H17R  339   7.038   1.912   9.716 -0.0747 -1.4765  0.9388
    3SAPS  H17S  340   7.049   1.892   9.544 -1.3377  0.1209  0.7357
    3SAPS  C218  341   7.199   2.016   9.622  0.0472 -0.1100  0.3438
    3SAPS  H18R  342   7.268   2.002   9.536  0.1071 -2.2460  0.7298
    3SAPS  H18S  343   7.253   2.037   9.717  1.2280 -0.1978 -0.3021
    3SAPS  C219  344   7.117   2.143   9.598  0.1136 -0.2243 -0.1410
    3SAPS  H19R  345   7.040   2.152   9.678  1.9741  1.1620  1.5366
    3SAPS  H19S  346   7.057   2.155   9.505 -1.1552 -0.7849  0.5903
    3SAPS  C220  347   7.219   2.259   9.599 -0.1436  0.0340  0.1954
    3SAPS  H20R  348   7.282   2.255   9.690  0.4703 -1.5114 -0.2881
    3SAPS  H20S  349   7.163   2.355   9.603 -0.3458 -0.0877  0.3060
    3SAPS  H20T  350   7.286   2.256   9.511  0.5016  2.8469  0.5502
    3SAPS   C33  351   6.397   0.595   9.960  0.0519 -0.1498 -0.0572
    3SAPS   H3X  352   6.393   0.498   9.907 -0.8000 -1.7020  2.7652
    3SAPS   H3Y  353   6.505   0.618   9.972 -0.0513 -0.8347  2.4220
    3SAPS   C34  354   6.339   0.715   9.877  0.1296  0.1166 -0.3167
    3SAPS   H4X  355   6.359   0.808   9.934 -0.4975  0.5702 -0.8230
    3SAPS   H4Y  356   6.230   0.731   9.886 -0.4529 -2.5867 -2.0004
    3SAPS   C35  357   6.375   0.721   9.730  0.2386 -0.6195 -0.3578
    3SAPS   H5X  358   6.471   0.777   9.735 -0.0285 -0.2038  0.1951
    3SAPS   H5Y  359   6.310   0.795   9.679  0.6953  1.0755  1.4550
    3SAPS   C36  360   6.366   0.584   9.650 -0.4703  0.1197 -1.1514
    3SAPS   H6X  361   6.266   0.538   9.667 -0.4134  0.8042  1.1804
    3SAPS   H6Y  362   6.443   0.516   9.693 -1.1632  0.0767  0.0433
    3SAPS   C37  363   6.379   0.602   9.501  0.0350  0.0094  0.4235
    3SAPS   H7X  364   6.456   0.681   9.482  0.8184 -0.9915 -0.6630
    3SAPS   H7Y  365   6.279   0.634   9.464  0.4791 -1.2442 -1.9645
    3SAPS   C38  366   6.413   0.466   9.436 -0.6208 -0.9074  0.5774
    3SAPS   H8X  367   6.330   0.393   9.453 -0.9811 -0.5837  0.2143
    3SAPS   H8Y  368   6.507   0.420   9.473 -0.4741  1.0683  2.7903
    3SAPS   C39  369   6.439   0.476   9.283 -0.2224 -0.6501  0.8204
    3SAPS   H9X  370   6.499   0.389   9.248 -0.3490 -0.2995 -0.2804
    3SAPS   H9Y  371   6.495   0.569   9.260 -0.8633 -0.1970  1.0868
    3SAPS  C310  372   6.302   0.487   9.208  0.9041  0.3311 -0.5900
    3SAPS  H10X  373   6.247   0.577   9.243  0.4721  0.2167 -0.9676
    3SAPS  H10Y  374   6.244   0.394   9.227 -0.0454  0.8777 -0.7743
    3SAPS  C311  375   6.317   0.514   9.060  0.7245  0.3208 -0.1623
    3SAPS  H11X  376   6.341   0.421   9.005 -1.9631 -0.2755 -0.3812
    3SAPS  H11Y  377   6.392   0.591   9.034  0.3968  1.2170  1.4348
    3SAPS  C312  378   6.176   0.558   9.004 -0.6306  0.8536  0.2963
    3SAPS  H12X  379   6.142   0.657   9.041  1.5276  2.4420 -1.8050
    3SAPS  H12Y  380   6.101   0.491   9.050  0.3331 -0.4713 -0.0542
    3SAPS  C313  381   6.161   0.550   8.856 -0.3022  0.5280  0.4054
    3SAPS  H13X  382   6.055   0.572   8.830 -1.0515 -0.9890  2.0715
    3SAPS  H13Y  383   6.169   0.449   8.812  0.5262  0.9368 -0.3933
    3SAPS  C314  384   6.262   0.653   8.798  0.8711  0.0341  0.0270
    3SAPS  H14X  385   6.367   0.634   8.828  0.1282 -0.6866  2.2521
    3SAPS  H14Y  386   6.234   0.753   8.837  0.9319  0.4446 -0.9549
    3SAPS  C315  387   6.254   0.659   8.643  0.2432  0.9335  0.1773
    3SAPS  H15X  388   6.151   0.698   8.626 -0.4000 -1.3783 -1.5033
    3SAPS  H15Y  389   6.266   0.556   8.605 -2.3636  1.0513 -1.0818
    3SAPS  C316  390   6.345   0.743   8.567  0.2205  0.6590  0.0866
    3SAPS  H16X  391   6.438   0.734   8.627 -0.0605 -1.7616  0.1785
    3SAPS  H16Y  392   6.315   0.850   8.572 -0.9534  0.2792  1.5131
    3SAPS  C317  393   6.363   0.693   8.425  0.7956  0.6006 -0.5438
    3SAPS  H17X  394   6.274   0.719   8.364  0.0114  0.4731  0.5135
    3SAPS  H17Y  395   6.370   0.582   8.427 -0.1176  0.5380 -0.7425
    3SAPS  C318  396   6.495   0.748   8.365  0.4324  0.2450  0.2294
    3SAPS  H18X  397   6.495   0.857   8.344  0.8639  0.2878  0.4303
    3SAPS  H18Y  398   6.526   0.695   8.272 -1.6631 -0.9727  0.1839
    3SAPS  H18Z  399   6.574   0.717   8.438 -0.5013 -2.0108  0.3286
    4SAPS     N  400   2.267   2.738  10.762 -0.1214  0.1699  0.1300
    4SAPS   HN1  401   2.167   2.759  10.739 -0.2070 -0.2791  0.0898
    4SAPS   HN2  402   2.319   2.819  10.801  1.3703 -1.3548  1.3699
    4SAPS   HN3  403   2.308   2.711  10.670  0.2405 -0.1315  0.3786
    4SAPS   C12  404   2.277   2.633  10.864  1.0177  0.2866  0.2689
    4SAPS  H12A  405   2.380   2.634  10.896  0.9242 -1.9362  0.7366
    4SAPS   C13  406   2.195   2.666  10.993 -0.1086 -0.7152 -0.7868
    4SAPS  O13A  407   2.158   2.785  11.006  0.1973 -0.9546 -0.0770
    4SAPS  O13B  408   2.222   2.596  11.098  0.2094 -0.0830 -0.2041
    4SAPS   C11  409   2.230   2.493  10.796 -0.0697  0.5778  0.5757
    4SAPS  H11A  410   2.120   2.493  10.783  0.1272 -0.5398 -1.2835
    4SAPS  H11B  411   2.250   2.419  10.876 -0.2888 -2.9950 -2.5306
    4SAPS     P  412   2.337   2.326  10.603 -0.2000  0.0558  0.4119
    4SAPS   O13  413   2.447   2.341  10.503 -0.1557 -0.3055  0.4056
    4SAPS   O14  414   2.351   2.224  10.704  0.5121 -0.1332 -0.0589
    4SAPS   O12  415   2.302   2.469  10.669 -0.1625 -0.0302  0.2801
    4SAPS   O11  416   2.207   2.293  10.523  0.0726  0.2811 -0.0063
    4SAPS    C1  417   2.104   2.378  10.478  0.0715 -0.1220  0.1898
    4SAPS    HA  418   2.010   2.373  10.536 -0.4868  0.8628 -0.6052
    4SAPS    HB  419   2.139   2.484  10.485  2.5752 -0.8858 -0.2871
    4SAPS    C2  420   2.063   2.351  10.325 -0.2583 -0.5200  0.1854
    4SAPS    HS  421   2.028   2.446  10.280 -0.6073 -1.2419 -1.0950
    4SAPS   O21  422   1.964   2.244  10.307  0.3880  0.2794 -0.2588
    4SAPS   C21  423   1.844   2.280  10.327  0.0475  0.2075  0.4281
    4SAPS   O22  424   1.802   2.389  10.364  0.0995  0.0182 -0.0648
    4SAPS   C22  425   1.758   2.156  10.316 -0.2279 -0.2489  0.3195
    4SAPS   H2R  426   1.788   2.088  10.234  1.8526  0.7499  0.2134
    4SAPS   H2S  427   1.768   2.108  10.415  0.4908  2.9695  1.8851
    4SAPS    C3  428   2.187   2.301  10.245  0.2227  0.0778 -0.0499
    4SAPS    HX  429   2.213   2.200  10.281  2.5596  0.2270 -1.2194
    4SAPS    HY  430   2.274   2.354  10.290 -1.3563  0.5247  2.5451
    4SAPS   O31  431   2.176   2.312  10.104 -0.4302 -0.4093 -0.2916
    4SAPS   C31  432   2.285   2.316  10.035 -0.6283  0.8900 -0.8646
    4SAPS   O32  433   2.398   2.317  10.082  0.4823  0.5841 -0.4091
    4SAPS   C32  434   2.252   2.343   9.887  0.0722  0.5259 -0.0565
    4SAPS   H2X  435   2.145   2.355   9.861 -0.2750 -1.3795  0.4634
    4SAPS   H2Y  436   2.297   2.253   9.841  0.7762  0.2254  1.2039
    4SAPS   C23  437   1.606   2.188  10.308 -0.6884 -0.0098  1.1693
    4SAPS   H3R  438   1.579   2.262  10.229 -0.0555 -0.1268  0.8366
    4SAPS   H3S  439   1.575   2.226  10.407 -1.1003 -0.4409  1.2047
    4SAPS   C24  440   1.526   2.064  10.292  0.3468  0.3544  0.0055
    4SAPS   H4R  441   1.418   2.087  10.285 -0.3350 -3.1014 -2.0202
    4SAPS   H4S  442   1.536   1.988  10.373 -1.6415  0.5633  0.4714
    4SAPS   C25  443   1.568   2.000  10.166 -0.4970 -0.8939 -0.4368
    4SAPS   H5R  444   1.627   1.907  10.176 -0.9095 -0.8717  2.4447
    4SAPS   C26  445   1.522   2.039  10.041  0.0198 -0.0909  0.1106
    4SAPS   H6R  446   1.578   1.995   9.957  1.1481  0.0665  0.7628
    4SAPS   C27  447   1.435   2.152  10.000  0.1621  0.4919  0.0387
    4SAPS   H7R  448   1.489   2.238   9.955 -0.9989  0.6775 -1.0277
    4SAPS   H7S  449   1.391   2.191  10.094 -1.9602  0.1213 -0.7665
    4SAPS   C28  450   1.332   2.094   9.903 -0.4392 -0.4283  0.2577
    4SAPS   H8R  451   1.280   2.003   9.935 -2.2097  1.0028  1.5357
    4SAPS   C29  452   1.312   2.141   9.777 -0.0009 -0.2119  0.9168
    4SAPS   H9R  453   1.242   2.090   9.709  0.7051  0.1667 -0.1045
    4SAPS  C210  454   1.377   2.263   9.717 -0.8990 -0.3886 -0.2234
    4SAPS  H10R  455   1.388   2.338   9.798  2.7858 -1.3320  0.2397
    4SAPS  H10S  456   1.319   2.315   9.638  0.0533  0.0740 -0.6204
    4SAPS  C211  457   1.519   2.239   9.668 -0.2690  0.0133 -0.0718
    4SAPS  H11R  458   1.599   2.273   9.736  0.0557 -1.1970  0.1631
    4SAPS  C212  459   1.565   2.166   9.560 -0.4710 -0.2815  0.0826
    4SAPS  H12R  460   1.674   2.156   9.551 -0.5905  0.4421 -2.3537
    4SAPS  C213  461   1.468   2.097   9.462  0.2977 -0.6195 -0.8338
    4SAPS  H13R  462   1.380   2.162   9.447 -0.8995 -2.1137 -0.5108
    4SAPS  H13S  463   1.424   2.010   9.516 -0.7586  0.4079 -0.0182
    4SAPS  C214  464   1.523   2.045   9.339  0.1723 -0.3052 -0.7051
    4SAPS  H14R  465   1.632   2.041   9.333  0.2442 -2.0566  1.4376
    4SAPS  C215  466   1.452   2.001   9.231 -0.3602 -0.5183 -0.2873
    4SAPS  H15R  467   1.500   1.964   9.140  1.0954  1.0404 -0.1815
    4SAPS  C216  468   1.307   1.988   9.228 -0.1338  0.1413 -0.6425
    4SAPS  H16R  469   1.263   1.963   9.327 -1.2280 -1.1308 -1.4270
    4SAPS  H16S  470   1.285   1.893   9.174 -0.1950 -0.0355 -0.3089
    4SAPS  C217  471   1.226   2.090   9.148  0.2217  0.8208  0.7127
    4SAPS  H17R  472   1.248   2.197   9.172  1.6703  0.6318  0.2693
    4SAPS  H17S  473   1.130   2.081   9.203  0.0934  0.6672  0.4622
    4SAPS  C218  474   1.220   2.058   9.001  0.2533 -0.2171 -0.8084
    4SAPS  H18R  475   1.145   1.983   8.966 -0.1573  0.1140 -0.6349
    4SAPS  H18S  476   1.319   2.022   8.967 -0.3741 -1.4215 -1.4342
    4SAPS  C219  477   1.191   2.190   8.931  0.4191 -0.0851  0.6087
    4SAPS  H19R  478   1.093   2.237   8.955  0.4103 -1.0983  2.6325
    4SAPS  H19S  479   1.190   2.162   8.823  1.2785 -2.1603  1.1197
    4SAPS  C220  480   1.304   2.299   8.936  0.6396 -0.1564 -0.2615
    4SAPS  H20R  481   1.406   2.270   8.904  1.4589  1.7275  0.5772
    4SAPS  H20S  482   1.307   2.344   9.037 -0.0059  0.3909 -0.4795
    4SAPS  H20T  483   1.274   2.380   8.867  0.3555  0.3282  0.4229
    4SAPS   C33  484   2.328   2.466   9.832  0.1441 -0.2384  0.1966
    4SAPS   H3X  485   2.435   2.438   9.843  0.2888 -1.2445 -3.1677
    4SAPS   H3Y  486   2.307   2.562   9.883  0.3668  0.9440 -1.8672
    4SAPS   C34  487   2.294   2.502   9.689  0.4240  0.6512  0.5748
    4SAPS   H4X  488   2.184   2.512   9.688  0.3897  0.4285  1.8297
    4SAPS   H4Y  489   2.332   2.431   9.612  1.8599 -0.0687  1.9250
    4SAPS   C35  490   2.372   2.631   9.645 -0.0979 -0.1019  0.0629
    4SAPS   H5X  491   2.478   2.602   9.656  0.5813  2.6494  1.1393
    4SAPS   H5Y  492   2.340   2.716   9.709  1.0861  0.2475  0.1928
    4SAPS   C36  493   2.348   2.660   9.499 -0.0532  0.5906  0.3710
    4SAPS   H6X  494   2.355   2.770   9.482 -0.7573  0.5560 -0.1638
    4SAPS   H6Y  495   2.251   2.618   9.463 -0.2568  1.8359 -0.5838
    4SAPS   C37  496   2.468   2.621   9.404 -0.1715  0.5274  0.2227
    4SAPS   H7X  497   2.475   2.510   9.404 -0.7638  0.3810 -4.3158
    4SAPS   H7Y  498   2.565   2.656   9.444  0.0350 -0.5490  0.6816
    4SAPS   C38  499   2.442   2.673   9.256  0.1272  0.1917 -0.3365
    4SAPS   H8X  500   2.470   2.780   9.250 -0.0258  0.2436 -0.1295
    4SAPS   H8Y  501   2.333   2.654   9.242 -0.2534 -0.1199  2.6221
    4SAPS   C39  502   2.528   2.594   9.163  0.3878 -0.2801  0.2368
    4SAPS   H9X  503   2.512   2.484   9.164  1.1170 -0.3988 -0.2495
    4SAPS   H9Y  504   2.637   2.606   9.180  0.8198  1.0059 -2.9385
    4SAPS  C310  505   2.501   2.653   9.017  0.5031  0.1977 -0.2902
    4SAPS  H10X  506   2.496   2.762   9.037 -0.4533 -0.2680  2.1665
    4SAPS  H10Y  507   2.411   2.606   8.971  0.2845 -1.5774  1.8833
    4SAPS  C311  508   2.621   2.631   8.920  0.4105  0.3944 -0.1299
    4SAPS  H11X  509   2.624   2.521   8.904  0.4360  0.4985 -0.8563
    4SAPS  H11Y  510   2.719   2.647   8.970  2.0431 -2.3778 -2.3138
    4SAPS  C312  511   2.622   2.710   8.795 -0.7693  0.1165 -0.1540
    4SAPS  H12X  512   2.625   2.818   8.823 -2.0905  0.5820 -1.7215
    4SAPS  H12Y  513   2.516   2.704   8.761 -1.2203  2.2528  0.7694
    4SAPS  C313  514   2.714   2.658   8.676  1.2379  0.1820 -0.5915
    4SAPS  H13X  515   2.691   2.550   8.685  0.1597  0.5254  1.0639
    4SAPS  H13Y  516   2.817   2.676   8.713  1.5874 -0.5421 -1.2028
    4SAPS  C314  517   2.694   2.725   8.538 -0.5028 -0.4643  0.5072
    4SAPS  H14X  518   2.794   2.722   8.488 -0.6726 -0.7264  0.1828
    4SAPS  H14Y  519   2.663   2.831   8.532 -0.3702 -0.3675  1.4463
    4SAPS  C315  520   2.595   2.651   8.450 -0.4612 -0.2788  0.3561
    4SAPS  H15X  521   2.590   2.703   8.352  1.9676 -1.7875 -0.6003
    4SAPS  H15Y  522   2.496   2.665   8.500  0.3415  3.3653  1.0999
    4SAPS  C316  523   2.636   2.504   8.422 -0.1367  0.4126 -0.2663
    4SAPS  H16X  524   2.633   2.445   8.516 -1.7629  3.0001  1.3319
    4SAPS  H16Y  525   2.743   2.505   8.390  0.3098  2.4377  1.2285
    4SAPS  C317  526   2.542   2.442   8.318 -0.5793 -0.4125  0.0362
    4SAPS  H17X  527   2.440   2.474   8.349 -1.8847 -3.2901 -1.1917
    4SAPS  H17Y  528   2.550   2.333   8.336  1.1939 -0.3315 -0.1411
    4SAPS  C318  529   2.565   2.483   8.171 -0.1534 -0.1843  0.3888
    4SAPS  H18X  530   2.543   2.591   8.156 -1.4765 -0.2496  1.7527
    4SAPS  H18Y  531   2.506   2.418   8.103  1.3762 -0.8380 -0.3424
    4SAPS  H18Z  532   2.671   2.463   8.146  0.0070  0.7289  0.3477
    5SAPS     N  533   5.990   0.960  11.043  0.7266 -0.2954 -0.3363
    5SAPS   HN1  534   6.032   0.971  11.138 -1.8665 -0.3597  0.8502
    5SAPS   HN2  535   5.987   0.863  11.006  0.0750  0.2437 -1.7433
    5SAPS   HN3  536   6.049   1.012  10.975 -1.4510  0.6602 -1.5368
    5SAPS   C12  537   5.856   1.017  11.038  0.5210  0.0691 -0.9744
    5SAPS  H12A  538   5.820   0.994  10.938  0.8593  0.2983 -1.1489
    5SAPS   C13  539   5.748   0.957  11.144  0.5054  0.2831 -0.0983
    5SAPS  O13A  540   5.779   0.846  11.199  0.1440 -0.4256  0.5740
    5SAPS  O13B  541   5.627   0.992  11.116 -0.0295  0.5713  0.0087
    5SAPS   C11  542   5.843   1.171  11.060 -0.0114  0.1391 -0.1036
    5SAPS  H11A  543   5.876   1.199  11.163 -1.8082  0.6512  0.3436
    5SAPS  H11B  544   5.738   1.205  11.064 -0.3493 -0.7495 -1.3194
    5SAPS     P  545   5.886   1.391  10.909 -0.1349  0.3534  0.4496
    5SAPS   O13  546   5.843   1.474  11.022 -0.1732  0.0384  0.0065
    5SAPS   O14  547   6.002   1.433  10.825 -0.3692  0.5423 -0.2339
    5SAPS   O12  548   5.921   1.248  10.965 -1.0106  0.3905  0.6111
    5SAPS   O11  549   5.757   1.376  10.822  0.5949  0.0284 -0.8232
    5SAPS    C1  550   5.721   1.253  10.759 -0.7405 -0.2095  0.0969
    5SAPS    HA  551   5.768   1.163  10.803 -1.5520 -0.0210  1.3618
    5SAPS    HB  552   5.610   1.255  10.749 -0.6786  0.6520 -0.5344
    5SAPS    C2  553   5.773   1.253  10.608  0.7537  0.1609 -0.2436
    5SAPS    HS  554   5.879   1.219  10.612  0.5076 -0.7021 -0.8239
    5SAPS   O21  555   5.763   1.386  10.558  1.0514  0.2871  0.0194
    5SAPS   C21  556   5.859   1.418  10.467  0.9079  0.4209  0.0040
    5SAPS   O22  557   5.958   1.349  10.444  0.0794 -0.0753  0.1127
    5SAPS   C22  558   5.829   1.567  10.421 -0.5775 -0.4019 -0.2821
    5SAPS   H2R  559   5.804   1.624  10.513  3.0528 -1.9935  1.7912
    5SAPS   H2S  560   5.925   1.610  10.385 -0.3180 -0.2603  0.5551
    5SAPS    C3  561   5.689   1.165  10.516  0.4702  0.6114  0.6221
    5SAPS    HX  562   5.581   1.194  10.520  0.3803  0.2601  0.8448
    5SAPS    HY  563   5.687   1.061  10.556  1.1326  0.5883  0.5971
    5SAPS   O31  564   5.725   1.177  10.376 -0.0952  0.4143 -0.1441
    5SAPS   C31  565   5.827   1.091  10.333  0.4842  0.5590  0.1632
    5SAPS   O32  566   5.890   1.030  10.416 -0.0866  0.2484 -0.4608
    5SAPS   C32  567   5.838   1.082  10.181  0.3094 -0.1413  0.5460
    5SAPS   H2X  568   5.839   1.185  10.141 -0.6941 -0.1309  0.5162
    5SAPS   H2Y  569   5.753   1.025  10.136  0.8991 -0.3545 -0.2996
    5SAPS   C23  570   5.723   1.567  10.312  0.0339 -0.0584 -0.4111
    5SAPS   H3R  571   5.716   1.673  10.281 -0.8731  0.1319  0.4195
    5SAPS   H3S  572   5.622   1.536  10.346  0.0766 -0.6893 -0.8547
    5SAPS   C24  573   5.763   1.487  10.188 -0.4174  0.5521 -0.2599
    5SAPS   H4R  574   5.683   1.493  10.112  0.1758 -0.1262 -0.9507
    5SAPS   H4S  575   5.763   1.383  10.228 -1.3751  0.6479 -0.0045
    5SAPS   C25  576   5.900   1.527  10.134 -0.4946 -0.3008  0.5615
    5SAPS   H5R  577   5.992   1.493  10.183 -0.8519 -0.7466  0.9246
    5SAPS   C26  578   5.921   1.588  10.021  0.5078 -0.6143  0.1329
    5SAPS   H6R  579   6.027   1.616  10.010  0.1740 -0.0607 -1.7407
    5SAPS   C27  580   5.818   1.633   9.918  0.2223  0.0973 -0.3306
    5SAPS   H7R  581   5.767   1.729   9.941 -1.2424 -0.2209 -2.1483
    5SAPS   H7S  582   5.733   1.564   9.904  0.6022 -0.6055  0.7466
    5SAPS   C28  583   5.901   1.638   9.797  0.2774  0.3544 -0.1124
    5SAPS   H8R  584   5.947   1.738   9.793 -1.6641  1.2717 -0.1677
    5SAPS   C29  585   5.911   1.566   9.685 -0.1703  0.6239  0.2616
    5SAPS   H9R  586   5.985   1.597   9.610 -0.0380 -2.5136 -1.0047
    5SAPS  C210  587   5.832   1.437   9.655 -0.6346 -0.2089  0.2279
    5SAPS  H10R  588   5.788   1.456   9.555  2.4798 -0.8732 -1.3336
    5SAPS  H10S  589   5.747   1.432   9.726 -0.4036  2.8183  0.7619
    5SAPS  C211  590   5.934   1.324   9.652 -0.0815 -0.1661  0.4591
    5SAPS  H11R  591   5.980   1.292   9.746  1.2029  0.6907  0.1299
    5SAPS  C212  592   5.976   1.261   9.535  0.4918  0.1532 -0.5805
    5SAPS  H12R  593   6.043   1.174   9.547  1.0901  0.7780  0.6058
    5SAPS  C213  594   5.928   1.287   9.395  0.3698 -0.2105 -0.0432
    5SAPS  H13R  595   5.823   1.322   9.398  0.1885 -0.7812  0.5043
    5SAPS  H13S  596   5.933   1.190   9.343  0.0629  0.0329 -0.5279
    5SAPS  C214  597   5.987   1.403   9.315  0.2739  0.0471  0.3686
    5SAPS  H14R  598   5.961   1.495   9.368  1.0338  0.9013 -0.7261
    5SAPS  C215  599   6.056   1.415   9.202  0.0343  0.1600 -0.1160
    5SAPS  H15R  600   6.076   1.520   9.176 -1.5665  0.5073 -0.0166
    5SAPS  C216  601   6.104   1.308   9.109  0.0760  0.1056 -0.4573
    5SAPS  H16R  602   6.087   1.206   9.152 -0.5970  0.6162  0.5085
    5SAPS  H16S  603   6.215   1.311   9.108  0.0458  1.1841 -2.0915
    5SAPS  C217  604   6.054   1.327   8.961 -0.0063 -0.4858 -0.7157
    5SAPS  H17R  605   5.944   1.340   8.973  0.2678  0.5346  0.8398
    5SAPS  H17S  606   6.091   1.242   8.899 -0.6661 -0.4992 -1.0994
    5SAPS  C218  607   6.106   1.450   8.887 -0.3027  0.8359 -0.3593
    5SAPS  H18R  608   6.050   1.457   8.792 -2.8300 -0.1929  0.9914
    5SAPS  H18S  609   6.073   1.537   8.949  0.2792 -0.8829  2.4545
    5SAPS  C219  610   6.261   1.448   8.860  1.1762 -0.5885 -0.3851
    5SAPS  H19R  611   6.305   1.409   8.954  1.2508 -0.7059 -0.4682
    5SAPS  H19S  612   6.301   1.548   8.835  1.3659 -0.5732 -0.0197
    5SAPS  C220  613   6.295   1.351   8.748  0.7175  0.2210  0.5366
    5SAPS  H20R  614   6.402   1.339   8.721  0.9711  1.7130  0.8292
    5SAPS  H20S  615   6.251   1.388   8.653 -2.4321 -2.9151  0.7004
    5SAPS  H20T  616   6.269   1.245   8.767  0.5304 -0.1029 -1.4656
    5SAPS   C33  617   5.968   1.009  10.136 -0.2420 -0.1484  0.8358
    5SAPS   H3X  618   5.955   0.902  10.165 -0.9315 -0.8793 -2.0043
    5SAPS   H3Y  619   6.037   1.060  10.206 -1.2886 -0.5790  2.2154
    5SAPS   C34  620   6.008   1.031   9.988 -0.3142 -0.4861 -0.5947
    5SAPS   H4X  621   5.979   1.134   9.956  1.5058 -0.4122 -2.0935
    5SAPS   H4Y  622   5.955   0.957   9.924 -1.3986  0.2013 -0.5032
    5SAPS   C35  623   6.155   1.015   9.964 -0.1605 -0.3811 -0.3947
    5SAPS   H5X  624   6.196   0.915   9.987 -1.0076 -0.1931  2.1472
    5SAPS   H5Y  625   6.202   1.079  10.041 -0.0947  0.4337 -1.1025
    5SAPS   C36  626   6.210   1.064   9.824 -0.6320  0.1143  0.8070
    5SAPS   H6X  627   6.152   1.153   9.793  2.1269  0.7704 -2.7858
    5SAPS   H6Y  628   6.192   0.989   9.743 -0.7634  0.5370  0.4456
    5SAPS   C37  629   6.355   1.119   9.818 -0.2029 -0.3322  0.8320
    5SAPS   H7X  630   6.429   1.038   9.833  0.7100  0.7019  2.0695
    5SAPS   H7Y  631   6.370   1.188   9.904 -1.1831  0.7741  0.1300
    5SAPS   C38  632   6.399   1.188   9.690 -0.3147 -0.8913  0.4611
    5SAPS   H8X  633   6.510   1.201   9.693 -0.7330  2.9449  1.5846
    5SAPS   H8Y  634   6.343   1.282   9.676  2.1901  0.7852  1.2966
    5SAPS   C39  635   6.372   1.092   9.576  0.2314  0.7545 -0.2022
    5SAPS   H9X  636   6.264   1.071   9.561  0.3195  0.7613 -0.8835
    5SAPS   H9Y  637   6.408   0.994   9.614 -0.8623 -0.2374 -1.6468
    5SAPS  C310  638   6.421   1.139   9.435 -0.5104 -0.1416  0.4068
    5SAPS  H10X  639   6.531   1.130   9.451 -0.4343 -1.3813 -0.6971
    5SAPS  H10Y  640   6.385   1.240   9.407  1.9282  0.7262  0.2028
    5SAPS  C311  641   6.386   1.040   9.320  0.5105 -0.0986  0.0822
    5SAPS  H11X  642   6.276   1.028   9.320  0.3394  1.4277 -0.3410
    5SAPS  H11Y  643   6.412   0.935   9.347  2.4674  0.6510  1.2022
    5SAPS  C312  644   6.449   1.074   9.182 -0.2400 -0.0371 -0.2373
    5SAPS  H12X  645   6.558   1.095   9.189 -0.0220 -0.9327 -0.8917
    5SAPS  H12Y  646   6.399   1.171   9.159 -2.4723 -0.6861  1.7151
    5SAPS  C313  647   6.426   0.959   9.086  0.4456 -0.5217 -0.2350
    5SAPS  H13X  648   6.332   0.912   9.122  1.0222 -3.4670 -2.4246
    5SAPS  H13Y  649   6.498   0.874   9.094  2.2149  0.6516 -2.8641
    5SAPS  C314  650   6.423   1.003   8.942 -0.2093 -0.6138 -0.5229
    5SAPS  H14X  651   6.374   1.102   8.935  2.8844  0.9133 -1.5490
    5SAPS  H14Y  652   6.366   0.923   8.889  2.0052 -1.7891 -1.2322
    5SAPS  C315  653   6.557   1.029   8.878  0.2365 -0.2363  0.4079
    5SAPS  H15X  654   6.617   1.103   8.936 -1.1554 -0.0711  1.6517
    5SAPS  H15Y  655   6.521   1.079   8.786  0.7034 -0.2057  0.2421
    5SAPS  C316  656   6.635   0.896   8.848 -0.1449 -0.0975 -0.0842
    5SAPS  H16X  657   6.560   0.825   8.805 -0.7345  1.2632 -1.3462
    5SAPS  H16Y  658   6.680   0.867   8.945 -2.9358 -1.0068  0.9816
    5SAPS  C317  659   6.745   0.908   8.748 -1.0241 -0.8301  0.6548
    5SAPS  H17X  660   6.820   0.980   8.786 -2.6110  0.0414  2.1374
    5SAPS  H17Y  661   6.711   0.950   8.651  1.5277 -4.6235 -2.0534
    5SAPS  C318  662   6.802   0.768   8.720 -0.1050  0.9456 -0.1808
    5SAPS  H18X  663   6.714   0.703   8.701  1.8576 -1.9304  0.1331
    5SAPS  H18Y  664   6.862   0.730   8.805  1.3678 -0.1663 -1.6671
    5SAPS  H18Z  665   6.851   0.770   8.620 -3.5742  2.2788 -1.9327
    6SAPS     N  666   5.677   0.663  11.015 -0.6310  0.3667 -0.2564
    6SAPS   HN1  667   5.641   0.707  10.928  1.5596  2.3270 -0.2045
    6SAPS   HN2  668   5.694   0.734  11.090 -1.9426  0.3298  0.0979
    6SAPS   HN3  669   5.765   0.622  10.979 -0.5155  0.8108 -0.4802
    6SAPS   C12  670   5.575   0.561  11.054 -1.7234  0.1568 -0.1197
    6SAPS  H12A  671   5.610   0.481  11.118 -1.3000  0.7828  0.4434
    6SAPS   C13  672   5.459   0.606  11.149  0.1474 -0.1583  0.4566
    6SAPS  O13A  673   5.448   0.728  11.175  0.0336 -0.9608  0.4614
    6SAPS  O13B  674   5.379   0.516  11.180  0.4625 -0.8141 -0.2142
    6SAPS   C11  675   5.508   0.503  10.931  0.3190  0.0423 -0.3420
    6SAPS  H11A  676   5.431   0.435  10.973 -1.0309  0.5768 -1.9152
    6SAPS  H11B  677   5.575   0.447  10.862 -1.2468 -0.0868 -1.7961
    6SAPS     P  678   5.309   0.599  10.785  0.4627  0.3437  0.2203
    6SAPS   O13  679   5.209   0.676  10.870  0.1965  0.3062 -0.1703
    6SAPS   O14  680   5.326   0.644  10.642  0.1623  0.1392  0.1965
    6SAPS   O12  681   5.450   0.609  10.854 -0.3247  0.2040 -0.4258
    6SAPS   O11  682   5.273   0.445  10.783  0.4671 -0.1506 -0.9216
    6SAPS    C1  683   5.319   0.350  10.691 -0.1201  0.3930  0.5768
    6SAPS    HA  684   5.412   0.381  10.640 -0.2441  1.2116  0.8416
    6SAPS    HB  685   5.333   0.255  10.747 -1.6818  0.1233  0.5417
    6SAPS    C2  686   5.217   0.320  10.572 -0.3429  0.0482  0.6185
    6SAPS    HS  687   5.264   0.242  10.509  1.4173  1.3996  0.2237
    6SAPS   O21  688   5.195   0.439  10.493 -0.2514  0.2891  0.3569
    6SAPS   C21  689   5.307   0.466  10.420 -0.1093  0.4986 -0.6465
    6SAPS   O22  690   5.404   0.393  10.414 -0.3533 -0.2532  0.1923
    6SAPS   C22  691   5.284   0.586  10.333  0.5233  0.2143 -0.3841
    6SAPS   H2R  692   5.177   0.590  10.305  0.4547  0.7430 -0.0440
    6SAPS   H2S  693   5.282   0.676  10.398 -2.9063 -0.3870  0.4165
    6SAPS    C3  694   5.086   0.264  10.631 -0.2953 -0.3392 -0.2913
    6SAPS    HX  695   5.045   0.348  10.691 -0.0383 -0.1610 -0.3681
    6SAPS    HY  696   5.109   0.176  10.695  0.4620 -0.2563 -0.4557
    6SAPS   O31  697   4.989   0.240  10.527  0.7227  0.5595  0.4540
    6SAPS   C31  698   4.891   0.158  10.566 -0.0407  0.8633  0.2673
    6SAPS   O32  699   4.878   0.112  10.680  0.4308 -0.0218  0.0551
    6SAPS   C32  700   4.791   0.145  10.452  0.5127 -0.0528  0.5773
    6SAPS   H2X  701   4.854   0.133  10.361 -2.0163 -0.1287 -1.2171
    6SAPS   H2Y  702   4.741   0.243  10.441  0.2889 -0.4191 -2.2054
    6SAPS   C23  703   5.401   0.598  10.230 -0.8324 -0.3602 -0.2572
    6SAPS   H3R  704   5.490   0.541  10.264 -3.7209 -3.6908  1.9779
    6SAPS   H3S  705   5.433   0.705  10.220  1.0620 -0.9544 -0.7642
    6SAPS   C24  706   5.372   0.533  10.091 -0.2303  0.2212 -0.1847
    6SAPS   H4R  707   5.346   0.425  10.097 -1.3731  0.4426 -0.8856
    6SAPS   H4S  708   5.467   0.547  10.035 -0.2351  1.1553  0.0444
    6SAPS   C25  709   5.256   0.582  10.020  0.5270  0.2495 -0.9387
    6SAPS   H5R  710   5.165   0.598  10.079 -1.0474  2.3396 -3.7905
    6SAPS   C26  711   5.239   0.601   9.887  0.6249 -0.2939 -0.4738
    6SAPS   H6R  712   5.136   0.619   9.854  0.6118  0.8131  0.1613
    6SAPS   C27  713   5.353   0.576   9.793  0.2440 -0.4182 -0.4674
    6SAPS   H7R  714   5.308   0.505   9.720  0.1516 -1.3686  0.5068
    6SAPS   H7S  715   5.439   0.520   9.836  0.1745  0.8834  1.4195
    6SAPS   C28  716   5.413   0.696   9.725 -0.0072 -0.1367 -0.8790
    6SAPS   H8R  717   5.453   0.775   9.790  2.5187 -0.8204 -1.5194
    6SAPS   C29  718   5.442   0.719   9.593  0.2644 -0.4285 -0.1349
    6SAPS   H9R  719   5.481   0.816   9.562 -2.2195  0.5240 -0.4172
    6SAPS  C210  720   5.421   0.622   9.478  1.0637  0.2002 -0.0012
    6SAPS  H10R  721   5.449   0.520   9.512  0.6976 -0.0729 -0.5170
    6SAPS  H10S  722   5.478   0.645   9.385  1.4405 -2.1849 -0.3756
    6SAPS  C211  723   5.274   0.623   9.443 -0.2036 -0.6241  0.8745
    6SAPS  H11R  724   5.212   0.612   9.534 -1.0020  0.0617  0.4189
    6SAPS  C212  725   5.221   0.626   9.319  0.4415 -0.1301 -0.4056
    6SAPS  H12R  726   5.111   0.628   9.317  0.3725 -1.4819  1.1973
    6SAPS  C213  727   5.303   0.636   9.188  0.2196  0.0663 -0.1039
    6SAPS  H13R  728   5.385   0.561   9.188  2.0546  2.0267 -1.1324
    6SAPS  H13S  729   5.367   0.727   9.185  1.1882 -0.5364  1.8571
    6SAPS  C214  730   5.208   0.611   9.075  0.9505 -0.9043  0.7997
    6SAPS  H14R  731   5.106   0.584   9.108  0.6613  0.3770  0.9849
    6SAPS  C215  732   5.235   0.636   8.947 -0.9499  0.3225 -0.4702
    6SAPS  H15R  733   5.160   0.609   8.871  1.1104  0.6099 -2.6672
    6SAPS  C216  734   5.371   0.688   8.892  0.2501  0.3458  0.0943
    6SAPS  H16R  735   5.446   0.609   8.913  2.4533  1.7053 -2.3138
    6SAPS  H16S  736   5.399   0.780   8.949 -0.5029  0.7586 -0.1894
    6SAPS  C217  737   5.368   0.720   8.746  0.0417 -0.4037 -0.4578
    6SAPS  H17R  738   5.296   0.803   8.725  2.0148  1.1833 -1.0937
    6SAPS  H17S  739   5.332   0.631   8.692  2.2607 -1.2187 -0.6392
    6SAPS  C218  740   5.504   0.760   8.700  0.3606  0.1897 -0.4990
    6SAPS  H18R  741   5.528   0.848   8.763  0.2625  0.5421 -0.9614
    6SAPS  H18S  742   5.483   0.792   8.596  0.6937  1.0158 -0.3185
    6SAPS  C219  743   5.596   0.643   8.685 -0.9270  0.1132 -0.6272
    6SAPS  H19R  744   5.557   0.580   8.603  0.0536 -0.8223 -0.3819
    6SAPS  H19S  745   5.607   0.579   8.775  0.9757 -1.9325 -2.2566
    6SAPS  C220  746   5.743   0.673   8.656 -0.6163  0.8615  0.1463
    6SAPS  H20R  747   5.746   0.748   8.574  1.1724  1.7925  1.0396
    6SAPS  H20S  748   5.793   0.582   8.619 -0.1938  1.3622 -0.5213
    6SAPS  H20T  749   5.788   0.708   8.752  0.2047  2.7578 -0.8866
    6SAPS   C33  750   4.690   0.022  10.475 -0.5512  0.1366  0.3217
    6SAPS   H3X  751   4.597   0.044  10.418  0.2644  1.6721 -0.4620
    6SAPS   H3Y  752   4.665   0.025  10.583  1.3456  1.8282  0.7542
    6SAPS   C34  753   4.756  -0.114  10.429  0.9026  0.0761 -0.3898
    6SAPS   H4X  754   4.691  -0.195  10.467  1.2420 -0.2978 -0.6030
    6SAPS   H4Y  755   4.855  -0.130  10.476 -0.0108 -0.0269  1.5385
    6SAPS   C35  756   4.786  -0.116  10.270 -0.4645 -0.0317 -0.6437
    6SAPS   H5X  757   4.845  -0.029  10.235 -0.4832  1.2326  2.3287
    6SAPS   H5Y  758   4.688  -0.091  10.224  0.3017  2.0286 -1.2199
    6SAPS   C36  759   4.849  -0.247  10.220  0.1635 -0.4927  0.4987
    6SAPS   H6X  760   4.815  -0.339  10.272  1.5675 -0.8823  0.7498
    6SAPS   H6Y  761   4.958  -0.236  10.238 -0.1947  0.7674  1.9548
    6SAPS   C37  762   4.825  -0.274  10.069  0.0784  0.0130  1.2438
    6SAPS   H7X  763   4.714  -0.280  10.059  0.0530  0.8070  0.9675
    6SAPS   H7Y  764   4.866  -0.366  10.024  2.0485  0.8171  1.3667
    6SAPS   C38  765   4.854  -0.161   9.963 -0.1194 -0.3803 -0.0102
    6SAPS   H8X  766   4.963  -0.152   9.948 -0.3024  0.1257 -1.0773
    6SAPS   H8Y  767   4.803  -0.066   9.994  0.2042 -0.1135 -0.2936
    6SAPS   C39  768   4.813  -0.215   9.826  0.0016  0.3520 -0.4751
    6SAPS   H9X  769   4.707  -0.247   9.812 -0.0227  0.0067  0.4518
    6SAPS   H9Y  770   4.872  -0.305   9.796 -0.3403  0.5194 -1.6621
    6SAPS  C310  771   4.838  -0.109   9.725  0.2816 -1.0905 -0.3766
    6SAPS  H10X  772   4.949  -0.107   9.720  0.2688  3.3562 -0.8530
    6SAPS  H10Y  773   4.792  -0.010   9.748 -1.6191 -1.7573 -1.2377
    6SAPS  C311  774   4.776  -0.122   9.584  0.0516  0.8195 -0.1945
    6SAPS  H11X  775   4.674  -0.079   9.585 -0.5324 -0.5348  0.4305
    6SAPS  H11Y  776   4.758  -0.231   9.572 -1.7647  1.2380 -1.5072
    6SAPS  C312  777   4.871  -0.082   9.469 -0.2629 -0.5243 -0.2924
    6SAPS  H12X  778   4.952  -0.158   9.474 -1.7625 -2.2332 -1.5538
    6SAPS  H12Y  779   4.903   0.024   9.476 -0.4058 -0.4736 -0.4089
    6SAPS  C313  780   4.811  -0.101   9.324  0.7372 -0.1710 -0.6893
    6SAPS  H13X  781   4.734  -0.023   9.308  2.7262  2.3004  1.3674
    6SAPS  H13Y  782   4.763  -0.201   9.328  0.7838 -0.1825 -0.3488
    6SAPS  C314  783   4.909  -0.080   9.217 -0.6882  0.1129  0.4663
    6SAPS  H14X  784   4.998  -0.144   9.236  0.9314  1.7691 -1.3461
    6SAPS  H14Y  785   4.946   0.024   9.213  3.3582 -1.2653 -0.9699
    6SAPS  C315  786   4.849  -0.106   9.076  0.7786  0.0995 -0.3072
    6SAPS  H15X  787   4.764  -0.034   9.071 -0.8520 -1.6922  0.6937
    6SAPS  H15Y  788   4.803  -0.207   9.084 -1.0527  0.7753 -1.8690
    6SAPS  C316  789   4.955  -0.094   8.972 -0.0384 -0.1342 -0.0143
    6SAPS  H16X  790   5.036  -0.169   8.984  1.1056  0.8820 -1.1874
    6SAPS  H16Y  791   5.000   0.007   8.981  0.8310 -0.0571 -4.1180
    6SAPS  C317  792   4.919  -0.120   8.826 -0.2022  0.0128 -0.1007
    6SAPS  H17X  793   5.001  -0.086   8.759 -1.6959 -0.0880 -2.0124
    6SAPS  H17Y  794   4.825  -0.066   8.802 -0.2572 -0.5552 -1.2072
    6SAPS  C318  795   4.888  -0.268   8.794 -0.0962  0.4640 -0.1656
    6SAPS  H18X  796   4.864  -0.274   8.686 -0.0095  1.8414 -0.2803
    6SAPS  H18Y  797   4.791  -0.289   8.844  0.0961  0.1067  0.0539
    6SAPS  H18Z  798   4.966  -0.340   8.826  0.7477  1.9387  1.2395
    7SAPS     N  799   0.444   1.122  10.908 -0.3114 -0.7422  0.0967
    7SAPS   HN1  800   0.498   1.038  10.935 -2.6001 -2.2032  0.1920
    7SAPS   HN2  801   0.364   1.091  10.849  1.3994 -0.4663 -2.4726
    7SAPS   HN3  802   0.505   1.173  10.840  0.5775  2.1001  2.8490
    7SAPS   C12  803   0.382   1.224  10.999 -0.0755 -0.5128 -0.5294
    7SAPS  H12A  804   0.300   1.174  11.049 -1.8518  1.7494 -1.1185
    7SAPS   C13  805   0.485   1.284  11.103  0.5803 -0.4404 -0.4013
    7SAPS  O13A  806   0.605   1.265  11.082  0.1107 -0.0547  0.2465
    7SAPS  O13B  807   0.446   1.355  11.199  0.6568  0.6689 -0.2027
    7SAPS   C11  808   0.312   1.339  10.916  0.3197  0.7457 -1.0053
    7SAPS  H11A  809   0.390   1.400  10.866  0.2023  1.1267 -0.7232
    7SAPS  H11B  810   0.261   1.400  10.994  1.5091  1.5195 -0.8264
    7SAPS     P  811   0.082   1.368  10.796  0.1375 -0.0574 -0.1244
    7SAPS   O13  812  -0.027   1.304  10.873  0.0098 -0.2971 -0.0340
    7SAPS   O14  813   0.126   1.505  10.826  0.3823 -0.0967  0.2559
    7SAPS   O12  814   0.218   1.283  10.815 -0.5420 -0.3029  0.3607
    7SAPS   O11  815   0.046   1.356  10.649 -0.7907 -0.0219  0.0818
    7SAPS    C1  816   0.121   1.311  10.541  0.3531 -0.3939  0.5988
    7SAPS    HA  817   0.177   1.218  10.562  1.5967  0.2580  0.2465
    7SAPS    HB  818   0.047   1.289  10.461  0.7319  1.1516 -0.2134
    7SAPS    C2  819   0.228   1.411  10.491  0.4270 -0.3566  0.3052
    7SAPS    HS  820   0.268   1.477  10.571 -1.2192  0.0667  0.8030
    7SAPS   O21  821   0.157   1.495  10.388 -0.3181 -0.2665  0.2337
    7SAPS   C21  822   0.217   1.614  10.368  0.2375  0.6134 -0.0678
    7SAPS   O22  823   0.322   1.644  10.425 -0.0866  0.3428 -0.5845
    7SAPS   C22  824   0.163   1.673  10.243 -1.0035 -0.0610 -0.2143
    7SAPS   H2R  825   0.206   1.774  10.228  1.7054 -0.9495  1.3517
    7SAPS   H2S  826   0.180   1.607  10.155 -1.5120 -2.4979  1.4516
    7SAPS    C3  827   0.338   1.323  10.417 -0.6111  0.0230  0.0556
    7SAPS    HX  828   0.285   1.241  10.362 -2.1788  0.1822  1.2923
    7SAPS    HY  829   0.399   1.261  10.486 -3.1032 -2.8130 -0.1694
    7SAPS   O31  830   0.420   1.400  10.330 -0.4234 -0.0287  0.0045
    7SAPS   C31  831   0.552   1.420  10.366  0.0078 -0.2101 -0.1361
    7SAPS   O32  832   0.604   1.379  10.467  0.3793 -0.3582  0.0335
    7SAPS   C32  833   0.598   1.521  10.262  0.7209 -0.5159 -0.1311
    7SAPS   H2X  834   0.564   1.623  10.290 -0.3669 -0.1640 -2.6145
    7SAPS   H2Y  835   0.545   1.498  10.167 -2.7514  1.0528  1.3150
    7SAPS   C23  836   0.012   1.681  10.270  0.6305  0.3670 -0.9073
    7SAPS   H3R  837   0.002   1.713  10.376  0.4635 -3.8209  0.4254
    7SAPS   H3S  838  -0.044   1.586  10.273 -1.1966  1.4638  0.4822
    7SAPS   C24  839  -0.059   1.782  10.166 -0.0970  0.9374 -0.1986
    7SAPS   H4R  840  -0.168   1.761  10.181  0.3026 -2.0341 -1.0808
    7SAPS   H4S  841  -0.032   1.757  10.062 -1.4139  1.9325 -0.8000
    7SAPS   C25  842  -0.031   1.929  10.197  0.5673 -0.3640  0.4577
    7SAPS   H5R  843  -0.053   1.963  10.299 -0.6050  1.9842 -0.5270
    7SAPS   C26  844   0.013   2.026  10.113  0.1190  0.0950 -0.5397
    7SAPS   H6R  845   0.011   2.126  10.160  0.3029 -0.2935  0.3109
    7SAPS   C27  846   0.042   2.015   9.966 -0.2574  0.2247  1.0218
    7SAPS   H7R  847   0.094   1.919   9.944 -2.4992 -0.3081 -2.3835
    7SAPS   H7S  848   0.116   2.088   9.928  1.3973 -1.3023  1.2612
    7SAPS   C28  849  -0.084   2.016   9.875  0.2243 -0.2154  0.0364
    7SAPS   H8R  850  -0.143   2.107   9.889  1.4220  0.5457  0.1863
    7SAPS   C29  851  -0.114   1.921   9.783  0.1188  0.3396 -0.2964
    7SAPS   H9R  852  -0.205   1.938   9.723  0.9666 -0.3882 -1.8307
    7SAPS  C210  853  -0.040   1.796   9.750 -0.4446 -0.2589 -0.1305
    7SAPS  H10R  854  -0.031   1.744   9.848 -3.0883  1.9868  1.3691
    7SAPS  H10S  855   0.058   1.821   9.705  0.0444 -0.4716  0.7983
    7SAPS  C211  856  -0.108   1.713   9.647  0.5220 -0.1477  0.4866
    7SAPS  H11R  857  -0.156   1.620   9.681  0.7302 -0.0110  1.1512
    7SAPS  C212  858  -0.134   1.739   9.515  0.2272  0.1777  0.0827
    7SAPS  H12R  859  -0.180   1.662   9.452 -0.5406  0.1316  0.6884
    7SAPS  C213  860  -0.083   1.863   9.453  0.3377 -0.1104  0.9213
    7SAPS  H13R  861   0.026   1.877   9.466  0.2713  1.0224  0.3480
    7SAPS  H13S  862  -0.122   1.955   9.502  0.7934  2.0304 -2.4970
    7SAPS  C214  863  -0.111   1.870   9.300 -0.1551 -0.0535 -0.2025
    7SAPS  H14R  864  -0.197   1.932   9.270 -1.4203 -2.2066 -1.1157
    7SAPS  C215  865  -0.037   1.812   9.208 -0.5094  0.4930  0.3690
    7SAPS  H15R  866  -0.059   1.817   9.100  0.4306 -0.7321  0.1240
    7SAPS  C216  867   0.089   1.731   9.227 -0.7499 -0.4806 -0.0449
    7SAPS  H16R  868   0.108   1.736   9.336  0.4746  1.2801 -0.3100
    7SAPS  H16S  869   0.180   1.783   9.191  1.6506 -2.4782  2.9063
    7SAPS  C217  870   0.086   1.578   9.185  0.9626 -0.4634 -0.3049
    7SAPS  H17R  871   0.188   1.534   9.179  0.9889 -0.6598  1.3164
    7SAPS  H17S  872   0.058   1.580   9.078  1.3283 -2.5767 -0.4719
    7SAPS  C218  873  -0.011   1.488   9.260  0.1076  0.0303 -0.0576
    7SAPS  H18R  874  -0.050   1.409   9.193  2.1478 -0.2464 -0.9716
    7SAPS  H18S  875  -0.107   1.534   9.292  0.7052  1.3182 -0.0988
    7SAPS  C219  876   0.054   1.437   9.385 -0.1025 -0.0091 -0.5140
    7SAPS  H19R  877   0.089   1.524   9.444 -0.1549 -0.5449  0.3092
    7SAPS  H19S  878   0.137   1.370   9.357  1.6435  1.6151  0.6789
    7SAPS  C220  879  -0.050   1.354   9.468  0.3046 -0.2636 -0.3969
    7SAPS  H20R  880   0.005   1.324   9.560  2.0957  0.6042 -1.1725
    7SAPS  H20S  881  -0.076   1.263   9.410  0.3752  0.3898 -1.4617
    7SAPS  H20T  882  -0.136   1.411   9.509 -0.7008 -2.0252  0.0057
    7SAPS   C33  883   0.747   1.512  10.238 -0.0882  0.8570 -0.0819
    7SAPS   H3X  884   0.795   1.412  10.240  1.6348  1.5805 -2.3377
    7SAPS   H3Y  885   0.794   1.564  10.325  0.4018 -1.2911  0.9793
    7SAPS   C34  886   0.783   1.586  10.111 -0.0370  0.3766  0.0829
    7SAPS   H4X  887   0.892   1.602  10.123  0.4891 -1.9538 -1.2923
    7SAPS   H4Y  888   0.743   1.690  10.108  3.7733  1.9584  1.1634
    7SAPS   C35  889   0.762   1.501   9.980  0.1669  0.5558 -0.2042
    7SAPS   H5X  890   0.668   1.529   9.929  0.0614  1.0095  0.2412
    7SAPS   H5Y  891   0.734   1.397  10.010 -1.8142  1.3256  0.6882
    7SAPS   C36  892   0.882   1.500   9.891 -0.2332  0.6911  0.5060
    7SAPS   H6X  893   0.974   1.448   9.927 -1.1604 -2.4720 -1.5523
    7SAPS   H6Y  894   0.916   1.603   9.863 -0.3809  0.4594 -0.5207
    7SAPS   C37  895   0.840   1.445   9.758 -0.1572 -0.1280 -0.1471
    7SAPS   H7X  896   0.750   1.497   9.719 -0.4217 -0.0313  0.5791
    7SAPS   H7Y  897   0.801   1.343   9.776 -1.5782  0.6822  1.4274
    7SAPS   C38  898   0.959   1.460   9.656  0.3721 -0.2041 -0.2470
    7SAPS   H8X  899   1.051   1.425   9.707  1.2829 -0.0438 -1.7369
    7SAPS   H8Y  900   0.963   1.568   9.630 -1.1843 -0.6039 -2.3620
    7SAPS   C39  901   0.935   1.373   9.529 -0.6517  0.0322  0.6257
    7SAPS   H9X  902   0.952   1.267   9.558 -2.8897 -0.4680  0.2394
    7SAPS   H9Y  903   1.010   1.378   9.447 -1.2000 -0.9956  0.0513
    7SAPS  C310  904   0.798   1.389   9.472  0.3786  0.6622 -0.4553
    7SAPS  H10X  905   0.766   1.495   9.469  0.2448  0.6814  1.2607
    7SAPS  H10Y  906   0.716   1.339   9.527  2.0522 -0.8945  0.6574
    7SAPS  C311  907   0.778   1.324   9.337 -0.1742  0.0614  0.3978
    7SAPS  H11X  908   0.847   1.383   9.272 -1.7345  2.0157  0.4726
    7SAPS  H11Y  909   0.672   1.329   9.306  0.5080 -1.1336 -2.2573
    7SAPS  C312  910   0.820   1.176   9.326 -0.5998 -0.1454 -0.0983
    7SAPS  H12X  911   0.747   1.113   9.380 -1.1880 -0.1147 -0.8577
    7SAPS  H12Y  912   0.916   1.148   9.375  0.9626  2.8478 -1.2810
    7SAPS  C313  913   0.842   1.120   9.184  0.2312 -0.1585 -0.3496
    7SAPS  H13X  914   0.752   1.132   9.120  0.7873  0.7493 -0.9659
    7SAPS  H13Y  915   0.857   1.010   9.196  1.5061  0.0767  0.3473
    7SAPS  C314  916   0.962   1.180   9.102  0.3534 -0.5081  0.2500
    7SAPS  H14X  917   1.054   1.149   9.155  0.9091  0.9066  0.1257
    7SAPS  H14Y  918   0.945   1.289   9.098  1.0229 -0.3766  0.8630
    7SAPS  C315  919   0.973   1.127   8.959  0.0069  0.1552  0.2553
    7SAPS  H15X  920   0.985   1.018   8.978 -0.3303  0.2184  0.8511
    7SAPS  H15Y  921   1.067   1.169   8.916  2.4505 -2.9731  2.2572
    7SAPS  C316  922   0.852   1.171   8.871  0.1975 -0.2749 -0.3362
    7SAPS  H16X  923   0.811   1.268   8.906 -0.1253 -0.7685  0.6898
    7SAPS  H16Y  924   0.762   1.107   8.879 -0.5195  0.7932  0.1570
    7SAPS  C317  925   0.903   1.185   8.733  0.0197 -0.1793  0.3902
    7SAPS  H17X  926   0.995   1.247   8.734 -0.6282  0.7949  0.8654
    7SAPS  H17Y  927   0.823   1.232   8.671 -2.0007 -2.2445  1.3237
    7SAPS  C318  928   0.935   1.053   8.654  0.1179 -0.3940  0.2777
    7SAPS  H18X  929   0.893   1.063   8.552  0.1976 -2.6618 -0.0103
    7SAPS  H18Y  930   0.882   0.975   8.713 -0.6656  0.0531  0.1727
    7SAPS  H18Z  931   1.044   1.030   8.653 -0.3940 -2.9810  0.6638
    8SAPS     N  932   4.224   3.205  10.828 -0.1508 -0.0002  0.1488
    8SAPS   HN1  933   4.280   3.284  10.790  0.8033 -0.3535  0.8080
    8SAPS   HN2  934   4.235   3.123  10.764 -2.7952  0.7192 -1.2936
    8SAPS   HN3  935   4.123   3.229  10.817 -1.0264 -2.3047  2.7379
    8SAPS   C12  936   4.276   3.177  10.964  0.7095 -0.6091  0.6809
    8SAPS  H12A  937   4.260   3.260  11.031 -0.4201 -1.9852  2.1372
    8SAPS   C13  938   4.214   3.055  11.050  0.6507  0.1823  0.9973
    8SAPS  O13A  939   4.137   2.967  11.001 -0.2778 -0.4774  0.2714
    8SAPS  O13B  940   4.246   3.047  11.167  0.3807 -0.1389 -0.7209
    8SAPS   C11  941   4.428   3.159  10.966 -0.4469 -0.1357 -0.7161
    8SAPS  H11A  942   4.468   3.142  11.068  1.4048  2.3029 -0.9739
    8SAPS  H11B  943   4.467   3.260  10.940  2.2523 -0.1457  2.9567
    8SAPS     P  944   4.616   2.991  10.880  0.2046  0.3449 -0.2463
    8SAPS   O13  945   4.687   3.034  11.005  0.1113  0.8907 -0.1540
    8SAPS   O14  946   4.582   2.845  10.865 -0.3517 -0.0274 -0.2859
    8SAPS   O12  947   4.476   3.065  10.872 -0.1964 -0.0034 -0.2522
    8SAPS   O11  948   4.706   3.042  10.761 -0.3486 -0.2733  0.3351
    8SAPS    C1  949   4.698   3.178  10.714 -0.1234 -0.0274 -0.3063
    8SAPS    HA  950   4.599   3.226  10.729  0.8899  2.5953 -1.6889
    8SAPS    HB  951   4.776   3.237  10.766  0.9860 -0.9269 -0.9261
    8SAPS    C2  952   4.734   3.188  10.560  0.0533 -0.5656  0.2345
    8SAPS    HS  953   4.643   3.196  10.496  0.6672 -0.1554 -0.5889
    8SAPS   O21  954   4.818   3.077  10.513  0.5876 -0.4537  0.5293
    8SAPS   C21  955   4.746   2.975  10.468 -0.2149 -0.2278 -0.0019
    8SAPS   O22  956   4.625   2.960  10.471  0.0730 -0.6874 -0.2221
    8SAPS   C22  957   4.837   2.866  10.397 -0.1257 -0.6509 -0.1335
    8SAPS   H2R  958   4.920   2.915  10.343 -0.1320 -1.9435 -1.3402
    8SAPS   H2S  959   4.879   2.814  10.486  2.2615 -0.4323 -1.1144
    8SAPS    C3  960   4.799   3.319  10.527  0.3166  0.1678 -0.1385
    8SAPS    HX  961   4.901   3.329  10.571  0.2559 -1.7285  0.5079
    8SAPS    HY  962   4.731   3.396  10.568  0.3480 -0.1657  0.5462
    8SAPS   O31  963   4.800   3.344  10.384 -0.4163 -0.7396 -0.2401
    8SAPS   C31  964   4.891   3.432  10.337 -0.3861 -0.2260  0.5048
    8SAPS   O32  965   4.978   3.489  10.398 -0.0991  0.1074 -0.4797
    8SAPS   C32  966   4.868   3.451  10.192 -0.9060 -0.8714 -0.1579
    8SAPS   H2X  967   4.767   3.494  10.171  0.0760  1.3967 -0.3675
    8SAPS   H2Y  968   4.874   3.354  10.138  0.6671 -2.1060  2.2030
    8SAPS   C23  969   4.766   2.766  10.300  0.8649 -0.9307  0.0974
    8SAPS   H3R  970   4.756   2.814  10.200  1.0880 -2.5579 -0.7148
    8SAPS   H3S  971   4.662   2.748  10.335  1.1271 -0.8778  0.9098
    8SAPS   C24  972   4.842   2.635  10.297 -0.2432  0.2065  0.6450
    8SAPS   H4R  973   4.795   2.561  10.228 -0.7855  0.7248  0.4551
    8SAPS   H4S  974   4.838   2.589  10.398  1.7085  0.5206  0.8829
    8SAPS   C25  975   4.977   2.663  10.256  0.1367 -0.7603 -0.5218
    8SAPS   H5R  976   5.040   2.686  10.344 -2.2272 -0.0406  1.0140
    8SAPS   C26  977   5.015   2.678  10.127  0.0769 -0.4162 -0.5432
    8SAPS   H6R  978   5.124   2.683  10.114 -0.1916 -0.5543 -3.0494
    8SAPS   C27  979   4.943   2.673   9.995 -0.4118 -0.2641 -0.5797
    8SAPS   H7R  980   4.839   2.632  10.001 -0.2554 -0.2672  3.0941
    8SAPS   H7S  981   5.005   2.599   9.940 -0.8380 -1.5473  0.6331
    8SAPS   C28  982   4.945   2.813   9.939  0.3641 -0.8528  0.2969
    8SAPS   H8R  983   4.910   2.878  10.021  1.0851  1.4222 -1.1550
    8SAPS   C29  984   4.970   2.853   9.812  0.5078 -0.7455 -0.0535
    8SAPS   H9R  985   4.980   2.962   9.800  0.5087 -1.1781 -5.0244
    8SAPS  C210  986   4.997   2.765   9.695  0.2032  0.4932 -0.3518
    8SAPS  H10R  987   4.933   2.675   9.702 -0.2871  0.8096 -0.7445
    8SAPS  H10S  988   5.103   2.742   9.720 -0.2379 -0.6513  0.5014
    8SAPS  C211  989   4.974   2.830   9.557  0.7777 -0.3102 -0.1414
    8SAPS  H11R  990   4.899   2.910   9.554 -0.9581 -1.9470 -3.5572
    8SAPS  C212  991   5.034   2.796   9.442 -0.4289 -0.7534 -0.6363
    8SAPS  H12R  992   4.997   2.844   9.350  0.2095 -0.1704 -0.5987
    8SAPS  C213  993   5.134   2.686   9.418 -0.0080  1.3642  0.1983
    8SAPS  H13R  994   5.084   2.600   9.369 -0.6675  0.8205  1.7832
    8SAPS  H13S  995   5.178   2.653   9.514  0.7205 -0.3719 -0.7176
    8SAPS  C214  996   5.241   2.745   9.334 -0.5762  0.7640 -0.7967
    8SAPS  H14R  997   5.332   2.777   9.387 -0.7825  0.6865 -0.3914
    8SAPS  C215  998   5.236   2.756   9.207 -0.2329  0.0279  0.5675
    8SAPS  H15R  999   5.329   2.787   9.156 -1.4624  0.2845 -1.5891
    8SAPS  C216 1000   5.128   2.708   9.108 -0.1540  0.6324 -0.2693
    8SAPS  H16R 1001   5.029   2.716   9.157  0.0370 -0.2183  0.2643
    8SAPS  H16S 1002   5.150   2.601   9.088  1.2665  0.7071  0.7731
    8SAPS  C217 1003   5.128   2.785   8.974 -1.2948 -1.0226 -0.9696
    8SAPS  H17R 1004   5.109   2.894   8.985 -3.6003 -1.3853 -1.0560
    8SAPS  H17S 1005   5.048   2.737   8.913 -0.7845 -1.1650 -1.5239
    8SAPS  C218 1006   5.259   2.761   8.897 -0.0072 -0.5011  0.4018
    8SAPS  H18R 1007   5.296   2.657   8.883  2.5114  0.4682 -0.5699
    8SAPS  H18S 1008   5.337   2.816   8.954 -0.3906  0.1340  0.3120
    8SAPS  C219 1009   5.262   2.822   8.759 -0.3497  0.0515 -0.1344
    8SAPS  H19R 1010   5.176   2.786   8.698 -0.5214 -0.5569  0.4685
    8SAPS  H19S 1011   5.346   2.766   8.712 -0.3695 -0.1183  0.0336
    8SAPS  C220 1012   5.274   2.971   8.743  0.4927 -0.8061  0.6082
    8SAPS  H20R 1013   5.241   3.005   8.642 -2.1546  1.1331  2.0614
    8SAPS  H20S 1014   5.378   3.005   8.761  0.2808 -0.4427  1.1686
    8SAPS  H20T 1015   5.208   3.023   8.815  0.1425 -1.8955  1.0878
    8SAPS   C33 1016   4.970   3.546  10.123 -0.4203  0.0062 -0.2785
    8SAPS   H3X 1017   5.071   3.499  10.120 -0.7905 -0.7699 -0.6885
    8SAPS   H3Y 1018   4.969   3.640  10.181 -2.9231  0.0243 -0.2896
    8SAPS   C34 1019   4.923   3.572   9.976  0.4536 -0.2501  0.6098
    8SAPS   H4X 1020   4.831   3.635   9.982  0.1801 -0.7507  1.7999
    8SAPS   H4Y 1021   4.896   3.473   9.934 -0.8265  0.5972 -0.6469
    8SAPS   C35 1022   5.017   3.622   9.866  0.0007 -0.3504  0.2029
    8SAPS   H5X 1023   5.106   3.556   9.854 -1.8150 -3.0508  1.0154
    8SAPS   H5Y 1024   5.059   3.722   9.887  1.1639 -0.9194  0.6305
    8SAPS   C36 1025   4.955   3.635   9.723 -0.1046  0.4523 -0.1154
    8SAPS   H6X 1026   4.853   3.674   9.745  0.4563  1.0551  1.5469
    8SAPS   H6Y 1027   4.956   3.527   9.698  1.8213  0.1748  1.1134
    8SAPS   C37 1028   5.027   3.719   9.634  0.1318 -0.1688  0.6223
    8SAPS   H7X 1029   5.123   3.675   9.596  0.4348 -0.0921  1.2990
    8SAPS   H7Y 1030   5.032   3.825   9.666  1.5714 -0.4289  1.3013
    8SAPS   C38 1031   4.953   3.723   9.499  0.0840  0.6850 -0.6014
    8SAPS   H8X 1032   4.995   3.804   9.436  0.7284  0.9919  0.2096
    8SAPS   H8Y 1033   4.851   3.764   9.513 -0.3053 -0.9303  1.5861
    8SAPS   C39 1034   4.961   3.591   9.416 -0.5399  0.5549  0.3298
    8SAPS   H9X 1035   4.916   3.505   9.470  5.0148 -0.6472  3.4462
    8SAPS   H9Y 1036   5.069   3.568   9.403 -0.2696  1.5450  0.8078
    8SAPS  C310 1037   4.898   3.597   9.270 -0.4918 -0.8412  0.2174
    8SAPS  H10X 1038   4.788   3.602   9.281 -0.3365  2.3433  1.0622
    8SAPS  H10Y 1039   4.908   3.498   9.221 -3.5878 -1.7441  1.2887
    8SAPS  C311 1040   4.950   3.702   9.169  0.3052 -0.2385 -0.5509
    8SAPS  H11X 1041   5.047   3.667   9.127 -0.9543 -1.7362 -2.2923
    8SAPS  H11Y 1042   4.964   3.803   9.214  1.6755 -0.8895  0.4978
    8SAPS  C312 1043   4.856   3.729   9.051 -0.1906 -0.1882 -0.3769
    8SAPS  H12X 1044   4.901   3.805   8.984  1.0458 -1.0515 -0.5519
    8SAPS  H12Y 1045   4.758   3.769   9.083 -0.0023  0.8781 -1.1037
    8SAPS  C313 1046   4.840   3.606   8.950 -0.1319  0.5622  0.1985
    8SAPS  H13X 1047   4.788   3.529   9.010 -3.6894  0.8197 -2.3808
    8SAPS  H13Y 1048   4.940   3.582   8.909 -0.0243  0.4205  0.5379
    8SAPS  C314 1049   4.745   3.639   8.835  0.2109  0.4653  0.1318
    8SAPS  H14X 1050   4.748   3.745   8.803  0.5113  0.3154 -0.3346
    8SAPS  H14Y 1051   4.648   3.614   8.883  1.4503 -0.0518  2.4462
    8SAPS  C315 1052   4.772   3.544   8.717  0.0299  0.3238 -0.3188
    8SAPS  H15X 1053   4.772   3.439   8.752  0.9894  0.2046 -0.6827
    8SAPS  H15Y 1054   4.878   3.559   8.686 -0.1429  3.0944  0.2389
    8SAPS  C316 1055   4.692   3.559   8.591  0.3913  0.0093  0.4124
    8SAPS  H16X 1056   4.742   3.498   8.513  0.4453 -1.1619  1.3573
    8SAPS  H16Y 1057   4.677   3.664   8.557  1.1728 -0.2194 -0.6434
    8SAPS  C317 1058   4.553   3.504   8.611 -0.2669  0.3325  0.0635
    8SAPS  H17X 1059   4.501   3.562   8.690 -0.7491 -0.5174  0.3801
    8SAPS  H17Y 1060   4.570   3.399   8.643  0.4370 -0.6535 -3.2712
    8SAPS  C318 1061   4.474   3.499   8.476 -0.3370  0.0959 -0.5969
    8SAPS  H18X 1062   4.458   3.601   8.435  0.3543  0.2045 -0.6012
    8SAPS  H18Y 1063   4.381   3.440   8.492 -0.7748  1.1911  1.0893
    8SAPS  H18Z 1064   4.532   3.444   8.399 -0.9552 -1.6732  0.1715
    9SAPS     N 1065   1.838   5.636   6.280 -0.2294  0.1978 -0.0579
    9SAPS   HN1 1066   1.927   5.633   6.226  1.1453  1.9240  2.0349
    9SAPS   HN2 1067   1.838   5.733   6.318 -0.1838  0.5691 -0.9784
    9SAPS   HN3 1068   1.852   5.567   6.356 -0.6481  0.4871  0.2790
    9SAPS   C12 1069   1.724   5.611   6.193  0.5022  0.9101 -0.4379
    9SAPS  H12A 1070   1.738   5.685   6.116  0.5940  2.2385  0.8380
    9SAPS   C13 1071   1.730   5.477   6.116  0.1220  1.2376 -0.0601
    9SAPS  O13A 1072   1.834   5.410   6.106  0.7166  0.5039  0.2731
    9SAPS  O13B 1073   1.630   5.447   6.047  0.4394  0.3627 -0.0423
    9SAPS   C11 1074   1.592   5.620   6.278 -0.4679 -0.4795  0.2013
    9SAPS  H11A 1075   1.598   5.523   6.332  0.4820  0.1509  1.2492
    9SAPS  H11B 1076   1.497   5.626   6.222 -0.6396 -0.1496  0.5213
    9SAPS     P 1077   1.505   5.736   6.504 -0.1486  0.4560 -0.1641
    9SAPS   O13 1078   1.437   5.868   6.521 -0.3682 -0.1664  0.6272
    9SAPS   O14 1079   1.419   5.618   6.525  0.0892  0.2184 -0.0578
    9SAPS   O12 1080   1.593   5.728   6.371  0.8278  0.1387  0.5789
    9SAPS   O11 1081   1.621   5.737   6.609 -0.5469 -0.5161  0.2594
    9SAPS    C1 1082   1.656   5.633   6.697 -0.2141  0.8053 -0.6318
    9SAPS    HA 1083   1.623   5.532   6.665  2.5689 -1.0518  2.0783
    9SAPS    HB 1084   1.767   5.622   6.703 -0.3270 -0.8360 -1.2619
    9SAPS    C2 1085   1.594   5.655   6.843  0.1274  0.2298  0.1096
    9SAPS    HS 1086   1.483   5.664   6.838 -0.1198 -1.7733  1.4784
    9SAPS   O21 1087   1.664   5.772   6.884 -0.0989 -0.3068 -0.1195
    9SAPS   C21 1088   1.624   5.835   6.986  0.1314  0.6774 -0.3255
    9SAPS   O22 1089   1.506   5.835   7.029  0.3526  0.5188  0.6222
    9SAPS   C22 1090   1.748   5.896   7.055  0.3661 -0.7251  0.0768
    9SAPS   H2R 1091   1.835   5.830   7.031  0.1565 -0.6799 -0.8354
    9SAPS   H2S 1092   1.776   5.988   7.000 -2.8748 -1.1425 -2.4093
    9SAPS    C3 1093   1.621   5.526   6.933  0.1289 -0.7451 -0.7974
    9SAPS    HX 1094   1.732   5.527   6.933  0.1505 -1.6303  0.8211
    9SAPS    HY 1095   1.581   5.436   6.882 -0.3275 -1.1711  0.3061
    9SAPS   O31 1096   1.590   5.536   7.075  0.2141  0.4119  0.0540
    9SAPS   C31 1097   1.463   5.524   7.097 -0.7908  0.4136 -0.5207
    9SAPS   O32 1098   1.379   5.498   7.014  0.2299 -0.1845  0.3702
    9SAPS   C32 1099   1.442   5.539   7.244 -0.3761  0.0685  0.3850
    9SAPS   H2X 1100   1.452   5.646   7.272  0.2048  0.1225 -0.0192
    9SAPS   H2Y 1101   1.514   5.472   7.295  1.0700  0.9982 -0.3763
    9SAPS   C23 1102   1.716   5.931   7.204  0.1249  0.5696 -0.8844
    9SAPS   H3R 1103   1.631   6.002   7.208 -1.2585 -0.9205 -2.7714
    9SAPS   H3S 1104   1.814   5.975   7.235 -0.6187  2.1685 -0.7662
    9SAPS   C24 1105   1.694   5.803   7.299  0.2181  0.3987  0.1653
    9SAPS   H4R 1106   1.782   5.740   7.323  1.6540  2.3470  0.1174
    9SAPS   H4S 1107   1.654   5.729   7.226 -1.3347  0.5064  0.9060
    9SAPS   C25 1108   1.598   5.827   7.414  0.4715 -0.0739  0.2770
    9SAPS   H5R 1109   1.494   5.792   7.398  0.4696 -1.2761  2.7584
    9SAPS   C26 1110   1.644   5.866   7.534  0.2950 -0.3288  0.3453
    9SAPS   H6R 1111   1.584   5.890   7.623  1.0627  0.7181  0.5943
    9SAPS   C27 1112   1.800   5.894   7.564  0.0449 -0.5616 -0.3332
    9SAPS   H7R 1113   1.811   5.987   7.622  1.6521 -1.3542  0.6520
    9SAPS   H7S 1114   1.865   5.907   7.474  2.2308 -0.5303  1.2143
    9SAPS   C28 1115   1.851   5.772   7.639  0.6297  0.6924 -0.5366
    9SAPS   H8R 1116   1.859   5.686   7.571 -1.7578  0.1233 -0.1473
    9SAPS   C29 1117   1.866   5.761   7.770 -0.4221 -0.4771 -0.3499
    9SAPS   H9R 1118   1.906   5.669   7.815  2.1421  0.4048 -0.7976
    9SAPS  C210 1119   1.856   5.863   7.882  1.0095  0.5847 -0.3486
    9SAPS  H10R 1120   1.867   5.965   7.840  0.9190  0.5893 -0.3623
    9SAPS  H10S 1121   1.943   5.859   7.950  2.4028 -1.8766 -2.1544
    9SAPS  C211 1122   1.733   5.838   7.964 -0.0798 -0.2359 -0.8117
    9SAPS  H11R 1123   1.668   5.754   7.934  0.8052 -2.1895  2.4940
    9SAPS  C212 1124   1.700   5.905   8.082  1.0088 -0.0930  0.0015
    9SAPS  H12R 1125   1.606   5.878   8.132  0.2893 -1.6756 -2.1496
    9SAPS  C213 1126   1.782   6.015   8.148  0.7037  0.2308  0.3973
    9SAPS  H13R 1127   1.831   6.084   8.075  1.9719 -0.3461  0.6957
    9SAPS  H13S 1128   1.862   5.966   8.206  1.0899  0.6481  0.2199
    9SAPS  C214 1129   1.726   6.111   8.255 -0.0289  0.7225 -0.1098
    9SAPS  H14R 1130   1.669   6.058   8.333  0.9491 -0.2621 -0.0546
    9SAPS  C215 1131   1.751   6.243   8.272 -0.1950  0.1790  0.4175
    9SAPS  H15R 1132   1.704   6.297   8.355 -3.2938  0.2928 -1.3206
    9SAPS  C216 1133   1.834   6.331   8.180  0.4204 -0.6085 -0.5002
    9SAPS  H16R 1134   1.779   6.350   8.085 -1.4728 -3.7116 -0.0974
    9SAPS  H16S 1135   1.927   6.282   8.144  0.4794  0.4871 -1.9052
    9SAPS  C217 1136   1.882   6.463   8.240  0.0449  0.5547  0.3445
    9SAPS  H17R 1137   1.944   6.519   8.168 -0.4833 -0.9530 -1.3223
    9SAPS  H17S 1138   1.939   6.440   8.333 -4.8308  0.2623  3.4970
    9SAPS  C218 1139   1.774   6.558   8.282  0.2197  0.7392 -0.0572
    9SAPS  H18R 1140   1.695   6.505   8.340  0.6362  1.2110  0.9511
    9SAPS  H18S 1141   1.729   6.604   8.191  1.4976  2.2939  0.0791
    9SAPS  C219 1142   1.824   6.674   8.368  0.0458  0.0508 -0.1630
    9SAPS  H19R 1143   1.904   6.719   8.306 -2.1795 -0.3683 -3.4681
    9SAPS  H19S 1144   1.859   6.621   8.459  0.4977 -0.6593 -0.7439
    9SAPS  C220 1145   1.710   6.769   8.408 -0.8279  0.7521 -0.0937
    9SAPS  H20R 1146   1.645   6.788   8.320  1.2378  0.4968 -1.7231
    9SAPS  H20S 1147   1.737   6.870   8.447 -0.7553  0.8773 -0.4597
    9SAPS  H20T 1148   1.639   6.711   8.470 -0.6503  1.8551  1.1746
    9SAPS   C33 1149   1.302   5.489   7.277 -0.2819 -0.0956  0.1650
    9SAPS   H3X 1150   1.276   5.405   7.209 -0.9228  0.3306 -0.1244
    9SAPS   H3Y 1151   1.215   5.557   7.264 -1.5763 -1.8440 -0.5387
    9SAPS   C34 1152   1.293   5.455   7.423  0.0452  1.0418 -0.1260
    9SAPS   H4X 1153   1.285   5.545   7.487 -0.0966  0.9884 -0.0697
    9SAPS   H4Y 1154   1.382   5.392   7.447 -2.2988 -1.3238  2.6907
    9SAPS   C35 1155   1.166   5.386   7.457 -0.3974 -0.3956 -0.1845
    9SAPS   H5X 1156   1.154   5.305   7.382  2.0565  2.1022 -3.3815
    9SAPS   H5Y 1157   1.073   5.445   7.453 -1.2557 -1.4212  2.7916
    9SAPS   C36 1158   1.166   5.311   7.593  1.0435 -0.8619  0.6971
    9SAPS   H6X 1159   1.139   5.372   7.683  1.8242 -2.6369  2.1592
    9SAPS   H6Y 1160   1.267   5.268   7.609  1.6881  0.1286 -0.6133
    9SAPS   C37 1161   1.057   5.204   7.595  0.4727 -0.2871  0.0627
    9SAPS   H7X 1162   1.063   5.145   7.501 -1.7179 -1.6516  0.7524
    9SAPS   H7Y 1163   0.958   5.253   7.584  1.2460  1.7172  1.6318
    9SAPS   C38 1164   1.056   5.118   7.727  0.0913  0.0373  0.0909
    9SAPS   H8X 1165   1.055   5.182   7.818  0.9606  0.6532 -0.3225
    9SAPS   H8Y 1166   1.151   5.060   7.736 -0.4217 -0.4886  2.4767
    9SAPS   C39 1167   0.941   5.014   7.729  0.1234 -0.4197  0.0896
    9SAPS   H9X 1168   0.938   4.954   7.636  1.2020 -1.7920  0.9260
    9SAPS   H9Y 1169   0.852   5.081   7.738  0.1702 -0.1143 -1.6643
    9SAPS  C310 1170   0.945   4.917   7.844 -0.4943 -0.8825 -0.1051
    9SAPS  H10X 1171   1.054   4.906   7.866 -0.5744 -1.5546 -0.0360
    9SAPS  H10Y 1172   0.908   4.824   7.795  1.0513 -0.6455 -1.7855
    9SAPS  C311 1173   0.867   4.966   7.965  0.9776  0.7222  0.2698
    9SAPS  H11X 1174   0.763   4.981   7.929  1.6652  0.5868 -1.8837
    9SAPS  H11Y 1175   0.905   5.064   8.002  0.6143  1.1875 -0.5789
    9SAPS  C312 1176   0.870   4.873   8.086  0.1822  0.3362  0.3581
    9SAPS  H12X 1177   0.976   4.881   8.117 -0.1988  0.9159  1.5430
    9SAPS  H12Y 1178   0.838   4.771   8.055  1.0007  0.9758 -2.7885
    9SAPS  C313 1179   0.802   4.935   8.206 -0.3559  0.3998 -0.6875
    9SAPS  H13X 1180   0.705   4.967   8.163 -0.2754  1.6964  0.0775
    9SAPS  H13Y 1181   0.858   5.025   8.239  0.5557 -0.6269  0.6380
    9SAPS  C314 1182   0.773   4.846   8.325 -0.3357 -0.1374  0.1752
    9SAPS  H14X 1183   0.867   4.797   8.359 -0.0474 -0.6461 -1.3130
    9SAPS  H14Y 1184   0.704   4.766   8.290 -1.8552  0.7546  1.0836
    9SAPS  C315 1185   0.712   4.926   8.438 -0.1201 -0.3318  0.3953
    9SAPS  H15X 1186   0.628   4.986   8.398 -0.1087  0.6638  1.8084
    9SAPS  H15Y 1187   0.794   4.991   8.476 -0.7498  0.1927  0.8812
    9SAPS  C316 1188   0.663   4.843   8.555  0.6216 -0.0787  0.6080
    9SAPS  H16X 1189   0.738   4.773   8.600 -1.2026 -1.1966  1.9844
    9SAPS  H16Y 1190   0.590   4.772   8.511  2.9629 -2.1361 -0.0851
    9SAPS  C317 1191   0.601   4.917   8.676  0.5913 -0.3459  0.0391
    9SAPS  H17X 1192   0.535   4.997   8.638 -0.0498 -0.6385  0.5256
    9SAPS  H17Y 1193   0.679   4.971   8.734  0.6829 -0.9972  0.5277
    9SAPS  C318 1194   0.532   4.823   8.768  0.4919  0.5320 -0.5243
    9SAPS  H18X 1195   0.594   4.748   8.821 -1.2562  0.1481  1.0406
    9SAPS  H18Y 1196   0.455   4.770   8.707  0.6111 -0.5273  0.2441
    9SAPS  H18Z 1197   0.477   4.881   8.845  0.4180  2.1258 -1.7666
   10SAPS     N 1198   1.693   5.155   6.108 -0.5179  0.5535  0.1573
   10SAPS   HN1 1199   1.622   5.154   6.031  0.6063  1.5364 -0.9251
   10SAPS   HN2 1200   1.740   5.248   6.103  1.1945 -0.2916  0.1348
   10SAPS   HN3 1201   1.773   5.093   6.084 -0.5061  0.0218  1.5646
   10SAPS   C12 1202   1.637   5.131   6.250  0.1830 -0.4192 -0.1633
   10SAPS  H12A 1203   1.584   5.222   6.275 -0.0600 -0.6889  0.3023
   10SAPS   C13 1204   1.548   5.014   6.261  0.4451  0.1904 -0.1911
   10SAPS  O13A 1205   1.506   4.953   6.159 -1.1989 -0.3811  0.7245
   10SAPS  O13B 1206   1.498   4.989   6.371  0.1710  0.5494 -0.4108
   10SAPS   C11 1207   1.750   5.106   6.357  0.0204 -0.2574  0.3441
   10SAPS  H11A 1208   1.805   5.017   6.319 -2.0773 -1.7491  0.6623
   10SAPS  H11B 1209   1.695   5.071   6.448 -0.0071 -0.9088  0.0793
   10SAPS     P 1210   1.783   5.328   6.489 -0.0417 -0.6607  0.1454
   10SAPS   O13 1211   1.868   5.448   6.464 -0.0523 -0.6019 -0.2908
   10SAPS   O14 1212   1.638   5.355   6.491 -0.3618 -0.5347  0.0070
   10SAPS   O12 1213   1.831   5.221   6.387  0.7689  0.4971  0.6144
   10SAPS   O11 1214   1.815   5.266   6.627 -0.0642  0.6606  0.5923
   10SAPS    C1 1215   1.925   5.177   6.649  0.0740  0.0418  0.4274
   10SAPS    HA 1216   1.892   5.081   6.604 -2.0456  2.0379 -2.4266
   10SAPS    HB 1217   2.019   5.209   6.599  0.8383 -0.0718  1.7464
   10SAPS    C2 1218   1.962   5.174   6.798 -0.3890  0.2040 -0.1100
   10SAPS    HS 1219   2.062   5.128   6.815 -1.5390 -1.8164  1.4467
   10SAPS   O21 1220   1.868   5.093   6.871 -0.4377  0.2326  0.1436
   10SAPS   C21 1221   1.879   4.960   6.849 -0.2351  0.1862 -0.0768
   10SAPS   O22 1222   1.953   4.911   6.764  0.1423  0.2732 -0.0566
   10SAPS   C22 1223   1.795   4.877   6.942 -0.0603 -0.0898  0.2644
   10SAPS   H2R 1224   1.732   4.942   7.006 -1.2502 -0.9752  0.0104
   10SAPS   H2S 1225   1.722   4.819   6.881  1.1593 -0.7651 -0.5864
   10SAPS    C3 1226   1.948   5.324   6.857 -0.1712  0.1830  0.3977
   10SAPS    HX 1227   1.840   5.351   6.856 -1.1766 -3.5005  0.9097
   10SAPS    HY 1228   2.011   5.385   6.789 -2.9253  0.7790 -1.6849
   10SAPS   O31 1229   2.003   5.322   6.989 -0.1737 -0.3083  0.2989
   10SAPS   C31 1230   2.004   5.440   7.048 -0.1955  0.2061  0.4342
   10SAPS   O32 1231   1.960   5.542   7.000  0.3553 -0.2194 -0.2950
   10SAPS   C32 1232   2.087   5.430   7.174  0.5507 -0.7031 -0.0292
   10SAPS   H2X 1233   2.157   5.516   7.175  0.6313 -0.7661  2.6923
   10SAPS   H2Y 1234   2.141   5.333   7.172 -0.6475 -1.3576 -1.8678
   10SAPS   C23 1235   1.886   4.791   7.034  0.4077  0.0318 -0.1113
   10SAPS   H3R 1236   1.959   4.740   6.967  1.1824  1.3014 -0.2376
   10SAPS   H3S 1237   1.822   4.715   7.083  1.4333 -0.7003  0.1095
   10SAPS   C24 1238   1.971   4.869   7.140 -0.3531 -0.2130 -0.7530
   10SAPS   H4R 1239   1.899   4.929   7.200 -1.8938 -1.7438 -1.0246
   10SAPS   H4S 1240   2.040   4.943   7.094  3.2063 -2.0299  1.4373
   10SAPS   C25 1241   2.047   4.763   7.218  0.0354  0.1846 -0.3406
   10SAPS   H5R 1242   2.125   4.710   7.161  1.6676  0.7789  1.2971
   10SAPS   C26 1243   2.022   4.738   7.351 -0.3477  0.3127 -0.2266
   10SAPS   H6R 1244   2.078   4.655   7.398 -0.0851  1.0634  0.7918
   10SAPS   C27 1245   1.924   4.803   7.444  0.0606  0.3767  0.2713
   10SAPS   H7R 1246   1.855   4.731   7.493  2.3163 -2.5422 -0.7244
   10SAPS   H7S 1247   1.858   4.866   7.380  1.4182  0.7737 -0.7712
   10SAPS   C28 1248   1.996   4.891   7.545 -0.1027 -0.0743  0.2572
   10SAPS   H8R 1249   2.035   4.979   7.493 -4.0770  1.2906 -0.5560
   10SAPS   C29 1250   2.035   4.865   7.674  0.4907  0.0446 -0.1945
   10SAPS   H9R 1251   2.086   4.943   7.732 -1.5824  3.0657 -2.3012
   10SAPS  C210 1252   2.000   4.740   7.747 -0.1525 -0.0224 -0.4906
   10SAPS  H10R 1253   2.077   4.732   7.826  0.4770 -2.0952 -1.2843
   10SAPS  H10S 1254   2.040   4.655   7.688  1.4932 -0.2230  0.8659
   10SAPS  C211 1255   1.852   4.726   7.788 -0.4019  0.3823  0.3240
   10SAPS  H11R 1256   1.778   4.711   7.709  0.8308  0.8802 -0.9357
   10SAPS  C212 1257   1.819   4.737   7.923 -0.3977  0.4488  0.6016
   10SAPS  H12R 1258   1.717   4.725   7.965 -0.9650 -1.7015 -1.2972
   10SAPS  C213 1259   1.897   4.756   8.053 -0.3977 -0.4370  0.3836
   10SAPS  H13R 1260   1.919   4.863   8.076 -0.6848 -0.5391  1.1528
   10SAPS  H13S 1261   2.000   4.717   8.043 -1.0355 -1.6027 -1.7751
   10SAPS  C214 1262   1.852   4.685   8.180  0.0017 -0.1992 -0.7187
   10SAPS  H14R 1263   1.888   4.582   8.186  0.3412 -0.0096  0.6912
   10SAPS  C215 1264   1.765   4.724   8.277 -0.6160 -0.1142 -0.0403
   10SAPS  H15R 1265   1.742   4.663   8.366 -0.5411 -4.4585 -2.8734
   10SAPS  C216 1266   1.691   4.849   8.303 -0.1231  0.2818  0.4496
   10SAPS  H16R 1267   1.586   4.815   8.294  0.0506 -0.0882 -0.2678
   10SAPS  H16S 1268   1.700   4.929   8.226  3.0556 -0.5451 -0.1498
   10SAPS  C217 1269   1.727   4.922   8.434 -0.1227 -0.3064  0.9652
   10SAPS  H17R 1270   1.666   5.015   8.439 -0.5420 -0.3062 -2.4168
   10SAPS  H17S 1271   1.836   4.945   8.428 -0.1055 -0.9523 -2.5610
   10SAPS  C218 1272   1.691   4.847   8.563  0.2865 -0.6724 -0.2937
   10SAPS  H18R 1273   1.764   4.764   8.579  1.3084 -0.0634 -1.6521
   10SAPS  H18S 1274   1.594   4.798   8.540 -0.6653  1.1878 -0.3582
   10SAPS  C219 1275   1.670   4.931   8.690  0.2048  0.1589 -0.4822
   10SAPS  H19R 1276   1.593   5.011   8.675  0.8917  1.4190  2.4620
   10SAPS  H19S 1277   1.769   4.977   8.712  0.4553 -0.6399  0.0572
   10SAPS  C220 1278   1.627   4.855   8.809  0.8619  0.0450 -0.3762
   10SAPS  H20R 1279   1.622   4.913   8.904 -2.0933 -0.8612  0.0802
   10SAPS  H20S 1280   1.696   4.771   8.832  0.7514  0.4597  1.6330
   10SAPS  H20T 1281   1.526   4.812   8.793  1.0058 -0.0854 -0.9201
   10SAPS   C33 1282   2.004   5.433   7.309 -0.2304  0.2658 -0.1369
   10SAPS   H3X 1283   1.928   5.513   7.318  0.6316  1.0178  0.5604
   10SAPS   H3Y 1284   2.077   5.440   7.393  0.5571  0.1746 -0.8002
   10SAPS   C34 1285   1.926   5.303   7.329  0.1812  0.2559  0.4475
   10SAPS   H4X 1286   1.965   5.223   7.262 -0.6573 -0.9073  1.3300
   10SAPS   H4Y 1287   1.824   5.325   7.291 -0.1455 -0.9799  0.5821
   10SAPS   C35 1288   1.905   5.255   7.472 -0.4226 -0.2770 -0.0109
   10SAPS   H5X 1289   1.999   5.215   7.517 -1.5610 -1.0810  1.6988
   10SAPS   H5Y 1290   1.828   5.175   7.479  0.5620 -1.1931  0.5702
   10SAPS   C36 1291   1.864   5.372   7.563  0.3666 -0.0912  0.4919
   10SAPS   H6X 1292   1.791   5.430   7.502  0.3560  0.4593  1.0304
   10SAPS   H6Y 1293   1.941   5.445   7.596  0.1755 -0.3526  1.5128
   10SAPS   C37 1294   1.788   5.318   7.683  0.4382 -0.1191 -0.0489
   10SAPS   H7X 1295   1.701   5.258   7.648 -1.6133  1.0851  2.8092
   10SAPS   H7Y 1296   1.762   5.404   7.748  0.5617  0.5115 -0.8147
   10SAPS   C38 1297   1.876   5.223   7.775 -0.8020 -0.2794 -0.1355
   10SAPS   H8X 1298   1.952   5.176   7.709  0.1116 -0.5231  1.0823
   10SAPS   H8Y 1299   1.816   5.144   7.825 -0.9904 -0.9207 -1.3529
   10SAPS   C39 1300   1.951   5.308   7.888 -0.3409  0.0445 -0.2669
   10SAPS   H9X 1301   1.936   5.416   7.866  3.3891  0.3556 -1.7063
   10SAPS   H9Y 1302   2.061   5.309   7.876 -0.2659  0.9237  0.4600
   10SAPS  C310 1303   1.916   5.260   8.028  0.0322 -0.1829  0.2473
   10SAPS  H10X 1304   1.918   5.150   8.039 -1.3296 -0.0586  1.9865
   10SAPS  H10Y 1305   1.816   5.293   8.063  0.5099  0.5627  0.9368
   10SAPS  C311 1306   2.012   5.313   8.138 -0.0297 -0.4508  0.1976
   10SAPS  H11X 1307   1.991   5.422   8.139  2.6938  0.1217  1.0031
   10SAPS  H11Y 1308   2.117   5.302   8.101  0.7725  2.7702  1.3387
   10SAPS  C312 1309   2.001   5.263   8.278 -1.0981  0.3039 -0.3487
   10SAPS  H12X 1310   2.022   5.155   8.292 -0.1980  0.5357  0.0761
   10SAPS  H12Y 1311   1.894   5.285   8.302 -0.8986  0.5801  0.3047
   10SAPS  C313 1312   2.080   5.351   8.378 -0.3441 -1.0144  1.0057
   10SAPS  H13X 1313   2.060   5.456   8.348  1.3302 -0.7201  0.8362
   10SAPS  H13Y 1314   2.188   5.326   8.368 -0.3571  0.4347 -4.3089
   10SAPS  C314 1315   2.041   5.324   8.524  0.1326  0.0985  0.4577
   10SAPS  H14X 1316   2.041   5.216   8.551 -0.2732 -0.0557 -0.1430
   10SAPS  H14Y 1317   1.936   5.353   8.545  0.1477  1.4582 -1.2569
   10SAPS  C315 1318   2.154   5.387   8.615  0.8846  0.1704 -0.0243
   10SAPS  H15X 1319   2.150   5.497   8.605 -0.1297  0.1295 -0.1032
   10SAPS  H15Y 1320   2.259   5.360   8.590  1.5659  0.5800  2.2241
   10SAPS  C316 1321   2.120   5.355   8.768 -0.4634  0.4343  0.0945
   10SAPS  H16X 1322   2.217   5.394   8.807 -0.6035  0.6502  0.2306
   10SAPS  H16Y 1323   2.099   5.250   8.795 -1.0287  0.5160 -0.0229
   10SAPS  C317 1324   2.011   5.443   8.835 -0.1065 -0.8131  0.9563
   10SAPS  H17X 1325   1.913   5.421   8.787  0.1322 -0.1956  0.1673
   10SAPS  H17Y 1326   2.038   5.547   8.806 -2.3824 -1.3294 -3.3159
   10SAPS  C318 1327   2.007   5.438   8.992  0.7513  0.0261  0.3683
   10SAPS  H18X 1328   2.109   5.468   9.026 -0.4610  1.3119  3.0191
   10SAPS  H18Y 1329   1.970   5.343   9.034 -1.3818  0.5457 -0.2540
   10SAPS  H18Z 1330   1.945   5.526   9.019 -0.8257 -0.3272 -1.9407
   11SAPS     N 1331   3.331   2.189   5.962  0.5192 -0.0254  0.0551
   11SAPS   HN1 1332   3.376   2.109   5.912  0.5493  0.3644 -0.5481
   11SAPS   HN2 1333   3.402   2.249   6.008  1.5304  0.6736 -2.3321
   11SAPS   HN3 1334   3.262   2.156   6.032  2.2154 -1.2477  1.1858
   11SAPS   C12 1335   3.268   2.283   5.868  0.1192 -0.2768  0.8675
   11SAPS  H12A 1336   3.237   2.374   5.919 -1.9253  0.5922 -1.8030
   11SAPS   C13 1337   3.346   2.319   5.737 -0.2568  0.2025 -0.1852
   11SAPS  O13A 1338   3.465   2.278   5.715 -0.4894  0.1348  0.0689
   11SAPS  O13B 1339   3.293   2.400   5.650 -1.0351 -0.2602  0.0362
   11SAPS   C11 1340   3.132   2.226   5.819 -0.1375 -0.9032  0.0192
   11SAPS  H11A 1341   3.079   2.290   5.745  0.8055 -1.8486 -1.4998
   11SAPS  H11B 1342   3.070   2.216   5.911 -0.4553 -0.7105 -0.1723
   11SAPS     P 1343   3.044   1.971   5.757  0.5358  0.0151  0.4304
   11SAPS   O13 1344   2.912   2.001   5.699  0.6620 -0.5440  0.2098
   11SAPS   O14 1345   3.116   1.850   5.705 -0.2874 -0.5352 -0.1875
   11SAPS   O12 1346   3.144   2.100   5.753  0.0357 -0.6129  0.5037
   11SAPS   O11 1347   3.014   1.961   5.912  0.3890 -0.2899  0.2215
   11SAPS    C1 1348   3.092   1.882   6.003  0.3881 -0.8499  0.7684
   11SAPS    HA 1349   3.196   1.874   5.963  0.4615  0.1384  0.7574
   11SAPS    HB 1350   3.107   1.930   6.102  0.0278  2.3100 -0.6761
   11SAPS    C2 1351   3.045   1.730   6.024  0.1991 -0.6418 -0.0057
   11SAPS    HS 1352   3.002   1.691   5.929  0.7978 -3.1554  0.7112
   11SAPS   O21 1353   2.940   1.741   6.121  0.0113  0.0379 -0.2416
   11SAPS   C21 1354   2.865   1.635   6.131 -0.5327  0.5710 -0.0333
   11SAPS   O22 1355   2.866   1.548   6.047  0.5687  0.0841 -0.7636
   11SAPS   C22 1356   2.762   1.631   6.240 -0.5756  0.4816  0.2782
   11SAPS   H2R 1357   2.686   1.711   6.225 -2.5888 -0.9802  2.3455
   11SAPS   H2S 1358   2.728   1.525   6.231 -1.4162  0.8324 -0.9004
   11SAPS    C3 1359   3.161   1.633   6.063 -0.1627  0.7382  0.8399
   11SAPS    HX 1360   3.244   1.660   5.994  0.8808 -1.3505  1.2199
   11SAPS    HY 1361   3.119   1.532   6.039  1.9609  0.0784 -0.1988
   11SAPS   O31 1362   3.195   1.641   6.202 -0.0035 -0.7199 -0.0400
   11SAPS   C31 1363   3.278   1.735   6.234 -0.6475 -0.5480 -0.3414
   11SAPS   O32 1364   3.357   1.793   6.161  0.2546  0.2187  0.4549
   11SAPS   C32 1365   3.293   1.753   6.384  0.3318 -0.1949  0.4298
   11SAPS   H2X 1366   3.332   1.854   6.409 -0.1410  0.4555 -1.3470
   11SAPS   H2Y 1367   3.371   1.685   6.423  1.1922 -1.2370 -2.8977
   11SAPS   C23 1368   2.829   1.651   6.376 -0.6667 -0.4997 -0.3284
   11SAPS   H3R 1369   2.852   1.758   6.396 -0.8654 -0.4391 -0.4185
   11SAPS   H3S 1370   2.930   1.604   6.380 -2.3131 -4.0465  1.8282
   11SAPS   C24 1371   2.752   1.607   6.502 -0.8929 -0.4599 -0.1389
   11SAPS   H4R 1372   2.821   1.606   6.589 -0.9897 -1.1091 -0.0654
   11SAPS   H4S 1373   2.719   1.501   6.497 -3.1894  0.2741 -1.5958
   11SAPS   C25 1374   2.625   1.682   6.530  0.3148  0.3512  0.1743
   11SAPS   H5R 1375   2.583   1.735   6.444  0.9397  0.2733 -0.1834
   11SAPS   C26 1376   2.563   1.678   6.647  0.0839  0.5319  0.2872
   11SAPS   H6R 1377   2.474   1.742   6.657  0.0205  1.0290 -3.1318
   11SAPS   C27 1378   2.601   1.607   6.768 -0.3972 -0.0258  0.8171
   11SAPS   H7R 1379   2.685   1.538   6.744 -2.2818 -1.2183 -2.8515
   11SAPS   H7S 1380   2.516   1.539   6.793  0.4456 -1.5238 -0.2548
   11SAPS   C28 1381   2.634   1.692   6.889  0.3466 -0.2406  0.3410
   11SAPS   H8R 1382   2.690   1.785   6.874  0.8229 -0.6161 -0.1996
   11SAPS   C29 1383   2.599   1.658   7.010  0.1090 -0.3766 -0.0540
   11SAPS   H9R 1384   2.638   1.736   7.078  0.0459 -2.5312  2.5283
   11SAPS  C210 1385   2.525   1.541   7.069 -0.8085  0.4176  0.3302
   11SAPS  H10R 1386   2.499   1.461   6.997 -2.8990  1.9558 -0.6753
   11SAPS  H10S 1387   2.423   1.579   7.095 -1.1663 -2.1634  2.9328
   11SAPS  C211 1388   2.599   1.468   7.181 -0.4160 -0.1102 -0.3450
   11SAPS  H11R 1389   2.701   1.440   7.152 -1.4462 -0.9454 -3.3819
   11SAPS  C212 1390   2.549   1.441   7.300 -0.1114  0.6248  0.4069
   11SAPS  H12R 1391   2.614   1.381   7.365 -0.4914 -0.5224 -0.2670
   11SAPS  C213 1392   2.407   1.473   7.355 -0.4469  0.2359 -0.2507
   11SAPS  H13R 1393   2.337   1.486   7.270 -1.4315  0.4318  0.5775
   11SAPS  H13S 1394   2.398   1.571   7.408  0.1958  0.5462 -0.7111
   11SAPS  C214 1395   2.359   1.359   7.437  0.5832  0.9376 -0.1142
   11SAPS  H14R 1396   2.303   1.285   7.378 -0.0782  1.0399  0.3787
   11SAPS  C215 1397   2.374   1.341   7.566  0.1637 -0.3051  0.1821
   11SAPS  H15R 1398   2.342   1.247   7.613 -0.9348  0.2199  0.5029
   11SAPS  C216 1399   2.444   1.430   7.671 -0.1867 -0.1203 -0.3117
   11SAPS  H16R 1400   2.483   1.522   7.623  1.4174 -0.2202  0.7509
   11SAPS  H16S 1401   2.525   1.390   7.735 -0.2538 -2.3436 -1.5525
   11SAPS  C217 1402   2.341   1.482   7.778  0.0598 -0.3075 -0.5148
   11SAPS  H17R 1403   2.279   1.395   7.811  1.2223 -1.1012 -0.3711
   11SAPS  H17S 1404   2.296   1.569   7.727 -0.0871  0.5522  1.0538
   11SAPS  C218 1405   2.409   1.553   7.901 -0.1643  0.3866  0.1908
   11SAPS  H18R 1406   2.471   1.641   7.873 -0.1157  0.2564 -0.1132
   11SAPS  H18S 1407   2.472   1.467   7.932  0.1015  0.3619 -0.4059
   11SAPS  C219 1408   2.305   1.600   8.007  0.4881 -0.2263 -0.7090
   11SAPS  H19R 1409   2.283   1.506   8.061  1.2407  0.1136  0.1908
   11SAPS  H19S 1410   2.226   1.653   7.949 -0.0773 -1.4137 -1.0371
   11SAPS  C220 1411   2.365   1.692   8.116  0.4806 -0.1397 -0.1406
   11SAPS  H20R 1412   2.392   1.624   8.200 -1.4806 -2.5460 -1.3745
   11SAPS  H20S 1413   2.286   1.763   8.147 -0.2650 -1.0924  0.1853
   11SAPS  H20T 1414   2.447   1.751   8.070  0.4420 -1.7948 -2.4451
   11SAPS   C33 1415   3.175   1.711   6.472 -0.1208  0.6928 -0.4877
   11SAPS   H3X 1416   3.146   1.606   6.449  1.2413  0.4370 -1.1029
   11SAPS   H3Y 1417   3.085   1.770   6.448 -0.5577 -0.5052 -1.8939
   11SAPS   C34 1418   3.220   1.712   6.618 -0.1615  0.1316  0.5278
   11SAPS   H4X 1419   3.252   1.810   6.660  0.9588  0.1326 -0.3029
   11SAPS   H4Y 1420   3.305   1.644   6.638  0.4903  0.6122 -0.5752
   11SAPS   C35 1421   3.096   1.665   6.707  0.0852  0.2815  0.4422
   11SAPS   H5X 1422   3.041   1.573   6.676 -2.9839  1.8720  1.0099
   11SAPS   H5Y 1423   3.014   1.739   6.697 -1.1056 -1.0259  0.3093
   11SAPS   C36 1424   3.144   1.664   6.850 -0.1469 -0.1382  0.1783
   11SAPS   H6X 1425   3.183   1.761   6.887 -1.4253  0.1864  0.7036
   11SAPS   H6Y 1426   3.224   1.587   6.853 -0.6733 -0.7887 -1.6179
   11SAPS   C37 1427   3.032   1.601   6.946 -0.1961 -0.1040  0.3021
   11SAPS   H7X 1428   3.033   1.493   6.919 -0.4154 -0.2578  0.9022
   11SAPS   H7Y 1429   2.939   1.646   6.907 -0.4289  0.9004  1.9927
   11SAPS   C38 1430   3.067   1.624   7.094 -0.1345  0.7430 -0.1282
   11SAPS   H8X 1431   3.093   1.729   7.122  0.0209  0.5877  0.3147
   11SAPS   H8Y 1432   3.155   1.561   7.118 -1.2566 -0.5663  0.6628
   11SAPS   C39 1433   2.954   1.558   7.182 -0.6204 -0.5767 -0.2130
   11SAPS   H9X 1434   2.955   1.449   7.158  0.4507 -0.9386  1.4206
   11SAPS   H9Y 1435   2.857   1.599   7.148 -1.0086  0.3900  2.0342
   11SAPS  C310 1436   2.981   1.598   7.331  0.6163  0.1157 -0.8148
   11SAPS  H10X 1437   2.991   1.709   7.334  0.4770  0.0854  1.3309
   11SAPS  H10Y 1438   3.071   1.552   7.377 -0.4627  0.5439  1.8132
   11SAPS  C311 1439   2.860   1.555   7.425 -0.3103 -1.1845  0.6577
   11SAPS  H11X 1440   2.822   1.455   7.395  0.9534 -0.6228 -3.0776
   11SAPS  H11Y 1441   2.775   1.619   7.393  0.0506  0.0645  2.1471
   11SAPS  C312 1442   2.882   1.582   7.574 -0.4329  0.0846 -0.1223
   11SAPS  H12X 1443   2.886   1.690   7.599 -1.3527 -0.0768  0.7554
   11SAPS  H12Y 1444   2.985   1.551   7.599 -0.4673 -0.1502 -0.2697
   11SAPS  C313 1445   2.775   1.516   7.661  0.0284 -0.2173 -0.4148
   11SAPS  H13X 1446   2.768   1.405   7.654 -1.0658 -0.1681 -0.0817
   11SAPS  H13Y 1447   2.678   1.559   7.630  0.1985  0.3924 -0.1055
   11SAPS  C314 1448   2.796   1.539   7.810 -0.4715  0.2428 -0.3652
   11SAPS  H14X 1449   2.696   1.537   7.858 -0.4947 -0.3226 -0.4253
   11SAPS  H14Y 1450   2.844   1.638   7.826 -0.0104  0.0651 -0.6335
   11SAPS  C315 1451   2.891   1.437   7.875  0.3793 -0.4522  0.7153
   11SAPS  H15X 1452   2.985   1.440   7.816 -0.0628 -1.5165 -0.0582
   11SAPS  H15Y 1453   2.838   1.339   7.879  1.5204 -1.1548 -1.0383
   11SAPS  C316 1454   2.926   1.480   8.022  0.1451  0.6872  0.1339
   11SAPS  H16X 1455   2.975   1.580   8.013  1.2011  0.2163  0.5300
   11SAPS  H16Y 1456   3.001   1.404   8.050 -1.8684 -1.7170 -0.8386
   11SAPS  C317 1457   2.804   1.479   8.111  0.5687 -0.2614  0.2252
   11SAPS  H17X 1458   2.826   1.403   8.190 -0.6057  0.4175  1.2159
   11SAPS  H17Y 1459   2.721   1.424   8.062  1.1394  0.7869 -1.9849
   11SAPS  C318 1460   2.765   1.618   8.169 -0.2243 -0.1551  0.2970
   11SAPS  H18X 1461   2.677   1.606   8.237  0.9292 -2.0113  1.5075
   11SAPS  H18Y 1462   2.731   1.693   8.095  2.1000  1.7577  1.1152
   11SAPS  H18Z 1463   2.853   1.660   8.222 -0.7612 -0.8258  1.7682
   12SAPS     N 1464   2.507   2.370   6.143 -0.1709 -0.5757  0.7903
   12SAPS   HN1 1465   2.482   2.427   6.226  4.2653  1.8954  0.5764
   12SAPS   HN2 1466   2.446   2.395   6.062  1.0255 -0.2324 -0.0193
   12SAPS   HN3 1467   2.496   2.269   6.164  3.0594 -1.0853  0.3235
   12SAPS   C12 1468   2.648   2.392   6.101 -0.2741  0.7116  0.1396
   12SAPS  H12A 1469   2.713   2.373   6.185 -1.3412  2.0023  1.2803
   12SAPS   C13 1470   2.695   2.291   5.992  0.0428  0.5496 -0.9935
   12SAPS  O13A 1471   2.618   2.197   5.958 -0.0502 -0.4729 -0.2734
   12SAPS  O13B 1472   2.824   2.286   5.976 -0.1284 -0.2544 -0.0309
   12SAPS   C11 1473   2.673   2.538   6.045 -0.4259  0.2069 -0.2715
   12SAPS  H11A 1474   2.633   2.548   5.941 -2.9005  1.4547  0.7601
   12SAPS  H11B 1475   2.779   2.562   6.025  0.0246 -0.3985  1.3900
   12SAPS     P 1476   2.575   2.780   6.099 -0.9754 -0.0817  0.0485
   12SAPS   O13 1477   2.532   2.786   5.960  0.7031  0.5091 -0.6408
   12SAPS   O14 1478   2.478   2.835   6.205 -1.2719  0.0526  0.5523
   12SAPS   O12 1479   2.612   2.630   6.136  0.3780 -0.2679  0.3459
   12SAPS   O11 1480   2.715   2.852   6.120 -0.3657  0.3036 -0.3154
   12SAPS    C1 1481   2.769   2.842   6.256  0.7973  0.2306 -0.2175
   12SAPS    HA 1482   2.786   2.943   6.300 -1.4114  1.1166 -1.2893
   12SAPS    HB 1483   2.695   2.809   6.332 -0.7035 -0.3648 -1.8948
   12SAPS    C2 1484   2.892   2.742   6.276  0.2561  0.1523 -0.4252
   12SAPS    HS 1485   2.882   2.664   6.198 -0.9979  0.2638 -0.3820
   12SAPS   O21 1486   2.902   2.698   6.412  0.1608  0.2985  0.4339
   12SAPS   C21 1487   2.944   2.571   6.421  0.3796 -0.1028 -0.3361
   12SAPS   O22 1488   2.945   2.495   6.327 -0.3908  0.1853 -0.6312
   12SAPS   C22 1489   3.006   2.543   6.557  0.0449 -0.2666 -0.6095
   12SAPS   H2R 1490   3.069   2.634   6.574 -0.2208 -0.5222  1.7828
   12SAPS   H2S 1491   2.927   2.547   6.635  1.7741 -0.9803  1.2232
   12SAPS    C3 1492   3.021   2.815   6.238 -1.0334  0.5016 -1.1762
   12SAPS    HX 1493   3.029   2.907   6.300 -2.9003 -0.2034  0.1309
   12SAPS    HY 1494   3.012   2.843   6.130  1.0724  1.2799 -1.1619
   12SAPS   O31 1495   3.140   2.733   6.265 -0.2588  0.1400  0.5839
   12SAPS   C31 1496   3.253   2.797   6.266  0.0638  0.6743 -0.3345
   12SAPS   O32 1497   3.266   2.919   6.238 -0.5157 -0.0400  0.4536
   12SAPS   C32 1498   3.362   2.711   6.326 -0.0845 -0.3848 -0.6500
   12SAPS   H2X 1499   3.391   2.651   6.238 -1.8073 -0.2336 -1.3382
   12SAPS   H2Y 1500   3.325   2.641   6.404  2.0520 -0.1839  0.5686
   12SAPS   C23 1501   3.088   2.410   6.566 -0.3770 -0.0227 -0.0280
   12SAPS   H3R 1502   3.155   2.407   6.654 -1.0571 -2.3418  0.4369
   12SAPS   H3S 1503   3.160   2.424   6.483 -2.7400 -1.9974 -2.4986
   12SAPS   C24 1504   2.999   2.291   6.569 -0.3609  0.3488 -0.0377
   12SAPS   H4R 1505   2.928   2.299   6.484  0.3144  0.6595 -0.5735
   12SAPS   H4S 1506   2.942   2.298   6.664  0.6882  1.7882  0.5039
   12SAPS   C25 1507   3.060   2.155   6.554 -0.6269  0.4109 -0.2582
   12SAPS   H5R 1508   3.115   2.135   6.460  1.0589 -0.5112  0.8974
   12SAPS   C26 1509   3.043   2.048   6.639  0.5165  0.2930  0.4618
   12SAPS   H6R 1510   3.085   1.952   6.605  2.1941  1.4237 -0.7792
   12SAPS   C27 1511   2.962   2.053   6.768 -0.4412  0.0145  0.0868
   12SAPS   H7R 1512   2.983   2.148   6.820  1.0421 -1.3755  2.1080
   12SAPS   H7S 1513   3.003   1.974   6.835 -1.2437  1.2971  2.1339
   12SAPS   C28 1514   2.818   2.034   6.748  0.6169 -0.0353 -0.5794
   12SAPS   H8R 1515   2.776   1.992   6.656 -0.9698  1.2181 -0.4615
   12SAPS   C29 1516   2.713   2.089   6.811  0.0359 -0.2723 -0.4629
   12SAPS   H9R 1517   2.614   2.069   6.766  0.0626 -0.5769 -0.3836
   12SAPS  C210 1518   2.717   2.177   6.938  0.1085  0.8853 -0.4097
   12SAPS  H10R 1519   2.673   2.278   6.923 -0.0935  1.1000  1.5442
   12SAPS  H10S 1520   2.826   2.183   6.955 -0.3318  0.3535  2.8549
   12SAPS  C211 1521   2.651   2.110   7.059  0.0630 -0.2413  0.1867
   12SAPS  H11R 1522   2.682   2.006   7.075  2.1324  0.4306  0.7625
   12SAPS  C212 1523   2.553   2.166   7.126 -0.2779  0.2215  0.2522
   12SAPS  H12R 1524   2.504   2.110   7.207  2.9450 -0.3618  1.8660
   12SAPS  C213 1525   2.496   2.297   7.096  0.3539  0.2649 -0.4344
   12SAPS  H13R 1526   2.485   2.302   6.986 -1.2878  1.5889 -0.2355
   12SAPS  H13S 1527   2.580   2.361   7.132 -0.9280  1.6683  0.1419
   12SAPS  C214 1528   2.369   2.328   7.160 -0.7481 -0.1772  0.1421
   12SAPS  H14R 1529   2.361   2.268   7.252  2.6013  0.2633  0.7716
   12SAPS  C215 1530   2.271   2.419   7.129 -0.5995 -0.7620 -0.1282
   12SAPS  H15R 1531   2.185   2.448   7.192  0.8327 -0.0915  1.5601
   12SAPS  C216 1532   2.279   2.509   7.007 -0.1299 -0.3208 -0.0537
   12SAPS  H16R 1533   2.210   2.488   6.923 -2.0547  0.2470  1.3414
   12SAPS  H16S 1534   2.372   2.477   6.955 -0.6786 -0.9607 -0.6503
   12SAPS  C217 1535   2.276   2.657   7.029  0.3562  0.1583 -0.6181
   12SAPS  H17R 1536   2.377   2.680   7.070 -1.5052  0.3332  4.1514
   12SAPS  H17S 1537   2.198   2.687   7.102  1.3156  1.2830 -0.0481
   12SAPS  C218 1538   2.257   2.736   6.887 -0.0004  0.2361 -0.9501
   12SAPS  H18R 1539   2.174   2.697   6.823 -0.4207 -0.0496 -0.2392
   12SAPS  H18S 1540   2.354   2.736   6.833  0.6294  2.1300  0.1442
   12SAPS  C219 1541   2.230   2.885   6.905 -0.0127 -0.8272 -0.4879
   12SAPS  H19R 1542   2.309   2.923   6.973 -0.6396 -1.7089  0.7469
   12SAPS  H19S 1543   2.136   2.899   6.962  0.0454 -0.0187 -0.5869
   12SAPS  C220 1544   2.229   2.951   6.770  1.0371 -0.0853  0.8767
   12SAPS  H20R 1545   2.217   3.059   6.792 -2.7707 -0.7877  2.7343
   12SAPS  H20S 1546   2.138   2.914   6.719  0.4138  0.6703  1.4351
   12SAPS  H20T 1547   2.306   2.921   6.696  0.6291 -0.1813  0.4865
   12SAPS   C33 1548   3.475   2.791   6.398  0.8737  0.1036 -0.0914
   12SAPS   H3X 1549   3.514   2.867   6.326  1.1219 -0.4275 -0.5183
   12SAPS   H3Y 1550   3.563   2.727   6.415  0.9552 -0.2824 -1.8186
   12SAPS   C34 1551   3.419   2.858   6.534  0.2271 -0.1801 -0.1133
   12SAPS   H4X 1552   3.308   2.852   6.535  0.3435 -2.9279 -0.3065
   12SAPS   H4Y 1553   3.452   2.963   6.520 -1.3493  0.2931 -0.3351
   12SAPS   C35 1554   3.470   2.797   6.664 -0.0162  0.5472  0.2532
   12SAPS   H5X 1555   3.573   2.836   6.677  0.1658  0.0343  0.3744
   12SAPS   H5Y 1556   3.478   2.686   6.657 -0.8082  0.4772  0.4722
   12SAPS   C36 1557   3.375   2.814   6.778  0.7072  0.2470 -0.5638
   12SAPS   H6X 1558   3.394   2.747   6.864  0.1000 -3.3254 -3.0771
   12SAPS   H6Y 1559   3.271   2.791   6.746  0.2549  0.9707  0.3844
   12SAPS   C37 1560   3.384   2.965   6.818 -0.3441  0.5178 -0.5350
   12SAPS   H7X 1561   3.350   3.029   6.733  1.1508  1.4119 -0.4675
   12SAPS   H7Y 1562   3.486   3.003   6.837 -1.4183  2.3223  1.9154
   12SAPS   C38 1563   3.292   3.000   6.941 -0.1274  0.2444 -0.7178
   12SAPS   H8X 1564   3.187   2.977   6.913 -0.1218 -0.0131 -0.5335
   12SAPS   H8Y 1565   3.304   3.110   6.951  2.7438 -0.0060 -1.1402
   12SAPS   C39 1566   3.327   2.934   7.075  0.0628 -1.0999  1.2445
   12SAPS   H9X 1567   3.429   2.974   7.094  0.7530 -1.6636 -1.0827
   12SAPS   H9Y 1568   3.329   2.823   7.081  2.0486 -1.1363  0.3923
   12SAPS  C310 1569   3.241   2.989   7.189 -0.0452  0.1299 -0.2543
   12SAPS  H10X 1570   3.136   2.958   7.169 -0.1501  0.4994 -0.2800
   12SAPS  H10Y 1571   3.248   3.099   7.202 -3.5464  0.4078 -0.1653
   12SAPS  C311 1572   3.289   2.929   7.323 -1.0581  0.2065  0.4127
   12SAPS  H11X 1573   3.399   2.917   7.335 -1.1683 -1.3928 -0.0089
   12SAPS  H11Y 1574   3.262   2.821   7.315  1.1246 -0.2341 -1.4137
   12SAPS  C312 1575   3.220   2.970   7.454  0.8218 -0.8038 -0.3520
   12SAPS  H12X 1576   3.111   2.948   7.456  0.8491 -0.9068  0.3363
   12SAPS  H12Y 1577   3.235   3.079   7.472 -1.0707 -0.3467 -1.4497
   12SAPS  C313 1578   3.274   2.899   7.578 -0.7579 -0.0098 -0.7206
   12SAPS  H13X 1579   3.382   2.913   7.599 -1.4222  0.9105  2.2708
   12SAPS  H13Y 1580   3.257   2.790   7.560 -0.2445 -0.3003  0.4896
   12SAPS  C314 1581   3.199   2.943   7.712 -0.0872 -0.2222  0.3417
   12SAPS  H14X 1582   3.097   2.899   7.721 -0.0885 -0.3727 -0.3426
   12SAPS  H14Y 1583   3.188   3.053   7.717 -0.2361 -0.2560  0.7459
   12SAPS  C315 1584   3.289   2.897   7.834 -0.1298  0.4008 -0.5655
   12SAPS  H15X 1585   3.237   2.951   7.915 -0.1169  0.9416 -0.9120
   12SAPS  H15Y 1586   3.395   2.929   7.822  0.9697 -2.1410  1.9241
   12SAPS  C316 1587   3.296   2.740   7.862 -0.2319  0.1812 -0.1153
   12SAPS  H16X 1588   3.352   2.694   7.777  0.1441 -0.1147  0.2915
   12SAPS  H16Y 1589   3.192   2.701   7.853 -0.0564 -0.0831 -1.1072
   12SAPS  C317 1590   3.366   2.693   7.994  0.0082  0.3398 -0.2356
   12SAPS  H17X 1591   3.339   2.585   8.005  0.2464  0.3426  0.3902
   12SAPS  H17Y 1592   3.305   2.738   8.075  0.3305  0.3871 -0.0184
   12SAPS  C318 1593   3.506   2.737   8.007  0.0863 -0.1071 -0.3074
   12SAPS  H18X 1594   3.566   2.713   7.916 -0.2681 -4.0451  0.3879
   12SAPS  H18Y 1595   3.551   2.683   8.094 -1.1340 -0.2571  0.2322
   12SAPS  H18Z 1596   3.515   2.846   8.025 -5.0687  0.4961 -0.8409
   13SAPS     N 1597   4.425   6.818   6.222 -0.4286 -0.2748 -0.0524
   13SAPS   HN1 1598   4.444   6.919   6.234  1.2735 -0.4277 -1.2145
   13SAPS   HN2 1599   4.517   6.768   6.228 -0.2337  0.0541 -0.2628
   13SAPS   HN3 1600   4.377   6.802   6.131 -2.8153 -1.3622  1.3711
   13SAPS   C12 1601   4.344   6.756   6.322 -0.2132  0.1568 -0.0132
   13SAPS  H12A 1602   4.338   6.649   6.305 -0.0828  0.0474  0.5898
   13SAPS   C13 1603   4.419   6.756   6.465  0.7191  0.8538  0.2033
   13SAPS  O13A 1604   4.537   6.805   6.475  0.0900  0.2219  0.1807
   13SAPS  O13B 1605   4.354   6.725   6.566 -0.2192 -0.2688 -0.0071
   13SAPS   C11 1606   4.212   6.832   6.334 -0.0315  0.0219  0.3801
   13SAPS  H11A 1607   4.226   6.938   6.367 -2.0570 -0.1281  1.7993
   13SAPS  H11B 1608   4.146   6.790   6.412 -0.7864 -0.1923 -0.3718
   13SAPS     P 1609   4.006   6.774   6.176  0.3054 -0.0311 -0.0129
   13SAPS   O13 1610   3.977   6.809   6.034  0.5343 -0.2453 -0.2257
   13SAPS   O14 1611   3.988   6.634   6.222  0.3475 -0.1464 -0.1285
   13SAPS   O12 1612   4.151   6.828   6.201  0.4216 -0.6497  0.3143
   13SAPS   O11 1613   3.918   6.865   6.267 -0.4327  0.5022 -0.2603
   13SAPS    C1 1614   3.865   6.821   6.391 -0.1328 -0.4719  0.2734
   13SAPS    HA 1615   3.887   6.714   6.413  0.5989  0.1365  2.6653
   13SAPS    HB 1616   3.900   6.886   6.474  1.3056  0.3451 -0.9367
   13SAPS    C2 1617   3.716   6.845   6.397  0.5776 -1.0018  0.3658
   13SAPS    HS 1618   3.669   6.811   6.302 -1.4084 -0.0586  0.9937
   13SAPS   O21 1619   3.694   6.985   6.429 -0.0376 -0.1278  0.5765
   13SAPS   C21 1620   3.571   7.024   6.422 -0.3333  0.2746  0.3354
   13SAPS   O22 1621   3.474   6.957   6.389 -0.0893 -0.3622  0.0116
   13SAPS   C22 1622   3.559   7.166   6.461 -0.3057  1.3549 -0.6198
   13SAPS   H2R 1623   3.647   7.212   6.411  0.6297  0.2909  0.0292
   13SAPS   H2S 1624   3.467   7.218   6.426 -0.5350  0.5838 -1.1583
   13SAPS    C3 1625   3.663   6.748   6.507  1.1067 -0.2954 -0.4337
   13SAPS    HX 1626   3.682   6.645   6.469  2.1169  0.6807 -2.6499
   13SAPS    HY 1627   3.554   6.766   6.508  1.2772  0.7258  0.9392
   13SAPS   O31 1628   3.705   6.769   6.641 -0.0008  0.0303  0.0102
   13SAPS   C31 1629   3.787   6.673   6.691  0.6117  0.5778 -0.4924
   13SAPS   O32 1630   3.822   6.570   6.629  0.2815 -0.1477 -0.5997
   13SAPS   C32 1631   3.811   6.704   6.836  0.3288  0.2690  0.2801
   13SAPS   H2X 1632   3.717   6.690   6.894  0.0985  3.3617  0.7473
   13SAPS   H2Y 1633   3.841   6.810   6.847  1.3970 -0.2567  2.6354
   13SAPS   C23 1634   3.575   7.184   6.616  0.2268  0.5537  0.0446
   13SAPS   H3R 1635   3.628   7.281   6.628 -0.3281  1.1432 -2.1576
   13SAPS   H3S 1636   3.649   7.110   6.654  1.0779  0.9154 -0.9002
   13SAPS   C24 1637   3.453   7.184   6.699  0.4935 -0.6728 -0.3431
   13SAPS   H4R 1638   3.394   7.268   6.656 -2.1669 -1.5095  1.5189
   13SAPS   H4S 1639   3.474   7.201   6.806  2.1642 -1.5313 -0.5316
   13SAPS   C25 1640   3.376   7.058   6.675 -0.8225 -0.0170  0.5319
   13SAPS   H5R 1641   3.356   7.029   6.570 -1.1263  1.4732  0.1653
   13SAPS   C26 1642   3.342   6.970   6.769 -0.7321 -0.2171  0.2208
   13SAPS   H6R 1643   3.295   6.873   6.746  2.9270 -3.0457  3.8756
   13SAPS   C27 1644   3.376   6.978   6.909  0.2546 -0.7501 -0.2836
   13SAPS   H7R 1645   3.301   6.926   6.973  1.3220  0.9082  2.4380
   13SAPS   H7S 1646   3.376   7.086   6.937  0.5119 -0.9971  0.7222
   13SAPS   C28 1647   3.504   6.920   6.956 -0.1590 -0.3550  0.1882
   13SAPS   H8R 1648   3.565   6.856   6.890  0.1004 -1.3475  1.3648
   13SAPS   C29 1649   3.553   6.915   7.079 -0.1009 -0.7217  0.1215
   13SAPS   H9R 1650   3.648   6.862   7.098  1.0735  1.6516  1.1358
   13SAPS  C210 1651   3.477   6.973   7.194 -0.0857 -0.1374 -0.1418
   13SAPS  H10R 1652   3.436   6.892   7.257  1.9193 -0.6183  0.5944
   13SAPS  H10S 1653   3.388   7.032   7.164 -0.3084  0.1172  0.9801
   13SAPS  C211 1654   3.576   7.061   7.274 -0.7640 -0.2291 -0.2000
   13SAPS  H11R 1655   3.655   7.110   7.215 -2.1248  0.3728 -1.5271
   13SAPS  C212 1656   3.587   7.082   7.413  0.4211  0.2105  0.0123
   13SAPS  H12R 1657   3.664   7.148   7.455 -0.7808  1.3012  0.5443
   13SAPS  C213 1658   3.502   7.002   7.508 -0.0643  0.3883 -0.8355
   13SAPS  H13R 1659   3.557   6.915   7.551  0.4141  1.4974  0.8711
   13SAPS  H13S 1660   3.411   6.971   7.452 -0.5156 -0.1977  0.2039
   13SAPS  C214 1661   3.441   7.096   7.619 -0.7979  0.0522 -0.2958
   13SAPS  H14R 1662   3.346   7.147   7.598 -1.9507 -1.5034  0.9942
   13SAPS  C215 1663   3.506   7.131   7.732  0.3430 -0.2538  0.0962
   13SAPS  H15R 1664   3.457   7.196   7.806  0.3165 -2.0617  1.7090
   13SAPS  C216 1665   3.643   7.074   7.765 -0.3493 -0.3717 -0.2683
   13SAPS  H16R 1666   3.707   7.150   7.816 -1.4721 -0.9943  2.1543
   13SAPS  H16S 1667   3.696   7.040   7.674  0.8353  0.4461  0.0988
   13SAPS  C217 1668   3.627   6.954   7.861  0.1538 -0.9176 -0.0523
   13SAPS  H17R 1669   3.718   6.890   7.865  2.0936  1.6159 -1.3288
   13SAPS  H17S 1670   3.538   6.892   7.835 -1.8421  0.5965  2.9420
   13SAPS  C218 1671   3.596   7.002   8.003 -0.4745 -0.1461 -0.6797
   13SAPS  H18R 1672   3.592   7.113   7.994  1.5358  0.0126  0.1729
   13SAPS  H18S 1673   3.679   6.963   8.065 -0.4908  0.5618 -0.2040
   13SAPS  C219 1674   3.457   6.949   8.051 -0.4635 -0.9761 -0.4740
   13SAPS  H19R 1675   3.455   6.838   8.051 -0.7348 -0.9709  0.1782
   13SAPS  H19S 1676   3.386   6.986   7.974 -0.3954 -1.7584 -0.9160
   13SAPS  C220 1677   3.424   7.008   8.190  0.2055 -0.5789  0.1208
   13SAPS  H20R 1678   3.326   6.965   8.221 -0.1106 -0.1651 -0.2880
   13SAPS  H20S 1679   3.394   7.115   8.182  1.6804 -0.1578  0.1746
   13SAPS  H20T 1680   3.508   6.988   8.259  0.3642 -1.1580 -0.2373
   13SAPS   C33 1681   3.907   6.606   6.898 -0.4153 -0.4336  0.1298
   13SAPS   H3X 1682   4.010   6.620   6.860  0.1659  0.8194  2.1155
   13SAPS   H3Y 1683   3.872   6.502   6.882  0.5755 -1.1647  2.4927
   13SAPS   C34 1684   3.922   6.619   7.055 -0.6762  0.4129  0.6080
   13SAPS   H4X 1685   4.012   6.567   7.092 -0.4365 -0.3839 -1.0654
   13SAPS   H4Y 1686   3.825   6.586   7.098 -1.7301 -2.0282 -3.4317
   13SAPS   C35 1687   3.941   6.766   7.111 -0.4254  1.0001  0.5732
   13SAPS   H5X 1688   3.846   6.819   7.093 -1.4067 -0.9424 -0.1597
   13SAPS   H5Y 1689   4.014   6.826   7.052  2.2512 -1.6966  1.0255
   13SAPS   C36 1690   3.984   6.762   7.261 -0.7138  0.0614 -0.0529
   13SAPS   H6X 1691   4.083   6.713   7.260 -1.4052 -1.3900  0.5652
   13SAPS   H6Y 1692   3.925   6.687   7.317  0.9492 -2.3804 -1.4987
   13SAPS   C37 1693   3.991   6.893   7.328  0.1516 -0.2467  0.3723
   13SAPS   H7X 1694   3.892   6.931   7.362 -0.6730 -1.3926 -0.7307
   13SAPS   H7Y 1695   4.036   6.960   7.251  1.2333 -3.4354 -1.8400
   13SAPS   C38 1696   4.088   6.901   7.448 -1.0451 -0.1269  0.3833
   13SAPS   H8X 1697   4.107   7.008   7.469 -0.2672 -0.1032 -0.4181
   13SAPS   H8Y 1698   4.186   6.861   7.413 -1.1326 -0.4830  0.5391
   13SAPS   C39 1699   4.033   6.833   7.575  0.1125  0.2163 -0.0097
   13SAPS   H9X 1700   4.047   6.723   7.569  0.8033  0.3794 -1.6165
   13SAPS   H9Y 1701   3.925   6.854   7.593  0.1950 -0.0359  0.7937
   13SAPS  C310 1702   4.114   6.893   7.698 -0.0135  0.4380 -0.1208
   13SAPS  H10X 1703   4.108   7.003   7.686 -2.2993  0.5661  1.8372
   13SAPS  H10Y 1704   4.219   6.858   7.685  0.9160  3.0422 -0.0203
   13SAPS  C311 1705   4.067   6.862   7.835  0.5651  0.0442  0.5378
   13SAPS  H11X 1706   4.063   6.751   7.843  0.5396  0.0315  0.3518
   13SAPS  H11Y 1707   3.964   6.898   7.853  0.7241  0.4312  0.6758
   13SAPS  C312 1708   4.158   6.921   7.941 -0.1040 -0.2176  0.0751
   13SAPS  H12X 1709   4.156   7.032   7.940 -1.1178 -0.2062  2.0262
   13SAPS  H12Y 1710   4.266   6.908   7.916 -0.5554 -1.5537 -1.3037
   13SAPS  C313 1711   4.136   6.866   8.085 -0.1927  0.1769 -0.2057
   13SAPS  H13X 1712   4.166   6.760   8.085  0.4778  0.3657  0.1472
   13SAPS  H13Y 1713   4.029   6.876   8.114 -0.0372 -1.3416  0.9178
   13SAPS  C314 1714   4.223   6.938   8.194  0.3261 -0.2536  0.2211
   13SAPS  H14X 1715   4.185   6.898   8.291 -0.3130  1.7728  0.8408
   13SAPS  H14Y 1716   4.200   7.046   8.195 -0.5744 -0.4371  2.4733
   13SAPS  C315 1717   4.369   6.913   8.183 -0.4502  0.8319  0.5323
   13SAPS  H15X 1718   4.391   6.938   8.077  1.4422 -0.5748  0.5632
   13SAPS  H15Y 1719   4.399   6.808   8.201  1.0624  1.5595  2.4615
   13SAPS  C316 1720   4.452   7.008   8.273 -0.3920  0.5394 -0.5261
   13SAPS  H16X 1721   4.446   7.112   8.237 -1.9861  0.7549  0.2992
   13SAPS  H16Y 1722   4.558   6.978   8.264 -0.4407  0.3754 -0.5681
   13SAPS  C317 1723   4.419   7.003   8.423  0.3861  0.3170 -0.0332
   13SAPS  H17X 1724   4.486   6.944   8.489  0.4521  0.1939 -0.2085
   13SAPS  H17Y 1725   4.321   6.952   8.440  0.9205 -1.9149 -3.1358
   13SAPS  C318 1726   4.410   7.142   8.486 -0.1120  0.2697 -0.3944
   13SAPS  H18X 1727   4.372   7.131   8.590 -3.1743  0.5622 -1.4624
   13SAPS  H18Y 1728   4.340   7.203   8.426  0.4057  2.0717  0.7894
   13SAPS  H18Z 1729   4.507   7.197   8.486 -0.4928  0.9579  0.3395
   14SAPS     N 1730   3.723   2.404   5.661  0.5183  0.0793 -0.1080
   14SAPS   HN1 1731   3.733   2.506   5.647  2.0249 -0.1329 -0.6385
   14SAPS   HN2 1732   3.734   2.346   5.576 -2.6009  0.4763 -0.8469
   14SAPS   HN3 1733   3.627   2.388   5.700 -0.4403 -0.2416 -2.5110
   14SAPS   C12 1734   3.824   2.359   5.759  0.5234  0.5453 -0.8553
   14SAPS  H12A 1735   3.836   2.252   5.755  3.1642  0.7224  1.0607
   14SAPS   C13 1736   3.973   2.404   5.724  0.0903 -0.6566 -0.3019
   14SAPS  O13A 1737   3.987   2.445   5.603 -0.2162  0.4097 -0.1842
   14SAPS  O13B 1738   4.063   2.332   5.770 -0.3893 -0.7331 -1.0950
   14SAPS   C11 1739   3.800   2.414   5.904 -0.3613 -0.0625 -0.6498
   14SAPS  H11A 1740   3.796   2.524   5.894  0.2305 -0.1076 -1.4776
   14SAPS  H11B 1741   3.883   2.376   5.968 -0.6928 -0.2811 -0.3516
   14SAPS     P 1742   3.597   2.454   6.055 -0.1606 -0.3275 -0.1629
   14SAPS   O13 1743   3.570   2.586   5.997 -0.4608  0.7444  0.3049
   14SAPS   O14 1744   3.479   2.383   6.111 -0.4412  0.0265  0.0203
   14SAPS   O12 1745   3.671   2.366   5.948 -0.2383 -0.4228  0.0920
   14SAPS   O11 1746   3.716   2.472   6.161 -0.2666  0.1969  0.2946
   14SAPS    C1 1747   3.781   2.352   6.223  0.3183  0.1124  0.6969
   14SAPS    HA 1748   3.768   2.274   6.145 -1.0517  1.5700 -0.5862
   14SAPS    HB 1749   3.889   2.377   6.233 -0.1967  1.5407  2.9296
   14SAPS    C2 1750   3.714   2.313   6.351  0.7100 -0.0178  0.1140
   14SAPS    HS 1751   3.604   2.331   6.350  0.5877 -0.7956 -0.2760
   14SAPS   O21 1752   3.756   2.405   6.456 -0.0817 -0.2491 -0.0515
   14SAPS   C21 1753   3.668   2.436   6.558  0.1698  0.4617  0.8848
   14SAPS   O22 1754   3.550   2.432   6.543 -0.0066  0.1188 -0.7164
   14SAPS   C22 1755   3.730   2.497   6.685  0.1065  0.8291  0.1565
   14SAPS   H2R 1756   3.800   2.418   6.718 -0.7338 -0.4358 -1.0399
   14SAPS   H2S 1757   3.794   2.582   6.653  0.4205  0.5140 -0.0546
   14SAPS    C3 1758   3.751   2.171   6.399  0.3160 -0.1266  0.2510
   14SAPS    HX 1759   3.857   2.162   6.431 -0.4092 -2.7887  2.0262
   14SAPS    HY 1760   3.726   2.101   6.317  1.2622  1.4845 -1.4644
   14SAPS   O31 1761   3.664   2.148   6.514 -0.7792 -0.2477 -0.6287
   14SAPS   C31 1762   3.550   2.094   6.488 -0.4444  0.7105  0.3829
   14SAPS   O32 1763   3.503   2.067   6.377  0.5403  0.4065 -0.0716
   14SAPS   C32 1764   3.469   2.072   6.614  0.1508 -0.1197 -0.3001
   14SAPS   H2X 1765   3.362   2.064   6.587 -0.4765 -1.2724  2.3558
   14SAPS   H2Y 1766   3.475   2.165   6.673  1.1846 -0.2397 -0.1946
   14SAPS   C23 1767   3.621   2.522   6.791  1.0619 -0.2179 -0.4771
   14SAPS   H3R 1768   3.518   2.521   6.749  0.8251  0.5539  0.0865
   14SAPS   H3S 1769   3.624   2.629   6.822 -3.6014 -0.0406 -0.2258
   14SAPS   C24 1770   3.614   2.430   6.913 -0.1614  0.0510 -0.3604
   14SAPS   H4R 1771   3.601   2.329   6.870  0.5700  1.1964 -3.3821
   14SAPS   H4S 1772   3.523   2.460   6.970  1.6171  1.1239  2.0126
   14SAPS   C25 1773   3.738   2.454   7.002 -0.0628 -0.1913 -0.3945
   14SAPS   H5R 1774   3.835   2.417   6.966  0.2175  1.2258 -1.1581
   14SAPS   C26 1775   3.736   2.519   7.121  0.0102 -0.0045  0.0828
   14SAPS   H6R 1776   3.833   2.538   7.169 -0.3625  1.9274  0.1125
   14SAPS   C27 1777   3.613   2.572   7.194 -0.3074 -0.0979  0.3904
   14SAPS   H7R 1778   3.515   2.530   7.162 -1.5613  1.2627  2.3846
   14SAPS   H7S 1779   3.600   2.681   7.175  1.0163  0.3962  2.2389
   14SAPS   C28 1780   3.631   2.568   7.345  0.4821 -0.4380  0.1456
   14SAPS   H8R 1781   3.703   2.642   7.383  0.3501  0.7212 -1.7944
   14SAPS   C29 1782   3.566   2.472   7.427 -0.6263 -0.5135 -0.0057
   14SAPS   H9R 1783   3.582   2.482   7.535 -0.3461  1.1911 -0.1958
   14SAPS  C210 1784   3.463   2.364   7.389 -0.9110  0.2406  0.9137
   14SAPS  H10R 1785   3.456   2.355   7.279  2.1811  0.5916  0.6330
   14SAPS  H10S 1786   3.364   2.389   7.433 -0.8526  0.1693  1.0876
   14SAPS  C211 1787   3.520   2.236   7.445 -0.5322  0.0502 -0.0118
   14SAPS  H11R 1788   3.592   2.187   7.378  0.4258 -0.7684  1.6028
   14SAPS  C212 1789   3.505   2.183   7.569 -0.9403 -0.3818 -0.3702
   14SAPS  H12R 1790   3.567   2.093   7.581  0.6594  0.5918 -1.0533
   14SAPS  C213 1791   3.427   2.235   7.690  0.2202  0.4703 -0.2682
   14SAPS  H13R 1792   3.396   2.339   7.668  1.5056  0.9871  0.3079
   14SAPS  H13S 1793   3.498   2.245   7.775  1.4384 -2.0078 -0.9403
   14SAPS  C214 1794   3.305   2.148   7.718  0.6096 -0.3794 -0.1674
   14SAPS  H14R 1795   3.268   2.086   7.636  0.8213 -1.1340  0.3062
   14SAPS  C215 1796   3.230   2.161   7.826  0.5779  0.4329 -0.2495
   14SAPS  H15R 1797   3.131   2.113   7.827  1.5782 -1.6431 -0.0142
   14SAPS  C216 1798   3.257   2.248   7.947 -0.0354  0.1357 -0.4224
   14SAPS  H16R 1799   3.208   2.347   7.935 -0.5221 -0.3234 -2.3102
   14SAPS  H16S 1800   3.366   2.269   7.962  0.1030 -1.3855  0.8745
   14SAPS  C217 1801   3.224   2.164   8.073 -0.4415 -0.1511 -0.7696
   14SAPS  H17R 1802   3.310   2.095   8.093 -0.5580  0.2252  1.1486
   14SAPS  H17S 1803   3.130   2.105   8.069  0.5699 -2.0068  1.4865
   14SAPS  C218 1804   3.213   2.255   8.203  1.1194  0.6054 -0.2260
   14SAPS  H18R 1805   3.307   2.303   8.237  0.4487  1.4387  0.5034
   14SAPS  H18S 1806   3.175   2.184   8.279 -0.7337 -1.2029 -2.7755
   14SAPS  C219 1807   3.119   2.381   8.188  0.3776 -0.6460 -0.0158
   14SAPS  H19R 1808   3.025   2.333   8.155 -0.8007  0.5208  1.6139
   14SAPS  H19S 1809   3.139   2.461   8.113 -1.0437 -0.2932 -0.0309
   14SAPS  C220 1810   3.090   2.452   8.319 -0.1565 -0.3896  0.5342
   14SAPS  H20R 1811   3.062   2.378   8.397 -1.8659  0.3059  0.6166
   14SAPS  H20S 1812   3.004   2.521   8.305 -0.0626 -0.3491  0.1710
   14SAPS  H20T 1813   3.175   2.513   8.356  0.0272  0.3673 -1.0923
   14SAPS   C33 1814   3.506   1.946   6.699 -0.6425  0.1004 -0.4258
   14SAPS   H3X 1815   3.613   1.938   6.726 -0.5167  0.6770 -0.7455
   14SAPS   H3Y 1816   3.484   1.859   6.634 -1.8128  0.0087  0.0814
   14SAPS   C34 1817   3.426   1.939   6.834  0.7473 -0.6098  0.1057
   14SAPS   H4X 1818   3.440   1.836   6.873 -0.2343 -1.6541 -2.2638
   14SAPS   H4Y 1819   3.317   1.943   6.814  0.6865 -2.1632  0.0800
   14SAPS   C35 1820   3.478   2.050   6.931 -1.5424 -0.3006 -0.0579
   14SAPS   H5X 1821   3.460   2.153   6.893  1.1677  1.6471  3.5928
   14SAPS   H5Y 1822   3.589   2.055   6.934 -1.5439 -0.6341  0.6100
   14SAPS   C36 1823   3.410   2.067   7.071  0.8724  0.3241  0.6452
   14SAPS   H6X 1824   3.461   2.146   7.131  0.8119  1.3722 -0.6669
   14SAPS   H6Y 1825   3.444   1.974   7.123  0.9915  1.9351  3.5774
   14SAPS   C37 1826   3.261   2.064   7.071 -0.2005 -0.1862 -0.1881
   14SAPS   H7X 1827   3.205   1.983   7.019 -2.0765  0.3444  0.9737
   14SAPS   H7Y 1828   3.235   2.160   7.022  0.2983  0.8639  1.5840
   14SAPS   C38 1829   3.200   2.095   7.209  0.8274  0.9500  0.3132
   14SAPS   H8X 1830   3.216   2.203   7.228  1.1513  0.9694 -0.0533
   14SAPS   H8Y 1831   3.253   2.030   7.282 -0.1139  0.6943  0.7755
   14SAPS   C39 1832   3.047   2.064   7.213 -0.5231  0.4985  0.4823
   14SAPS   H9X 1833   3.019   1.962   7.181  1.4651 -0.3905  1.4628
   14SAPS   H9Y 1834   2.994   2.142   7.154 -0.3536  1.1471  1.1776
   14SAPS  C310 1835   2.995   2.061   7.358 -0.2812 -0.1304  1.1742
   14SAPS  H10X 1836   3.019   2.149   7.421  1.3221  0.4688 -0.2409
   14SAPS  H10Y 1837   3.054   1.982   7.410  0.1527 -1.0264 -0.6223
   14SAPS  C311 1838   2.852   2.010   7.377 -0.2631 -0.2422  0.7553
   14SAPS  H11X 1839   2.833   1.910   7.335 -0.3227 -1.1775  2.9158
   14SAPS  H11Y 1840   2.784   2.080   7.324  0.2413  1.2412  2.0039
   14SAPS  C312 1841   2.818   1.996   7.527 -0.1312  0.1053  0.2005
   14SAPS  H12X 1842   2.851   2.091   7.574  0.5001  0.9005 -1.7820
   14SAPS  H12Y 1843   2.878   1.912   7.567 -1.3588 -0.5119  0.7727
   14SAPS  C313 1844   2.674   1.947   7.541  0.9233  0.7322  0.7909
   14SAPS  H13X 1845   2.671   1.843   7.502  2.3417  0.0026  2.5386
   14SAPS  H13Y 1846   2.593   2.000   7.487  1.8393  1.1430 -0.2100
   14SAPS  C314 1847   2.636   1.925   7.695 -0.0979  0.0644 -0.1858
   14SAPS  H14X 1848   2.726   1.903   7.756 -0.7054  2.0693  1.4776
   14SAPS  H14Y 1849   2.554   1.851   7.713  0.6754 -0.7796 -0.0888
   14SAPS  C315 1850   2.566   2.056   7.752  0.1104  0.4594 -0.7871
   14SAPS  H15X 1851   2.487   2.085   7.680 -2.0247  0.5507  1.5284
   14SAPS  H15Y 1852   2.639   2.139   7.763 -1.2037  1.4113  1.0182
   14SAPS  C316 1853   2.493   2.025   7.889  0.0852  0.3527 -0.0786
   14SAPS  H16X 1854   2.422   1.940   7.876 -0.6382  0.9474  0.0084
   14SAPS  H16Y 1855   2.437   2.116   7.915  0.1563 -0.7911  4.4006
   14SAPS  C317 1856   2.580   1.983   8.013 -0.6591 -0.0522 -0.3227
   14SAPS  H17X 1857   2.683   2.010   7.978 -0.8665  0.0901 -0.8272
   14SAPS  H17Y 1858   2.582   1.872   8.010  0.4309 -0.0576  0.1559
   14SAPS  C318 1859   2.543   2.027   8.152 -0.8268 -0.2368 -1.0682
   14SAPS  H18X 1860   2.605   1.978   8.231 -0.5388  1.7172 -0.0551
   14SAPS  H18Y 1861   2.438   2.019   8.187  0.2192 -0.5492  2.1579
   14SAPS  H18Z 1862   2.571   2.134   8.160  0.2271 -0.6807  2.1804
   15SAPS     N 1863   4.284   1.397   5.730  0.3171 -0.4632 -0.4878
   15SAPS   HN1 1864   4.358   1.470   5.728 -1.7531  1.8314  2.0586
   15SAPS   HN2 1865   4.305   1.351   5.640  2.2070 -0.0046 -0.3114
   15SAPS   HN3 1866   4.189   1.440   5.726  0.8786  0.9615  0.8513
   15SAPS   C12 1867   4.308   1.315   5.854  0.1269 -0.7628 -0.6013
   15SAPS  H12A 1868   4.222   1.251   5.858 -1.5566  1.5503  4.1402
   15SAPS   C13 1869   4.447   1.237   5.846 -0.0350 -0.4055 -0.0278
   15SAPS  O13A 1870   4.509   1.265   5.748 -0.8466 -0.1129 -0.1533
   15SAPS  O13B 1871   4.487   1.152   5.927  0.1283  0.4434 -0.3991
   15SAPS   C11 1872   4.299   1.397   5.996 -0.1185 -0.5269 -0.1292
   15SAPS  H11A 1873   4.379   1.473   5.987 -1.7254  0.9972 -2.2480
   15SAPS  H11B 1874   4.327   1.337   6.085 -0.9638  0.7637  1.0314
   15SAPS     P 1875   4.153   1.560   6.145  0.2012 -0.0434  0.1541
   15SAPS   O13 1876   4.250   1.673   6.136 -0.3131 -0.0269  0.2214
   15SAPS   O14 1877   4.014   1.608   6.144 -0.2723 -0.3908 -0.0607
   15SAPS   O12 1878   4.176   1.464   6.026  0.0333  0.3789  0.7713
   15SAPS   O11 1879   4.187   1.463   6.272 -0.4717  0.8466 -0.2086
   15SAPS    C1 1880   4.085   1.386   6.340 -0.1947 -0.0861  0.0488
   15SAPS    HA 1881   4.039   1.324   6.261 -0.2023 -0.9543  0.7328
   15SAPS    HB 1882   4.138   1.313   6.405 -0.5236 -0.5492 -0.2055
   15SAPS    C2 1883   3.970   1.459   6.418  0.3759 -0.7398  0.1400
   15SAPS    HS 1884   3.886   1.493   6.355  0.0675  0.3413  1.1241
   15SAPS   O21 1885   4.023   1.570   6.491  0.2359  0.1715 -0.1271
   15SAPS   C21 1886   3.933   1.665   6.521 -0.5283  0.0714 -0.2110
   15SAPS   O22 1887   3.816   1.668   6.486  0.5080 -0.5169 -0.2594
   15SAPS   C22 1888   3.995   1.767   6.618 -0.7499 -0.6621 -0.1367
   15SAPS   H2R 1889   4.043   1.698   6.691  2.9752 -0.0806 -1.9028
   15SAPS   H2S 1890   4.076   1.813   6.557 -2.0088  2.1368  0.2389
   15SAPS    C3 1891   3.913   1.351   6.517 -0.3292 -0.0826  0.7511
   15SAPS    HX 1892   3.977   1.328   6.604 -0.2988 -3.4022 -0.0784
   15SAPS    HY 1893   3.907   1.260   6.454  3.1581 -0.2284  0.5372
   15SAPS   O31 1894   3.788   1.397   6.559  0.0879  0.4936 -0.2488
   15SAPS   C31 1895   3.710   1.304   6.609 -0.0089 -0.2241 -0.0615
   15SAPS   O32 1896   3.750   1.190   6.628  0.1114  0.4271 -0.0059
   15SAPS   C32 1897   3.567   1.362   6.641  0.1025 -0.2602  0.7944
   15SAPS   H2X 1898   3.516   1.281   6.697  1.5026  0.2166  2.8564
   15SAPS   H2Y 1899   3.518   1.374   6.542 -1.7195  0.7191  1.7879
   15SAPS   C23 1900   3.893   1.863   6.682  0.0390  0.2167 -0.4065
   15SAPS   H3R 1901   3.816   1.813   6.745  0.4677  0.2774  0.1707
   15SAPS   H3S 1902   3.842   1.910   6.595 -3.9395 -2.5379  0.3048
   15SAPS   C24 1903   3.959   1.962   6.773  0.3650  0.3021 -0.5210
   15SAPS   H4R 1904   3.885   2.031   6.819  0.0081 -0.1615 -0.4042
   15SAPS   H4S 1905   4.022   2.022   6.704 -0.4335  0.5779 -1.0059
   15SAPS   C25 1906   4.047   1.908   6.882  0.2883  0.1332 -0.4119
   15SAPS   H5R 1907   4.153   1.904   6.855  0.3734 -0.9095  0.0248
   15SAPS   C26 1908   4.015   1.877   7.008 -0.3524  0.7641 -0.1642
   15SAPS   H6R 1909   4.094   1.840   7.075  1.5378  2.9467 -1.1122
   15SAPS   C27 1910   3.883   1.877   7.081  0.6711  0.5205 -0.4832
   15SAPS   H7R 1911   3.867   1.779   7.129 -1.0761  1.4191  0.8453
   15SAPS   H7S 1912   3.795   1.886   7.013  0.1140 -1.4517 -0.0331
   15SAPS   C28 1913   3.869   1.994   7.178  1.0935 -0.0348  0.1792
   15SAPS   H8R 1914   3.869   2.097   7.140 -1.6781  0.7958  2.3063
   15SAPS   C29 1915   3.854   1.983   7.311  0.0611 -0.5515 -0.0032
   15SAPS   H9R 1916   3.847   2.081   7.361 -1.3623 -1.0055  0.7259
   15SAPS  C210 1917   3.851   1.864   7.400  0.5798 -0.0139 -0.7666
   15SAPS  H10R 1918   3.878   1.771   7.346  2.7782  0.7618 -1.0604
   15SAPS  H10S 1919   3.745   1.849   7.427  0.0206  3.0339 -1.1196
   15SAPS  C211 1920   3.942   1.872   7.525 -0.3434 -0.3215  0.3477
   15SAPS  H11R 1921   4.048   1.896   7.507 -0.7746  1.7039  0.4818
   15SAPS  C212 1922   3.909   1.881   7.655 -0.3881  0.4302  0.0078
   15SAPS  H12R 1923   3.988   1.902   7.729  1.8460  1.6551 -2.6436
   15SAPS  C213 1924   3.766   1.881   7.710 -0.5265  0.5612  0.6955
   15SAPS  H13R 1925   3.756   1.790   7.773  0.6483  0.8125  1.2553
   15SAPS  H13S 1926   3.697   1.881   7.623 -0.4177 -3.5903  0.5162
   15SAPS  C214 1927   3.728   2.003   7.794 -0.7261  0.4450  0.7544
   15SAPS  H14R 1928   3.785   2.094   7.770 -1.1931  0.4724 -0.2770
   15SAPS  C215 1929   3.649   2.007   7.905  0.0877 -0.6288  0.1868
   15SAPS  H15R 1930   3.660   2.096   7.969 -2.2224  0.2475 -0.6216
   15SAPS  C216 1931   3.578   1.893   7.959  0.3752  0.1606 -0.3162
   15SAPS  H16R 1932   3.547   1.832   7.872  2.1340  0.5477 -1.2455
   15SAPS  H16S 1933   3.477   1.910   8.001  1.1764  0.2892  1.6137
   15SAPS  C217 1934   3.638   1.793   8.070  0.1725 -0.0276 -0.2443
   15SAPS  H17R 1935   3.708   1.720   8.023 -1.0796 -1.1292 -0.4204
   15SAPS  H17S 1936   3.559   1.730   8.117  0.3006 -1.6746 -2.1454
   15SAPS  C218 1937   3.713   1.868   8.177  0.0727  0.6941 -0.2103
   15SAPS  H18R 1938   3.803   1.929   8.153  0.6987 -0.9078 -2.0890
   15SAPS  H18S 1939   3.744   1.799   8.258  0.7189  1.2082 -0.0141
   15SAPS  C219 1940   3.608   1.958   8.246 -0.7111 -0.1383 -0.4179
   15SAPS  H19R 1941   3.525   1.898   8.288  0.1623  1.1673  3.4152
   15SAPS  H19S 1942   3.557   2.026   8.174 -0.3924  0.5745  0.0265
   15SAPS  C220 1943   3.662   2.039   8.358 -0.1306  1.0496  0.1416
   15SAPS  H20R 1944   3.693   1.981   8.447  0.1607  1.5163  0.3442
   15SAPS  H20S 1945   3.582   2.109   8.390 -0.6391  0.5061  0.0687
   15SAPS  H20T 1946   3.747   2.100   8.319  0.9063  1.0429  2.3630
   15SAPS   C33 1947   3.558   1.494   6.712 -0.1241  0.3397  0.1850
   15SAPS   H3X 1948   3.451   1.527   6.712 -0.4390 -0.6838 -0.3751
   15SAPS   H3Y 1949   3.620   1.574   6.666 -0.8764  1.1911  0.6166
   15SAPS   C34 1950   3.586   1.475   6.868 -0.5221 -0.1277  0.2227
   15SAPS   H4X 1951   3.697   1.471   6.880 -0.3765 -0.8205 -1.2147
   15SAPS   H4Y 1952   3.550   1.381   6.913 -1.3680  1.1526  2.3117
   15SAPS   C35 1953   3.541   1.594   6.955  0.1465 -0.1618 -0.1189
   15SAPS   H5X 1954   3.430   1.591   6.943  0.4340 -0.7277 -3.0974
   15SAPS   H5Y 1955   3.580   1.695   6.928  1.6225 -1.3651 -2.6202
   15SAPS   C36 1956   3.603   1.572   7.093 -0.2381  0.2334 -0.5870
   15SAPS   H6X 1957   3.711   1.595   7.082 -0.6005  1.8722 -0.8885
   15SAPS   H6Y 1958   3.591   1.465   7.120 -1.7078  0.1207 -1.5877
   15SAPS   C37 1959   3.549   1.657   7.206 -0.6941 -0.1939 -0.1689
   15SAPS   H7X 1960   3.577   1.760   7.176 -0.2784 -0.4973 -0.8479
   15SAPS   H7Y 1961   3.608   1.649   7.299 -0.2292  1.6452 -0.2883
   15SAPS   C38 1962   3.395   1.651   7.225 -0.6898 -0.5308 -0.0251
   15SAPS   H8X 1963   3.361   1.548   7.249  0.2900 -1.0190 -0.6765
   15SAPS   H8Y 1964   3.363   1.696   7.129 -2.0783  0.7911  1.0357
   15SAPS   C39 1965   3.350   1.758   7.327 -0.9697 -0.6878 -0.4444
   15SAPS   H9X 1966   3.241   1.776   7.316 -0.6761  1.3563 -0.3404
   15SAPS   H9Y 1967   3.397   1.858   7.310 -1.0722 -0.7393 -1.0322
   15SAPS  C310 1968   3.380   1.703   7.466 -0.0720  0.1622 -0.1576
   15SAPS  H10X 1969   3.490   1.696   7.482 -0.4010 -3.0422  0.9356
   15SAPS  H10Y 1970   3.346   1.598   7.475  0.9427 -0.1648 -0.0887
   15SAPS  C311 1971   3.314   1.778   7.575  0.2432 -0.4320 -0.2431
   15SAPS  H11X 1972   3.207   1.783   7.543  0.0762 -1.0703  0.1917
   15SAPS  H11Y 1973   3.360   1.878   7.581 -2.4294  0.7783  0.7612
   15SAPS  C312 1974   3.329   1.706   7.710  0.2729  0.9876 -0.1117
   15SAPS  H12X 1975   3.439   1.696   7.723  0.1531  0.6254  0.6867
   15SAPS  H12Y 1976   3.286   1.606   7.690  0.5239  1.0914 -1.1778
   15SAPS  C313 1977   3.258   1.777   7.829 -0.5742  0.0148 -0.3495
   15SAPS  H13X 1978   3.150   1.790   7.808 -0.0917  3.2181 -1.1752
   15SAPS  H13Y 1979   3.304   1.878   7.836 -0.1503 -0.2632  1.0513
   15SAPS  C314 1980   3.267   1.694   7.950  0.2605 -0.1559  0.4843
   15SAPS  H14X 1981   3.375   1.673   7.966  0.2112 -0.3183  0.6014
   15SAPS  H14Y 1982   3.214   1.598   7.938 -1.8169  0.8729  1.2180
   15SAPS  C315 1983   3.210   1.764   8.069 -0.6872 -0.4295  0.3145
   15SAPS  H15X 1984   3.111   1.812   8.052 -1.1026 -1.6225 -0.6346
   15SAPS  H15Y 1985   3.281   1.848   8.090  0.3848 -1.6096  1.5041
   15SAPS  C316 1986   3.199   1.663   8.185 -0.0336  0.5573  0.4263
   15SAPS  H16X 1987   3.302   1.627   8.203  1.0254  3.4172  0.4533
   15SAPS  H16Y 1988   3.141   1.575   8.151  0.9703  0.4059 -0.9229
   15SAPS  C317 1989   3.154   1.732   8.306 -0.6020 -0.2409 -0.1405
   15SAPS  H17X 1990   3.064   1.792   8.281  1.1255  3.2353  1.6193
   15SAPS  H17Y 1991   3.236   1.800   8.338  0.6393 -0.4795 -2.6624
   15SAPS  C318 1992   3.110   1.635   8.413  0.6755  0.9779 -0.1876
   15SAPS  H18X 1993   3.084   1.677   8.513  2.3494  2.7625 -0.4693
   15SAPS  H18Y 1994   3.193   1.562   8.431 -1.4198 -1.4246  0.0374
   15SAPS  H18Z 1995   3.022   1.577   8.378 -0.0105  0.7958  1.7731
   16SAPS     N 1996   5.699   3.843   6.341  0.0397 -0.1891 -0.1067
   16SAPS   HN1 1997   5.672   3.849   6.241  0.2465  0.5212 -0.1226
   16SAPS   HN2 1998   5.618   3.863   6.404 -0.3099 -1.2275 -0.2191
   16SAPS   HN3 1999   5.781   3.901   6.368 -1.1459  2.0629 -1.2009
   16SAPS   C12 2000   5.739   3.702   6.376  0.1260 -0.2617  0.1119
   16SAPS  H12A 2001   5.651   3.640   6.359 -1.1393  1.5078  0.0277
   16SAPS   C13 2002   5.842   3.640   6.277  0.2888 -0.5351 -0.8711
   16SAPS  O13A 2003   5.847   3.673   6.156  0.2766 -0.1503  0.7117
   16SAPS  O13B 2004   5.891   3.527   6.309  0.5861  0.5310 -0.6037
   16SAPS   C11 2005   5.786   3.697   6.524  0.2465 -0.1786  0.0048
   16SAPS  H11A 2006   5.869   3.771   6.535  0.7308 -0.7851  0.4446
   16SAPS  H11B 2007   5.836   3.599   6.537 -1.9832 -1.6875 -2.2981
   16SAPS     P 2008   5.594   3.584   6.664 -0.2138  0.1500 -0.2181
   16SAPS   O13 2009   5.496   3.552   6.551  0.3258  0.0109  0.1569
   16SAPS   O14 2010   5.667   3.466   6.722  0.5170 -0.6654  0.1568
   16SAPS   O12 2011   5.684   3.706   6.625  0.6364 -0.3450  0.7326
   16SAPS   O11 2012   5.501   3.638   6.768 -0.2300  0.4873  0.3034
   16SAPS    C1 2013   5.546   3.708   6.882  0.4675 -0.8905  0.0765
   16SAPS    HA 2014   5.631   3.664   6.939 -1.4713 -1.9157  2.2584
   16SAPS    HB 2015   5.582   3.809   6.854 -3.4038  0.5019 -0.1644
   16SAPS    C2 2016   5.437   3.732   6.984  0.6029  0.1618  0.3309
   16SAPS    HS 2017   5.471   3.783   7.077 -1.1966 -1.7492  2.0922
   16SAPS   O21 2018   5.374   3.613   7.034  0.6079 -0.5643 -0.2566
   16SAPS   C21 2019   5.455   3.536   7.114  0.7922 -0.4708  0.1199
   16SAPS   O22 2020   5.564   3.561   7.158  0.4553 -0.5493  0.0303
   16SAPS   C22 2021   5.381   3.405   7.141  0.9738 -0.5324  0.4601
   16SAPS   H2R 2022   5.272   3.430   7.145  0.9625 -0.6966  1.1576
   16SAPS   H2S 2023   5.406   3.347   7.049 -0.0435  0.4253 -0.4329
   16SAPS    C3 2024   5.334   3.825   6.909 -0.6143 -0.0681 -0.2735
   16SAPS    HX 2025   5.271   3.773   6.832 -0.9214 -1.6558  1.0262
   16SAPS    HY 2026   5.391   3.908   6.863 -0.6671 -0.2362 -0.6462
   16SAPS   O31 2027   5.248   3.895   7.007 -0.3372 -0.3228  0.1545
   16SAPS   C31 2028   5.146   3.822   7.039 -0.2550  0.5694  0.1510
   16SAPS   O32 2029   5.114   3.718   6.987 -0.1186  0.5013 -0.4338
   16SAPS   C32 2030   5.054   3.901   7.135 -0.7737 -0.1570  0.9155
   16SAPS   H2X 2031   4.950   3.862   7.126 -0.9567 -0.1179  2.6702
   16SAPS   H2Y 2032   5.064   4.004   7.095 -0.3501 -0.5513  0.0006
   16SAPS   C23 2033   5.438   3.320   7.262  0.1176  0.1346 -0.1743
   16SAPS   H3R 2034   5.549   3.312   7.259 -0.0323 -2.4078 -0.4320
   16SAPS   H3S 2035   5.402   3.215   7.257  0.0742  0.1304  0.2396
   16SAPS   C24 2036   5.395   3.372   7.400  0.6636  0.0699 -0.8736
   16SAPS   H4R 2037   5.422   3.480   7.407  1.0741 -0.0828 -0.0470
   16SAPS   H4S 2038   5.457   3.322   7.476 -0.5726  2.2988  1.6991
   16SAPS   C25 2039   5.247   3.366   7.422 -0.3497 -0.5167  0.5572
   16SAPS   H5R 2040   5.198   3.434   7.351  0.6455  0.6863  0.9926
   16SAPS   C26 2041   5.182   3.292   7.516 -0.2188  0.0527 -0.1889
   16SAPS   H6R 2042   5.074   3.307   7.532 -0.0267  1.1374  0.1967
   16SAPS   C27 2043   5.253   3.221   7.626 -0.3907  1.0888 -0.4767
   16SAPS   H7R 2044   5.339   3.280   7.665  1.6295  0.2831 -3.4782
   16SAPS   H7S 2045   5.293   3.125   7.586  2.6857  2.4776 -0.8452
   16SAPS   C28 2046   5.171   3.186   7.747 -0.3172  0.0172  0.1891
   16SAPS   H8R 2047   5.201   3.244   7.836 -0.1794  1.2478 -0.6410
   16SAPS   C29 2048   5.070   3.107   7.764 -0.3452  0.3288  0.1896
   16SAPS   H9R 2049   5.026   3.104   7.864  0.3403  0.6026  0.4965
   16SAPS  C210 2050   5.001   3.009   7.674  0.3601 -0.1255 -0.3256
   16SAPS  H10R 2051   5.023   3.038   7.569 -0.0268 -1.1856 -0.6998
   16SAPS  H10S 2052   4.890   3.003   7.671  0.4138 -1.5806  0.2661
   16SAPS  C211 2053   5.049   2.874   7.695 -0.5155  0.2742  0.2430
   16SAPS  H11R 2054   5.158   2.867   7.681 -0.7091  1.4285 -1.9553
   16SAPS  C212 2055   4.983   2.765   7.738  0.0523 -0.0065 -0.3572
   16SAPS  H12R 2056   5.049   2.680   7.760 -0.8538 -0.5530  0.2686
   16SAPS  C213 2057   4.839   2.753   7.779 -0.3152 -0.6712  0.4984
   16SAPS  H13R 2058   4.814   2.646   7.798  1.0877 -1.5442 -2.3285
   16SAPS  H13S 2059   4.778   2.780   7.690  0.8288  1.9123  0.4778
   16SAPS  C214 2060   4.789   2.850   7.888  0.1687 -0.1658 -0.2214
   16SAPS  H14R 2061   4.850   2.941   7.897  1.3684 -1.1057  1.3265
   16SAPS  C215 2062   4.693   2.834   7.980  0.1677 -0.3940  0.3939
   16SAPS  H15R 2063   4.680   2.913   8.055  0.0848 -2.2621  2.3995
   16SAPS  C216 2064   4.595   2.719   8.003  0.4053 -0.0422  0.6270
   16SAPS  H16R 2065   4.595   2.693   8.111  0.5183  0.7093  0.8089
   16SAPS  H16S 2066   4.603   2.629   7.938  1.3585 -0.7313  1.6811
   16SAPS  C217 2067   4.454   2.777   7.992  0.3149  0.4433  0.0906
   16SAPS  H17R 2068   4.449   2.809   7.886 -0.9166  0.4441  0.1430
   16SAPS  H17S 2069   4.443   2.863   8.061 -0.4150  3.0212 -3.1115
   16SAPS  C218 2070   4.336   2.681   8.013  0.5760  0.2661 -0.7689
   16SAPS  H18R 2071   4.385   2.585   7.985 -1.4851 -2.5511  4.5294
   16SAPS  H18S 2072   4.255   2.708   7.943  0.2090 -0.1025 -0.4850
   16SAPS  C219 2073   4.261   2.661   8.147  0.1255  0.1633 -0.2346
   16SAPS  H19R 2074   4.327   2.677   8.235  0.9703 -2.6426 -0.3241
   16SAPS  H19S 2075   4.222   2.557   8.147  0.5647 -0.0023  0.1235
   16SAPS  C220 2076   4.141   2.756   8.170  0.2117  0.2489 -0.1198
   16SAPS  H20R 2077   4.177   2.861   8.163  0.7725  0.2499  2.5149
   16SAPS  H20S 2078   4.107   2.747   8.275  0.2777  0.5188 -0.0763
   16SAPS  H20T 2079   4.056   2.750   8.098 -0.0666  0.3377  0.2035
   16SAPS   C33 2080   5.112   3.909   7.278 -0.7416 -0.1962 -0.2985
   16SAPS   H3X 2081   5.068   3.994   7.334  0.2326 -0.0920  0.3161
   16SAPS   H3Y 2082   5.221   3.931   7.267 -0.9816  0.6781 -0.9283
   16SAPS   C34 2083   5.098   3.784   7.375  0.3221 -0.2584  0.0776
   16SAPS   H4X 2084   5.161   3.796   7.465 -0.8872  0.4551  0.8488
   16SAPS   H4Y 2085   5.131   3.696   7.315  0.7212 -1.1546  1.5916
   16SAPS   C35 2086   4.947   3.767   7.422  0.0833 -0.0950 -0.3050
   16SAPS   H5X 2087   4.880   3.780   7.334 -1.3465  0.0605  0.7893
   16SAPS   H5Y 2088   4.920   3.842   7.499  0.4236 -0.5126  0.2232
   16SAPS   C36 2089   4.903   3.632   7.487  0.1943  0.7140  0.7140
   16SAPS   H6X 2090   4.978   3.612   7.567 -0.1620  3.4577  1.8002
   16SAPS   H6Y 2091   4.912   3.548   7.416 -1.3848  1.2859 -0.1894
   16SAPS   C37 2092   4.766   3.629   7.556  0.6177 -0.0215 -0.3402
   16SAPS   H7X 2093   4.693   3.670   7.483  2.0266  1.2799 -1.0399
   16SAPS   H7Y 2094   4.778   3.696   7.643  0.4330 -2.3994  1.5599
   16SAPS   C38 2095   4.732   3.493   7.615  0.3937 -0.2479  0.2550
   16SAPS   H8X 2096   4.719   3.430   7.524 -0.3966 -0.2217  0.3445
   16SAPS   H8Y 2097   4.628   3.490   7.654 -0.0392  0.4064 -0.8021
   16SAPS   C39 2098   4.839   3.436   7.706  0.0510 -0.2021 -0.3196
   16SAPS   H9X 2099   4.897   3.514   7.759  0.6308 -0.9062  0.0853
   16SAPS   H9Y 2100   4.898   3.370   7.639  1.4320 -0.1734  0.8439
   16SAPS  C310 2101   4.779   3.334   7.809 -0.4154 -0.3179  0.3043
   16SAPS  H10X 2102   4.864   3.270   7.841  0.3009  0.2983 -0.3562
   16SAPS  H10Y 2103   4.715   3.272   7.743  0.9146 -1.8094  0.3917
   16SAPS  C311 2104   4.700   3.398   7.921  0.6123 -0.2180 -0.1597
   16SAPS  H11X 2105   4.612   3.457   7.885 -1.1492 -2.4243  0.4426
   16SAPS  H11Y 2106   4.769   3.473   7.965 -1.2850  1.7367 -0.4250
   16SAPS  C312 2107   4.667   3.316   8.045  0.0303  0.0056  0.5613
   16SAPS  H12X 2108   4.614   3.377   8.121 -1.2152 -0.9493  0.4643
   16SAPS  H12Y 2109   4.764   3.285   8.088 -0.2945 -1.1983  0.4420
   16SAPS  C313 2110   4.584   3.190   8.014  0.3530  0.5441 -0.8055
   16SAPS  H13X 2111   4.653   3.122   7.959  1.3445  3.4107 -3.1889
   16SAPS  H13Y 2112   4.495   3.205   7.949 -0.2316 -1.2192 -0.4599
   16SAPS  C314 2113   4.545   3.124   8.143 -0.2740 -0.5361 -0.2852
   16SAPS  H14X 2114   4.487   3.030   8.126 -2.3514  0.5948  0.3036
   16SAPS  H14Y 2115   4.466   3.182   8.196  1.2935 -0.2891  1.8388
   16SAPS  C315 2116   4.652   3.099   8.256 -0.5109  0.0697  0.5749
   16SAPS  H15X 2117   4.727   3.180   8.263 -0.0913 -0.3259  0.6771
   16SAPS  H15Y 2118   4.707   3.005   8.233 -1.7626 -0.4183 -0.4684
   16SAPS  C316 2119   4.580   3.069   8.393 -0.1395  0.6306 -0.7037
   16SAPS  H16X 2120   4.506   3.148   8.418 -0.8550 -0.2750  0.0259
   16SAPS  H16Y 2121   4.658   3.066   8.473 -0.5874 -0.5216 -0.3038
   16SAPS  C317 2122   4.502   2.933   8.390  0.6004  0.4919  0.2868
   16SAPS  H17X 2123   4.568   2.851   8.356 -0.8047  0.6170 -2.9040
   16SAPS  H17Y 2124   4.421   2.937   8.315 -1.0983 -1.1330  1.9699
   16SAPS  C318 2125   4.445   2.890   8.525  1.0378  0.6509  0.1582
   16SAPS  H18X 2126   4.395   2.976   8.576  1.2822  0.3309  0.9422
   16SAPS  H18Y 2127   4.520   2.865   8.602  0.2970 -2.0646  0.0235
   16SAPS  H18Z 2128   4.378   2.801   8.519 -1.0050  2.2739 -3.1875
   17SAPC     N 2129   3.140   6.570  10.781  0.5795  0.8902  0.3197
   17SAPC   C12 2130   3.035   6.551  10.677 -0.1199 -0.3397  1.0490
   17SAPC  H12A 2131   2.981   6.643  10.659  0.3886 -0.1018  0.7568
   17SAPC  H12B 2132   2.955   6.487  10.713 -1.0400 -0.2663 -0.7820
   17SAPC   C13 2133   3.250   6.651  10.735 -0.7642 -0.1352 -0.1968
   17SAPC  H13A 2134   3.333   6.657  10.804 -2.2036 -0.5245  1.5850
   17SAPC  H13B 2135   3.284   6.606  10.642 -2.4281  1.0061 -1.3781
   17SAPC  H13C 2136   3.211   6.750  10.715 -2.2350 -0.9619 -1.5603
   17SAPC   C14 2137   3.075   6.622  10.907 -0.2312 -0.3052 -0.9374
   17SAPC  H14A 2138   3.146   6.639  10.986 -2.2581  0.3273  0.7899
   17SAPC  H14B 2139   3.018   6.709  10.878  1.2308  0.1101 -2.6366
   17SAPC  H14C 2140   2.995   6.560  10.943 -1.4071  3.1333  2.7879
   17SAPC   C15 2141   3.203   6.439  10.817 -0.0290  0.9801  0.4033
   17SAPC  H15A 2142   3.134   6.367  10.859  2.2564 -0.7259  1.2828
   17SAPC  H15B 2143   3.236   6.384  10.730  2.3645  0.2907  1.7286
   17SAPC  H15C 2144   3.292   6.450  10.876 -0.0032  2.7452  0.0672
   17SAPC   C11 2145   3.083   6.495  10.539 -0.2392 -0.2141 -0.3885
   17SAPC  H11A 2146   2.996   6.441  10.496 -2.0033  2.1064  0.1579
   17SAPC  H11B 2147   3.166   6.422  10.555  1.2319  1.9241  2.2333
   17SAPC     P 2148   3.029   6.702  10.390  0.3949 -0.8814  0.1100
   17SAPC   O13 2149   2.893   6.710  10.455 -0.2666 -0.4355 -0.1880
   17SAPC   O14 2150   3.095   6.838  10.381  0.1364  0.1221 -0.2902
   17SAPC   O12 2151   3.130   6.603  10.463  0.4863  0.5542 -0.2210
   17SAPC   O11 2152   3.014   6.647  10.245  0.1419 -0.7438  0.6730
   17SAPC    C1 2153   3.112   6.564  10.187  0.5251 -0.2380 -0.1887
   17SAPC    HA 2154   3.214   6.598  10.215 -0.2944  2.9153 -0.7850
   17SAPC    HB 2155   3.094   6.461  10.224  0.1039 -0.0787  0.0598
   17SAPC    C2 2156   3.090   6.563  10.035  0.5755 -0.4510  0.2968
   17SAPC    HS 2157   3.156   6.491   9.981  0.5115 -0.5630  0.3653
   17SAPC   O21 2158   3.083   6.694   9.976  0.0726  0.3533  0.3290
   17SAPC   C21 2159   3.189   6.770   9.990  0.3290 -0.4080 -0.1616
   17SAPC   O22 2160   3.304   6.737  10.017 -0.6987 -0.0286  0.6091
   17SAPC   C22 2161   3.150   6.923   9.960  0.0754  0.3381  0.1894
   17SAPC   H2R 2162   3.048   6.913   9.915  0.4213  1.4828 -0.8921
   17SAPC   H2S 2163   3.140   6.979  10.055 -3.7217 -2.3605  1.4895
   17SAPC    C3 2164   2.951   6.505  10.011 -0.4932  0.0641 -1.0320
   17SAPC    HX 2165   2.866   6.564  10.052  0.1651  0.8562 -0.8072
   17SAPC    HY 2166   2.948   6.408  10.065  2.1400  0.3136 -0.4035
   17SAPC   O31 2167   2.924   6.482   9.872 -0.2947  0.1840  0.7431
   17SAPC   C31 2168   2.986   6.387   9.801 -0.4866 -0.3171  0.2050
   17SAPC   O32 2169   3.062   6.303   9.844  0.6207  0.0960  0.5908
   17SAPC   C32 2170   2.954   6.405   9.655 -0.1629  1.1067  0.6275
   17SAPC   H2X 2171   3.052   6.416   9.602 -0.2130  2.4624  0.8002
   17SAPC   H2Y 2172   2.905   6.504   9.645 -3.1543 -0.4343 -0.3827
   17SAPC   C23 2173   3.236   7.007   9.865  0.6086 -0.1368 -0.4589
   17SAPC   H3R 2174   3.290   6.946   9.789  1.2504 -0.0748 -0.0569
   17SAPC   H3S 2175   3.316   7.052   9.928 -0.4151 -0.3386  1.0194
   17SAPC   C24 2176   3.161   7.128   9.810 -0.2878  0.3370 -0.1601
   17SAPC   H4R 2177   3.142   7.187   9.902 -0.4231  0.4409 -0.2525
   17SAPC   H4S 2178   3.062   7.097   9.771 -1.3290  1.5379  1.4407
   17SAPC   C25 2179   3.242   7.216   9.717 -0.0587 -0.7384  0.3462
   17SAPC   H5R 2180   3.287   7.302   9.769 -0.8494  0.0129 -0.1887
   17SAPC   C26 2181   3.266   7.196   9.585 -0.2209 -0.1728 -0.0937
   17SAPC   H6R 2182   3.326   7.271   9.530 -1.5868  0.3643 -0.8828
   17SAPC   C27 2183   3.200   7.084   9.502  0.5326  0.2165 -0.1311
   17SAPC   H7R 2184   3.157   6.996   9.554 -1.2552  0.9715 -0.2985
   17SAPC   H7S 2185   3.281   7.037   9.443 -0.4867 -0.1336 -1.2847
   17SAPC   C28 2186   3.104   7.132   9.406 -0.3955  0.2082  0.0323
   17SAPC   H8R 2187   3.009   7.164   9.452 -0.0083  2.5837 -0.7232
   17SAPC   C29 2188   3.118   7.160   9.275 -0.2897 -0.5055 -0.8821
   17SAPC   H9R 2189   3.030   7.201   9.224  0.2819 -0.6275 -1.9775
   17SAPC  C210 2190   3.235   7.141   9.184 -0.3140  0.2132 -0.1250
   17SAPC  H10R 2191   3.329   7.156   9.241  0.3706 -0.0240 -1.1819
   17SAPC  H10S 2192   3.236   7.220   9.107  0.1565  0.2217 -0.1073
   17SAPC  C211 2193   3.229   7.003   9.128 -0.2217  0.3506  0.3291
   17SAPC  H11R 2194   3.171   6.930   9.187 -1.2873 -0.1818 -1.3326
   17SAPC  C212 2195   3.263   6.971   8.998 -0.2081  0.0909  0.3038
   17SAPC  H12R 2196   3.260   6.863   8.975 -1.2567  0.2717 -0.4714
   17SAPC  C213 2197   3.315   7.063   8.894  0.1758 -0.2053  0.5734
   17SAPC  H13R 2198   3.425   7.054   8.892  0.2066  0.3328 -1.1420
   17SAPC  H13S 2199   3.290   7.167   8.921 -1.4724 -0.7241  1.0981
   17SAPC  C214 2200   3.268   7.033   8.755 -0.3768 -0.3170 -0.5621
   17SAPC  H14R 2201   3.349   7.005   8.686 -0.1799 -0.1624 -0.3955
   17SAPC  C215 2202   3.137   7.035   8.715 -0.6339  0.5494 -0.7787
   17SAPC  H15R 2203   3.116   7.016   8.608 -4.3594  1.5708 -0.2682
   17SAPC  C216 2204   3.007   7.052   8.797 -0.3814  0.2464  0.7522
   17SAPC  H16R 2205   2.999   7.152   8.844 -0.3034  0.8774 -0.5625
   17SAPC  H16S 2206   3.007   6.989   8.889  1.1145 -0.8089  0.0560
   17SAPC  C217 2207   2.881   7.003   8.719 -0.2280 -0.4790  0.5514
   17SAPC  H17R 2208   2.881   7.044   8.616  0.0579 -1.2020  0.2643
   17SAPC  H17S 2209   2.794   7.049   8.770 -0.3324 -0.7025  0.5734
   17SAPC  C218 2210   2.871   6.847   8.718 -0.5374 -0.5648  0.8858
   17SAPC  H18R 2211   2.864   6.813   8.824  3.3333  0.4399  1.5219
   17SAPC  H18S 2212   2.964   6.805   8.674 -1.2992 -0.4218 -0.9048
   17SAPC  C219 2213   2.760   6.798   8.627 -0.2811 -0.5039  0.1497
   17SAPC  H19R 2214   2.768   6.687   8.619  2.4867 -0.4367  1.4080
   17SAPC  H19S 2215   2.777   6.841   8.526  1.0772 -0.9881  0.1522
   17SAPC  C220 2216   2.614   6.816   8.674  0.0933 -0.6753 -0.2740
   17SAPC  H20R 2217   2.587   6.923   8.669  0.2161 -0.5280  2.0215
   17SAPC  H20S 2218   2.589   6.788   8.779  1.1533  2.1043  0.7506
   17SAPC  H20T 2219   2.537   6.761   8.615 -0.8453 -0.4111  0.6958
   17SAPC   C33 2220   2.866   6.296   9.592 -0.5889 -0.2487 -0.2668
   17SAPC   H3X 2221   2.763   6.290   9.632 -1.0676  0.5949 -1.3394
   17SAPC   H3Y 2222   2.916   6.199   9.614 -0.1316 -0.4687 -2.1604
   17SAPC   C34 2223   2.864   6.323   9.441 -0.6406 -0.1714 -0.4352
   17SAPC   H4X 2224   2.964   6.325   9.393 -0.3221  1.0644  0.2427
   17SAPC   H4Y 2225   2.807   6.416   9.420 -0.3727  0.6311  2.1736
   17SAPC   C35 2226   2.783   6.206   9.364  0.5686 -0.5092 -0.9491
   17SAPC   H5X 2227   2.692   6.193   9.426  1.5511  1.1237  0.8757
   17SAPC   H5Y 2228   2.846   6.115   9.376 -0.3056 -1.1639 -1.3005
   17SAPC   C36 2229   2.751   6.237   9.218 -0.0831  0.4770 -0.4867
   17SAPC   H6X 2230   2.847   6.267   9.171  0.7730  0.5160  1.2596
   17SAPC   H6Y 2231   2.678   6.318   9.197 -0.2289 -0.0034 -1.8995
   17SAPC   C37 2232   2.688   6.105   9.157  0.2073 -0.4188 -0.2828
   17SAPC   H7X 2233   2.591   6.088   9.207  0.0291 -0.8223 -0.7683
   17SAPC   H7Y 2234   2.749   6.022   9.199 -0.1377  0.7650  2.6832
   17SAPC   C38 2235   2.679   6.087   9.006  0.3087 -0.2745  0.3223
   17SAPC   H8X 2236   2.778   6.079   8.957 -0.1815  0.9350 -0.8910
   17SAPC   H8Y 2237   2.614   6.164   8.960  2.2116  0.9426 -0.3742
   17SAPC   C39 2238   2.607   5.943   8.989 -0.4316  0.6638  0.5991
   17SAPC   H9X 2239   2.521   5.940   9.059 -0.0254 -0.3562  1.0671
   17SAPC   H9Y 2240   2.667   5.858   9.029  0.2642  0.6543 -0.4371
   17SAPC  C310 2241   2.567   5.918   8.849 -0.1300 -0.1292  0.5063
   17SAPC  H10X 2242   2.650   5.902   8.777 -0.2784 -1.9788  0.7145
   17SAPC  H10Y 2243   2.503   6.001   8.812 -1.8886 -1.0581  1.3612
   17SAPC  C311 2244   2.491   5.784   8.850  0.3436  0.5748 -0.3417
   17SAPC  H11X 2245   2.403   5.807   8.914  0.3812  1.0906 -0.4728
   17SAPC  H11Y 2246   2.550   5.704   8.899 -1.5582 -0.4790  0.2760
   17SAPC  C312 2247   2.439   5.744   8.705  0.3440 -0.4322 -0.7332
   17SAPC  H12X 2248   2.382   5.831   8.668  0.4191 -0.1984 -0.3136
   17SAPC  H12Y 2249   2.377   5.652   8.708  1.0959 -0.9123  0.9326
   17SAPC  C313 2250   2.551   5.694   8.617 -0.0320  0.9626 -0.1022
   17SAPC  H13X 2251   2.608   5.610   8.663 -2.4999 -0.8571 -0.2226
   17SAPC  H13Y 2252   2.622   5.779   8.607  3.0121 -1.3947  0.7532
   17SAPC  C314 2253   2.507   5.638   8.479  0.7446  0.8106  0.1513
   17SAPC  H14X 2254   2.430   5.707   8.437 -2.5915 -1.5139  2.2059
   17SAPC  H14Y 2255   2.447   5.544   8.480  1.0737  0.6130  1.6857
   17SAPC  C315 2256   2.617   5.626   8.380  0.6393  0.2813  0.0330
   17SAPC  H15X 2257   2.695   5.550   8.405  0.3136 -0.0486  0.0441
   17SAPC  H15Y 2258   2.671   5.723   8.389  2.4168 -0.7745  1.1623
   17SAPC  C316 2259   2.586   5.620   8.226 -0.5720  0.5280  0.4549
   17SAPC  H16X 2260   2.684   5.620   8.174 -0.8680 -0.3043 -0.1326
   17SAPC  H16Y 2261   2.541   5.716   8.191  0.8879 -0.4657 -4.5653
   17SAPC  C317 2262   2.504   5.494   8.185  0.0736 -0.5111 -0.3457
   17SAPC  H17X 2263   2.403   5.536   8.171 -0.8062 -2.2699  0.4979
   17SAPC  H17Y 2264   2.498   5.424   8.271 -0.3725 -0.5229 -0.3881
   17SAPC  C318 2265   2.563   5.428   8.058  0.1747  0.3924  0.0498
   17SAPC  H18X 2266   2.499   5.354   8.006  0.8595  1.2659 -2.0999
   17SAPC  H18Y 2267   2.590   5.504   7.982  1.4429 -0.4774 -0.3941
   17SAPC  H18Z 2268   2.664   5.388   8.082 -1.1919 -1.7565  2.4630
   18SAPC     N 2269   4.015   6.623  10.812 -0.1703 -0.2788  1.2745
   18SAPC   C12 2270   4.067   6.501  10.732 -0.1468  0.5654  0.0614
   18SAPC  H12A 2271   4.042   6.409  10.784 -0.2318  0.9957  0.7891
   18SAPC  H12B 2272   4.175   6.502  10.737 -0.1579 -1.8569  2.2739
   18SAPC   C13 2273   3.863   6.627  10.818 -0.2057 -0.6464  0.1030
   18SAPC  H13A 2274   3.830   6.614  10.716  3.8436  0.6557 -1.4760
   18SAPC  H13B 2275   3.827   6.544  10.878 -0.4425 -1.4497 -1.1276
   18SAPC  H13C 2276   3.831   6.724  10.851 -2.1507 -0.9519 -0.8234
   18SAPC   C14 2277   4.076   6.611  10.947 -0.0708 -0.1882  0.0025
   18SAPC  H14A 2278   4.183   6.626  10.953  0.3233 -2.0873 -1.5385
   18SAPC  H14B 2279   4.022   6.679  11.010 -0.6840  0.0768 -0.7980
   18SAPC  H14C 2280   4.050   6.513  10.985 -1.4114 -0.6376 -1.9698
   18SAPC   C15 2281   4.063   6.758  10.756  0.3923 -0.2568  0.0741
   18SAPC  H15A 2282   4.170   6.757  10.751  0.6068  0.1839  3.4660
   18SAPC  H15B 2283   4.034   6.771  10.652  0.7160 -0.5988 -0.0557
   18SAPC  H15C 2284   4.029   6.840  10.818 -1.0415 -0.2679 -0.6704
   18SAPC   C11 2285   4.017   6.485  10.586  0.1020 -0.1160 -0.3234
   18SAPC  H11A 2286   4.061   6.397  10.534  0.9074  0.4400 -0.5889
   18SAPC  H11B 2287   4.055   6.574  10.531 -0.4869 -0.1317 -0.7551
   18SAPC     P 2288   3.805   6.335  10.601 -0.1685  0.1622 -0.4986
   18SAPC   O13 2289   3.886   6.234  10.678  0.6067  0.8139 -0.2470
   18SAPC   O14 2290   3.667   6.363  10.661 -0.4080  0.0004 -0.0784
   18SAPC   O12 2291   3.879   6.472  10.585  0.0929  0.4999 -0.8582
   18SAPC   O11 2292   3.788   6.286  10.456  0.5110 -0.0959  0.4388
   18SAPC    C1 2293   3.796   6.385  10.357 -0.0967 -0.3051 -0.8560
   18SAPC    HA 2294   3.745   6.478  10.388 -1.2138 -0.6521 -1.5926
   18SAPC    HB 2295   3.900   6.409  10.328 -0.3287  1.0957 -0.5663
   18SAPC    C2 2296   3.717   6.339  10.226 -0.2451  0.2874  0.5426
   18SAPC    HS 2297   3.617   6.301  10.257 -0.7066 -0.1801 -1.3980
   18SAPC   O21 2298   3.801   6.249  10.152 -0.0797  0.4012 -0.2445
   18SAPC   C21 2299   3.767   6.122  10.154 -0.5064 -0.8311  0.3558
   18SAPC   O22 2300   3.685   6.068  10.227 -0.4749 -0.0115  0.2873
   18SAPC   C22 2301   3.838   6.049  10.043 -0.6741 -0.6047  0.6016
   18SAPC   H2R 2302   3.910   6.113   9.987  2.5285 -2.0858  2.8430
   18SAPC   H2S 2303   3.898   5.983  10.110  1.2109  1.0313  0.5494
   18SAPC    C3 2304   3.677   6.450  10.129 -0.6540  0.3173  1.1795
   18SAPC    HX 2305   3.772   6.500  10.101 -1.6580  1.9292  0.5799
   18SAPC    HY 2306   3.617   6.524  10.186 -0.3125  0.0330  1.9173
   18SAPC   O31 2307   3.610   6.391  10.019  0.2212  0.0364 -0.0336
   18SAPC   C31 2308   3.484   6.361  10.034  0.3753  0.4918 -0.2499
   18SAPC   O32 2309   3.418   6.359  10.139  0.1705  0.2204  0.1436
   18SAPC   C32 2310   3.420   6.351   9.898 -0.3072  0.2587  0.2027
   18SAPC   H2X 2311   3.313   6.327   9.912 -0.1260  1.0875  3.4999
   18SAPC   H2Y 2312   3.459   6.262   9.843  0.4316  1.6886 -1.6309
   18SAPC   C23 2313   3.744   5.968   9.944 -0.2380  0.2672 -0.2387
   18SAPC   H3R 2314   3.674   5.907  10.005 -1.5341  1.1832 -0.7885
   18SAPC   H3S 2315   3.805   5.896   9.886 -1.4981 -0.1401 -1.0823
   18SAPC   C24 2316   3.660   6.054   9.856 -0.2319  0.6045  0.2577
   18SAPC   H4R 2317   3.594   6.120   9.916 -0.0396  0.6440  0.4258
   18SAPC   H4S 2318   3.589   5.989   9.801 -1.2635 -0.0477  2.3266
   18SAPC   C25 2319   3.753   6.128   9.752 -0.1004  0.4523 -0.1939
   18SAPC   H5R 2320   3.833   6.188   9.799  0.7242 -0.4697 -0.4012
   18SAPC   C26 2321   3.756   6.107   9.618 -0.1816 -0.0891  0.0612
   18SAPC   H6R 2322   3.826   6.164   9.555  0.5798  0.0609  1.0421
   18SAPC   C27 2323   3.668   6.006   9.546 -0.0628 -0.7917  0.5331
   18SAPC   H7R 2324   3.567   6.047   9.565  0.0047  0.1319 -1.0868
   18SAPC   H7S 2325   3.660   5.908   9.598 -0.0087 -0.6242  0.8594
   18SAPC   C28 2326   3.699   5.988   9.402  0.0136 -0.1384  0.7381
   18SAPC   H8R 2327   3.770   5.904   9.392 -0.8362 -0.7846  0.1052
   18SAPC   C29 2328   3.647   6.058   9.301 -0.4704  0.2655 -0.0039
   18SAPC   H9R 2329   3.678   6.030   9.199  1.9064 -0.8507  0.9957
   18SAPC  C210 2330   3.554   6.173   9.310 -0.0240 -0.3797  0.1526
   18SAPC  H10R 2331   3.464   6.121   9.350 -0.2659  0.8068  1.1828
   18SAPC  H10S 2332   3.530   6.203   9.205  1.4052 -1.4949 -0.5027
   18SAPC  C211 2333   3.590   6.295   9.386 -0.1418 -0.2965  0.4435
   18SAPC  H11R 2334   3.604   6.281   9.494 -0.6974 -0.6115  0.4751
   18SAPC  C212 2335   3.625   6.420   9.339 -0.1397  0.1629  0.0003
   18SAPC  H12R 2336   3.647   6.498   9.413  1.0747 -0.8911  0.7832
   18SAPC  C213 2337   3.620   6.465   9.193 -0.2377 -0.0761  0.1871
   18SAPC  H13R 2338   3.588   6.386   9.122 -1.4571  1.1387 -0.6517
   18SAPC  H13S 2339   3.726   6.488   9.166 -0.9205  2.3017 -0.6160
   18SAPC  C214 2340   3.522   6.582   9.171 -0.3921 -0.5034  0.9854
   18SAPC  H14R 2341   3.439   6.576   9.243 -2.4613 -0.4711 -1.3504
   18SAPC  C215 2342   3.522   6.685   9.077  0.0339  0.0167  0.0711
   18SAPC  H15R 2343   3.429   6.743   9.070 -0.0882  0.0094  1.5984
   18SAPC  C216 2344   3.630   6.696   8.967  0.3626 -0.4438  0.6902
   18SAPC  H16R 2345   3.642   6.594   8.924  0.0431 -0.2989  0.2526
   18SAPC  H16S 2346   3.726   6.698   9.023  0.7807 -0.5201 -0.0225
   18SAPC  C217 2347   3.611   6.792   8.853 -0.0259  0.4497  0.3169
   18SAPC  H17R 2348   3.593   6.897   8.885 -1.2631  0.2893  0.1771
   18SAPC  H17S 2349   3.515   6.766   8.804 -1.3286  1.4366  2.2438
   18SAPC  C218 2350   3.724   6.790   8.749 -0.3606 -0.4745 -0.1715
   18SAPC  H18R 2351   3.825   6.824   8.779  0.8033 -2.2719 -1.9476
   18SAPC  H18S 2352   3.696   6.865   8.672 -0.2551  1.4169  1.6055
   18SAPC  C219 2353   3.760   6.646   8.695  0.1056 -0.1895  0.8347
   18SAPC  H19R 2354   3.663   6.603   8.664 -1.1468  1.6999  2.0267
   18SAPC  H19S 2355   3.791   6.586   8.783 -1.2392 -1.8578  0.1904
   18SAPC  C220 2356   3.875   6.659   8.585 -0.2140 -0.2274 -0.3756
   18SAPC  H20R 2357   3.830   6.709   8.496 -2.1925 -1.0387  0.1486
   18SAPC  H20S 2358   3.887   6.549   8.570 -0.6829 -0.4803  1.0569
   18SAPC  H20T 2359   3.967   6.700   8.630 -2.0296  2.4201  1.0397
   18SAPC   C33 2360   3.449   6.480   9.813 -0.0444 -0.3967 -0.4714
   18SAPC   H3X 2361   3.542   6.465   9.755  0.1161  0.3970 -0.4225
   18SAPC   H3Y 2362   3.462   6.570   9.877  0.2467 -0.9465  0.2463
   18SAPC   C34 2363   3.332   6.509   9.714 -0.1447  0.1521  0.8347
   18SAPC   H4X 2364   3.237   6.521   9.769  0.9877 -0.0295  2.8852
   18SAPC   H4Y 2365   3.320   6.423   9.644 -0.2844  1.8674 -1.2862
   18SAPC   C35 2366   3.364   6.642   9.637  0.6239 -0.0553  0.4135
   18SAPC   H5X 2367   3.453   6.617   9.575  0.7952 -1.0347  1.0417
   18SAPC   H5Y 2368   3.406   6.714   9.709  2.7290  1.0416 -1.8490
   18SAPC   C36 2369   3.245   6.711   9.565 -0.2829 -0.6570  0.0036
   18SAPC   H6X 2370   3.271   6.812   9.528 -0.9166 -0.8726 -1.0503
   18SAPC   H6Y 2371   3.167   6.727   9.642 -0.7652 -0.8461 -0.4391
   18SAPC   C37 2372   3.197   6.633   9.447 -0.2043  0.2088 -0.1540
   18SAPC   H7X 2373   3.176   6.526   9.465  1.4255 -0.0140  0.5197
   18SAPC   H7Y 2374   3.271   6.637   9.365 -0.6857 -2.6028 -0.7441
   18SAPC   C38 2375   3.059   6.676   9.380 -0.5064  0.6946 -0.9661
   18SAPC   H8X 2376   3.063   6.786   9.363  2.0792  0.7462 -0.2214
   18SAPC   H8Y 2377   2.984   6.652   9.459 -2.0326 -2.1424 -3.1583
   18SAPC   C39 2378   3.025   6.583   9.261  0.0847  0.0315 -0.0483
   18SAPC   H9X 2379   2.915   6.585   9.245  0.3973  0.6259 -2.4171
   18SAPC   H9Y 2380   3.055   6.480   9.289  1.3348  0.5886  0.6918
   18SAPC  C310 2381   3.105   6.624   9.136  0.6118 -0.2367  0.5546
   18SAPC  H10X 2382   3.214   6.613   9.155  0.0920 -1.7776  2.9505
   18SAPC  H10Y 2383   3.084   6.731   9.120 -1.2119 -0.9305 -1.9752
   18SAPC  C311 2384   3.078   6.552   9.008 -0.3845 -0.7955  0.3707
   18SAPC  H11X 2385   2.988   6.595   8.959 -0.2057  0.0756  0.8035
   18SAPC  H11Y 2386   3.064   6.442   9.022  1.3029 -1.1087 -0.3581
   18SAPC  C312 2387   3.184   6.588   8.903 -0.6456 -1.3737  0.0659
   18SAPC  H12X 2388   3.286   6.555   8.931  0.2693  0.2513 -1.2623
   18SAPC  H12Y 2389   3.191   6.698   8.894  0.9835 -1.4249  0.5446
   18SAPC  C313 2390   3.160   6.534   8.766  0.9069 -0.0811  0.1062
   18SAPC  H13X 2391   3.063   6.582   8.739  0.8014  0.1798  0.9263
   18SAPC  H13Y 2392   3.145   6.424   8.764  0.9777 -0.0832 -0.2414
   18SAPC  C314 2393   3.273   6.586   8.672  0.5744 -0.2438  0.0353
   18SAPC  H14X 2394   3.347   6.507   8.646 -0.2404 -0.7216 -0.8469
   18SAPC  H14Y 2395   3.317   6.677   8.718 -0.9607  0.1392  0.7802
   18SAPC  C315 2396   3.218   6.647   8.539  0.1793  0.1867 -0.2312
   18SAPC  H15X 2397   3.134   6.714   8.566  0.6699  0.3843  0.8452
   18SAPC  H15Y 2398   3.166   6.566   8.483 -0.3429  1.1538 -1.1696
   18SAPC  C316 2399   3.309   6.746   8.461 -0.1469  1.1192 -0.7587
   18SAPC  H16X 2400   3.325   6.844   8.511  2.1373  1.2072 -1.6062
   18SAPC  H16Y 2401   3.252   6.767   8.369 -2.2903  2.2735  0.7873
   18SAPC  C317 2402   3.436   6.685   8.399  0.6950  0.1640  0.5206
   18SAPC  H17X 2403   3.498   6.659   8.487 -0.7313  1.4798  1.9461
   18SAPC  H17Y 2404   3.496   6.762   8.346  1.7713 -1.6775 -1.0105
   18SAPC  C318 2405   3.409   6.566   8.314 -0.0231 -0.2958  0.2009
   18SAPC  H18X 2406   3.505   6.538   8.264 -0.5485 -0.2605 -0.8329
   18SAPC  H18Y 2407   3.340   6.595   8.232  1.8628 -1.3173 -1.7952
   18SAPC  H18Z 2408   3.377   6.474   8.366 -1.5327 -0.7484 -1.4783
   19SAPC     N 2409   2.315   0.333  10.561  0.0521  0.2937 -0.1742
   19SAPC   C12 2410   2.378   0.428  10.465 -0.2885 -0.7396 -0.7542
   19SAPC  H12A 2411   2.317   0.493  10.404 -3.1002 -1.2187  1.4340
   19SAPC  H12B 2412   2.417   0.362  10.388  1.3568 -0.4509 -0.1860
   19SAPC   C13 2413   2.413   0.231  10.611 -0.4689  0.4243  0.2283
   19SAPC  H13A 2414   2.370   0.161  10.681 -0.7129  1.8133  1.4929
   19SAPC  H13B 2415   2.458   0.172  10.532 -3.6658  0.3449 -1.6141
   19SAPC  H13C 2416   2.490   0.290  10.657  0.6032  0.9634 -2.1858
   19SAPC   C14 2417   2.254   0.408  10.676  0.3107  0.7652  0.2452
   19SAPC  H14A 2418   2.170   0.468  10.643  0.4794  0.6821 -0.3555
   19SAPC  H14B 2419   2.212   0.346  10.754 -0.0509 -0.1471 -0.6613
   19SAPC  H14C 2420   2.324   0.471  10.727  2.5569 -0.8802 -0.7401
   19SAPC   C15 2421   2.204   0.251  10.503 -0.1844 -0.5633  0.3152
   19SAPC  H15A 2422   2.247   0.203  10.416 -0.0047  0.5712 -0.2282
   19SAPC  H15B 2423   2.174   0.168  10.565  0.7600 -2.1001 -1.2148
   19SAPC  H15C 2424   2.120   0.310  10.472 -1.8344 -2.9468  0.0792
   19SAPC   C11 2425   2.497   0.516  10.521 -0.6400  0.5367 -0.6413
   19SAPC  H11A 2426   2.562   0.536  10.433 -0.8951 -1.8967 -1.4125
   19SAPC  H11B 2427   2.562   0.461  10.593  0.4403  0.7388 -1.4445
   19SAPC     P 2428   2.426   0.773  10.510 -0.2148 -0.0640 -0.6466
   19SAPC   O13 2429   2.449   0.748  10.365 -0.0217  0.0405 -0.2093
   19SAPC   O14 2430   2.290   0.820  10.541 -0.5897  0.1410 -0.1486
   19SAPC   O12 2431   2.454   0.635  10.590 -0.7469 -0.4740  0.6728
   19SAPC   O11 2432   2.527   0.885  10.559  0.8475  0.2291 -0.1196
   19SAPC    C1 2433   2.666   0.867  10.554  0.0504  0.0160  0.0337
   19SAPC    HA 2434   2.704   0.818  10.646 -1.1927 -2.3564 -0.6725
   19SAPC    HB 2435   2.692   0.821  10.456  0.0979  0.4439 -0.1565
   19SAPC    C2 2436   2.743   1.002  10.547  0.0446 -0.6734  0.0052
   19SAPC    HS 2437   2.740   1.042  10.651  1.2323 -0.2482 -0.1159
   19SAPC   O21 2438   2.678   1.091  10.452  0.8398  0.4323 -0.2359
   19SAPC   C21 2439   2.707   1.222  10.466 -0.1671  0.3394 -0.2816
   19SAPC   O22 2440   2.754   1.267  10.571 -0.1731 -0.1616  0.4186
   19SAPC   C22 2441   2.680   1.296  10.329  0.3404  0.0400 -0.6433
   19SAPC   H2R 2442   2.773   1.276  10.272  1.2935 -1.0212  1.2402
   19SAPC   H2S 2443   2.600   1.260  10.261  0.0228  0.4054 -0.4643
   19SAPC    C3 2444   2.892   0.971  10.500  0.2109  0.6060 -0.2206
   19SAPC    HX 2445   2.886   0.906  10.410 -0.6609  0.7996 -0.3002
   19SAPC    HY 2446   2.942   0.909  10.577 -0.8903 -1.1414 -0.8957
   19SAPC   O31 2447   2.977   1.093  10.499  0.1086  0.1073  0.4561
   19SAPC   C31 2448   3.068   1.083  10.403  0.2652  0.1256 -0.2315
   19SAPC   O32 2449   3.100   0.983  10.338 -0.2931  0.4626 -0.3943
   19SAPC   C32 2450   3.134   1.219  10.399  0.4939  0.4419 -0.2615
   19SAPC   H2X 2451   3.228   1.200  10.456 -0.2896  0.5272  1.0911
   19SAPC   H2Y 2452   3.078   1.297  10.456  0.1370  0.0979 -0.1363
   19SAPC   C23 2453   2.667   1.446  10.365 -1.1935  0.3937  0.4086
   19SAPC   H3R 2454   2.764   1.472  10.412 -0.0807 -1.4512 -0.8272
   19SAPC   H3S 2455   2.590   1.472  10.441 -1.0758 -2.2874  1.5093
   19SAPC   C24 2456   2.659   1.523  10.234 -0.0951 -0.1344  0.6535
   19SAPC   H4R 2457   2.748   1.506  10.171  0.7175 -1.1546  2.0526
   19SAPC   H4S 2458   2.668   1.631  10.259  0.1773 -0.2727  1.1618
   19SAPC   C25 2459   2.533   1.517  10.158  0.1323  1.0065 -0.2930
   19SAPC   H5R 2460   2.440   1.521  10.218  0.4605  0.3137  0.2705
   19SAPC   C26 2461   2.517   1.503  10.023 -0.0787  0.7711 -0.4265
   19SAPC   H6R 2462   2.418   1.505   9.976  0.2184  0.1588 -1.0822
   19SAPC   C27 2463   2.635   1.496   9.928 -0.3210  0.6619  0.3441
   19SAPC   H7R 2464   2.601   1.445   9.835 -1.1383 -0.8504  1.4557
   19SAPC   H7S 2465   2.711   1.425   9.969  0.2944  0.2349 -1.4584
   19SAPC   C28 2466   2.699   1.629   9.900 -1.5057 -0.5394 -0.8007
   19SAPC   H8R 2467   2.719   1.685   9.992 -3.0681  0.6465 -1.1709
   19SAPC   C29 2468   2.738   1.687   9.784 -0.6149 -0.1222 -0.2111
   19SAPC   H9R 2469   2.785   1.786   9.792  0.6615 -0.5378 -2.2837
   19SAPC  C210 2470   2.733   1.624   9.648  0.0329  0.0545 -0.8258
   19SAPC  H10R 2471   2.723   1.514   9.643  1.8544 -0.2005  0.8502
   19SAPC  H10S 2472   2.830   1.639   9.597  0.4227 -0.5464 -0.2621
   19SAPC  C211 2473   2.615   1.690   9.584 -0.4441 -0.5141 -0.6158
   19SAPC  H11R 2474   2.537   1.727   9.652 -0.8613 -0.8016 -0.9336
   19SAPC  C212 2475   2.603   1.713   9.453  1.0251 -0.0281 -0.9065
   19SAPC  H12R 2476   2.513   1.766   9.418  0.9970 -0.4936 -1.5507
   19SAPC  C213 2477   2.690   1.681   9.337  0.2203  0.0141  0.4257
   19SAPC  H13R 2478   2.649   1.587   9.293 -1.0849  0.7282  0.1002
   19SAPC  H13S 2479   2.793   1.658   9.371  1.7074  4.1479 -1.1168
   19SAPC  C214 2480   2.701   1.780   9.220 -0.1002 -0.6059 -0.3922
   19SAPC  H14R 2481   2.801   1.819   9.198 -0.1853 -1.0484 -1.6060
   19SAPC  C215 2482   2.601   1.808   9.128 -0.7292  0.3506  0.0151
   19SAPC  H15R 2483   2.623   1.891   9.060 -0.1404 -0.8149 -1.2377
   19SAPC  C216 2484   2.462   1.752   9.132  0.1298 -0.2813 -0.2385
   19SAPC  H16R 2485   2.392   1.835   9.152 -1.3270 -1.5303 -0.0483
   19SAPC  H16S 2486   2.443   1.670   9.204 -3.1827 -0.0241 -0.7515
   19SAPC  C217 2487   2.402   1.684   8.999 -1.0775 -0.0931  0.0136
   19SAPC  H17R 2488   2.448   1.585   8.983  0.8106  1.4253 -4.9775
   19SAPC  H17S 2489   2.434   1.748   8.914 -0.4112  0.7665  0.8953
   19SAPC  C218 2490   2.250   1.676   9.001 -0.1185  0.8897  0.1527
   19SAPC  H18R 2491   2.227   1.783   9.019 -1.8178  0.6113 -0.2839
   19SAPC  H18S 2492   2.216   1.619   9.091  0.3570  0.2121 -0.0923
   19SAPC  C219 2493   2.185   1.614   8.876 -0.2857  0.4442 -0.1682
   19SAPC  H19R 2494   2.076   1.605   8.895 -0.3727 -1.2165 -1.3433
   19SAPC  H19S 2495   2.212   1.507   8.862 -1.4704 -0.3374  3.1581
   19SAPC  C220 2496   2.205   1.695   8.747  0.3791  0.5954  0.5654
   19SAPC  H20R 2497   2.311   1.723   8.732  0.2568  1.3878  1.0829
   19SAPC  H20S 2498   2.138   1.784   8.742  0.4877  0.8187  2.5800
   19SAPC  H20T 2499   2.178   1.635   8.658  0.4196 -1.4860  1.9239
   19SAPC   C33 2500   3.158   1.267  10.254 -0.0393  0.4061 -0.0420
   19SAPC   H3X 2501   3.210   1.183  10.203  1.8475  0.5067  1.6511
   19SAPC   H3Y 2502   3.239   1.342  10.264  1.1132 -0.7225 -0.7485
   19SAPC   C34 2503   3.032   1.319  10.200 -0.1524  0.5607 -0.4511
   19SAPC   H4X 2504   2.971   1.386  10.264  0.6173  0.1522  0.7355
   19SAPC   H4Y 2505   2.966   1.237  10.164  2.1428 -0.6248 -2.0996
   19SAPC   C35 2506   3.054   1.396  10.072  0.0321  0.0403  0.2582
   19SAPC   H5X 2507   3.116   1.487  10.087  0.9380 -0.8464  2.0877
   19SAPC   H5Y 2508   2.957   1.420  10.025 -0.4277 -1.6137  0.3161
   19SAPC   C36 2509   3.138   1.316   9.961  0.4570  0.0832  0.2926
   19SAPC   H6X 2510   3.099   1.213   9.942 -0.6466  0.7963 -1.3915
   19SAPC   H6Y 2511   3.245   1.313   9.990  0.1688 -0.3067  1.3634
   19SAPC   C37 2512   3.121   1.373   9.820  0.0529 -0.0352  0.5279
   19SAPC   H7X 2513   3.161   1.477   9.827  2.2508 -0.8204  0.1938
   19SAPC   H7Y 2514   3.018   1.362   9.782  0.4721 -0.2441 -0.5700
   19SAPC   C38 2515   3.226   1.313   9.722 -0.9872  0.0679 -0.0932
   19SAPC   H8X 2516   3.203   1.205   9.711 -1.5467  0.1037  0.6578
   19SAPC   H8Y 2517   3.329   1.317   9.763 -0.0464 -0.1648 -2.3821
   19SAPC   C39 2518   3.227   1.384   9.588  0.3581  0.1591  0.7655
   19SAPC   H9X 2519   3.314   1.346   9.531  0.1577 -0.8751  1.1361
   19SAPC   H9Y 2520   3.242   1.492   9.611  1.6470 -0.0375  0.8852
   19SAPC  C310 2521   3.087   1.373   9.513 -0.3299 -0.1070  0.4518
   19SAPC  H10X 2522   3.003   1.411   9.576  0.1716 -1.0728  1.7068
   19SAPC  H10Y 2523   3.056   1.267   9.501 -1.5290  0.3685 -0.9797
   19SAPC  C311 2524   3.086   1.453   9.383  0.0553  0.4017  0.2590
   19SAPC  H11X 2525   3.099   1.559   9.413 -0.6189  0.4932  0.2432
   19SAPC  H11Y 2526   2.977   1.448   9.361 -0.0836  0.2442  0.9690
   19SAPC  C312 2527   3.185   1.412   9.268  0.0789  0.0513  0.0057
   19SAPC  H12X 2528   3.152   1.315   9.224 -0.3479 -0.2146  0.9039
   19SAPC  H12Y 2529   3.290   1.401   9.302 -0.0092 -2.2848 -0.4297
   19SAPC  C313 2530   3.197   1.517   9.150  0.0962  0.1597 -0.4671
   19SAPC  H13X 2531   3.292   1.496   9.097  1.7550 -0.9703  2.8340
   19SAPC  H13Y 2532   3.213   1.616   9.198  1.0974 -0.2824  0.1131
   19SAPC  C314 2533   3.068   1.537   9.070  0.2314 -0.1503  0.2783
   19SAPC  H14X 2534   2.981   1.555   9.136 -1.4779 -1.6320 -1.5402
   19SAPC  H14Y 2535   3.045   1.447   9.009  0.2271  0.1950 -0.2272
   19SAPC  C315 2536   3.070   1.663   8.980 -0.2450  0.5485 -0.6529
   19SAPC  H15X 2537   3.136   1.644   8.893  1.6082  0.9147  0.6483
   19SAPC  H15Y 2538   3.114   1.749   9.036  1.4353 -1.4734  1.2143
   19SAPC  C316 2539   2.932   1.684   8.921  0.5256 -0.6021  0.1545
   19SAPC  H16X 2540   2.866   1.698   9.010  1.1049  1.0498  0.3342
   19SAPC  H16Y 2541   2.900   1.594   8.864 -2.6329  0.9800 -0.6912
   19SAPC  C317 2542   2.920   1.810   8.839  0.1905  0.2281  0.4140
   19SAPC  H17X 2543   2.990   1.810   8.752  1.8805 -2.2863  1.7049
   19SAPC  H17Y 2544   2.951   1.895   8.902 -0.3754  0.4502  0.3931
   19SAPC  C318 2545   2.779   1.829   8.792 -0.3663  0.2978 -0.1476
   19SAPC  H18X 2546   2.714   1.809   8.880  1.1740 -1.2249  0.6548
   19SAPC  H18Y 2547   2.746   1.758   8.713  0.3012 -0.4470  0.2363
   19SAPC  H18Z 2548   2.763   1.928   8.744 -0.0252  0.6190  0.3861
   20SAPC     N 2549   1.935   5.002  10.855 -0.3367  0.0370  0.4826
   20SAPC   C12 2550   1.964   4.894  10.760  0.0436  0.0277  0.4504
   20SAPC  H12A 2551   1.935   4.928  10.661  1.2354 -0.4559 -0.0837
   20SAPC  H12B 2552   1.907   4.804  10.777  2.4022 -1.4549  0.7093
   20SAPC   C13 2553   1.988   4.965  10.993 -0.6156 -0.3307  0.8922
   20SAPC  H13A 2554   1.928   4.879  11.018 -1.9330 -0.3167 -1.9583
   20SAPC  H13B 2555   2.091   4.933  10.990 -0.7131 -0.5008 -1.6311
   20SAPC  H13C 2556   1.976   5.043  11.067 -1.9615  0.7957 -0.4677
   20SAPC   C14 2557   2.001   5.131  10.801  0.3716  0.6407 -0.1570
   20SAPC  H14A 2558   2.036   5.179  10.891  0.5574 -0.0281  0.1282
   20SAPC  H14B 2559   2.091   5.106  10.746 -1.2331 -1.2458 -2.0216
   20SAPC  H14C 2560   1.927   5.189  10.748 -0.7153 -0.6956 -0.1371
   20SAPC   C15 2561   1.788   5.013  10.859 -0.2243  0.3890 -0.1950
   20SAPC  H15A 2562   1.759   5.028  10.756 -0.5494 -1.7438 -0.4457
   20SAPC  H15B 2563   1.737   4.924  10.893  2.6367 -1.5612 -0.8079
   20SAPC  H15C 2564   1.752   5.104  10.906 -0.9375  0.1524 -0.2720
   20SAPC   C11 2565   2.110   4.846  10.738  0.0039 -0.8315 -0.3335
   20SAPC  H11A 2566   2.178   4.930  10.711 -0.7623  0.7673  2.4445
   20SAPC  H11B 2567   2.105   4.787  10.644 -1.2290 -0.9340 -0.2175
   20SAPC     P 2568   2.108   4.616  10.864  0.3545  0.2943  0.1800
   20SAPC   O13 2569   2.126   4.566  11.000  0.2859  0.1830  0.2830
   20SAPC   O14 2570   1.974   4.602  10.807  0.1605 -0.5268  0.3750
   20SAPC   O12 2571   2.156   4.766  10.850  0.7628 -0.9347  0.1530
   20SAPC   O11 2572   2.202   4.530  10.773 -0.7099  0.4749 -0.1375
   20SAPC    C1 2573   2.343   4.571  10.773 -0.4634 -1.0943 -0.7687
   20SAPC    HA 2574   2.359   4.680  10.778  0.5841 -1.0288 -3.9771
   20SAPC    HB 2575   2.404   4.531  10.857  1.7766  0.0680 -1.7927
   20SAPC    C2 2576   2.412   4.516  10.650  0.1482 -0.3286 -0.3582
   20SAPC    HS 2577   2.508   4.571  10.640 -0.1370 -0.0655 -1.7130
   20SAPC   O21 2578   2.328   4.537  10.530 -0.3409  0.0949 -0.4765
   20SAPC   C21 2579   2.311   4.659  10.499 -0.4106  0.5925  0.9677
   20SAPC   O22 2580   2.380   4.751  10.530 -0.5003 -0.2390  0.0161
   20SAPC   C22 2581   2.183   4.657  10.409  0.6175  0.1668  0.0109
   20SAPC   H2R 2582   2.098   4.615  10.467 -1.2158  2.4237 -0.9296
   20SAPC   H2S 2583   2.145   4.758  10.380 -0.3717 -0.7328 -1.9161
   20SAPC    C3 2584   2.451   4.364  10.672  0.0518  0.0878  0.7287
   20SAPC    HX 2585   2.361   4.303  10.694 -0.7573  1.2842  0.8096
   20SAPC    HY 2586   2.515   4.357  10.762  1.1729 -3.6646 -0.2944
   20SAPC   O31 2587   2.530   4.313  10.562  0.6259  0.0748  0.2641
   20SAPC   C31 2588   2.454   4.233  10.475  0.6082  0.2436 -0.7688
   20SAPC   O32 2589   2.339   4.211  10.489  0.1585 -0.6001 -0.1883
   20SAPC   C32 2590   2.533   4.191  10.355  0.6145 -0.2867  0.2798
   20SAPC   H2X 2591   2.486   4.095  10.324 -2.2138  1.2122 -0.3160
   20SAPC   H2Y 2592   2.639   4.176  10.384  0.7368  1.0312  0.5427
   20SAPC   C23 2593   2.191   4.563  10.281 -0.1398 -0.3708 -0.2947
   20SAPC   H3R 2594   2.086   4.552  10.246 -0.9256 -0.7524  2.0236
   20SAPC   H3S 2595   2.231   4.463  10.310  1.1776  1.1110  3.3045
   20SAPC   C24 2596   2.279   4.616  10.173  0.4027 -0.0697  0.2074
   20SAPC   H4R 2597   2.382   4.599  10.210  0.0523 -3.7669 -0.3612
   20SAPC   H4S 2598   2.266   4.726  10.166 -0.2024  0.0844  2.8556
   20SAPC   C25 2599   2.269   4.537  10.045 -0.6679 -0.2546 -0.0743
   20SAPC   H5R 2600   2.231   4.434  10.052 -1.9474  0.1898 -0.3977
   20SAPC   C26 2601   2.288   4.583   9.918 -0.2193  0.9135 -0.1741
   20SAPC   H6R 2602   2.267   4.508   9.841  0.3155  0.0765  0.4826
   20SAPC   C27 2603   2.328   4.723   9.879  0.8136  0.6707 -0.5376
   20SAPC   H7R 2604   2.428   4.715   9.832 -0.6130 -0.4369 -3.5663
   20SAPC   H7S 2605   2.333   4.797   9.961  1.5809 -0.9202  0.8729
   20SAPC   C28 2606   2.244   4.783   9.770  0.0056  0.5212 -0.8570
   20SAPC   H8R 2607   2.156   4.840   9.802 -0.7349 -0.2956 -1.4364
   20SAPC   C29 2608   2.274   4.759   9.642  0.5678  0.1212 -0.7904
   20SAPC   H9R 2609   2.205   4.799   9.566 -0.4893  0.3431  0.2767
   20SAPC  C210 2610   2.377   4.667   9.587  0.2966 -0.2571  0.0193
   20SAPC  H10R 2611   2.337   4.625   9.493 -0.8204 -0.1742  0.4471
   20SAPC  H10S 2612   2.398   4.583   9.657 -1.1748 -0.6012  0.0568
   20SAPC  C211 2613   2.493   4.756   9.563  0.5416  0.3537 -0.9484
   20SAPC  H11R 2614   2.565   4.748   9.646  0.2241 -2.1137 -0.8693
   20SAPC  C212 2615   2.522   4.833   9.456 -0.2856 -0.5275  0.2099
   20SAPC  H12R 2616   2.615   4.892   9.452 -0.2301 -0.6676 -0.6433
   20SAPC  C213 2617   2.424   4.840   9.341  0.7237  0.1536 -0.1402
   20SAPC  H13R 2618   2.338   4.908   9.359 -0.3215 -0.9587 -0.7644
   20SAPC  H13S 2619   2.362   4.749   9.322 -0.5054  0.9514 -0.0330
   20SAPC  C214 2620   2.493   4.895   9.223  0.3100 -0.2960  0.2549
   20SAPC  H14R 2621   2.572   4.826   9.190 -0.7438 -2.4195  2.1030
   20SAPC  C215 2622   2.465   5.010   9.156 -0.4645 -0.3337 -0.4752
   20SAPC  H15R 2623   2.532   5.030   9.071 -1.1895  0.0136 -0.9748
   20SAPC  C216 2624   2.353   5.111   9.185  0.5282 -0.3544 -0.4658
   20SAPC  H16R 2625   2.376   5.203   9.128 -0.7319 -0.5359 -1.2894
   20SAPC  H16S 2626   2.355   5.140   9.292  1.0796  1.2164 -0.8979
   20SAPC  C217 2627   2.211   5.071   9.156 -0.0970  0.0016  0.1999
   20SAPC  H17R 2628   2.154   5.158   9.195  1.3008  0.6280  0.8838
   20SAPC  H17S 2629   2.195   4.980   9.219  1.6323 -0.4540  0.0079
   20SAPC  C218 2630   2.183   5.039   9.007 -0.0641 -0.6112 -0.0544
   20SAPC  H18R 2631   2.256   4.962   8.972 -0.9784 -0.7027 -1.7618
   20SAPC  H18S 2632   2.205   5.136   8.958 -1.1786  0.1939  1.0076
   20SAPC  C219 2633   2.037   4.994   8.989  0.5014 -0.1911 -0.0491
   20SAPC  H19R 2634   1.974   5.084   9.007  0.4007 -0.3963  0.6221
   20SAPC  H19S 2635   2.011   4.915   9.062  1.7259  0.1893  0.8088
   20SAPC  C220 2636   2.006   4.940   8.846  0.0466  0.3363 -0.1339
   20SAPC  H20R 2637   1.905   4.894   8.847  1.4358 -2.8255 -0.1214
   20SAPC  H20S 2638   2.073   4.854   8.823  3.9170  2.6266  2.1267
   20SAPC  H20T 2639   2.011   5.024   8.773 -0.0860  1.0925  0.7282
   20SAPC   C33 2640   2.526   4.283  10.225 -0.0835 -0.1604 -0.1873
   20SAPC   H3X 2641   2.543   4.390  10.250  2.1813  0.2389 -3.1217
   20SAPC   H3Y 2642   2.425   4.281  10.179 -0.0596  0.9849 -0.3163
   20SAPC   C34 2643   2.626   4.234  10.114 -0.4199 -0.1940  0.8121
   20SAPC   H4X 2644   2.635   4.124  10.119 -1.1564 -0.2162  1.6769
   20SAPC   H4Y 2645   2.729   4.262  10.145  0.9048 -2.5498 -1.2650
   20SAPC   C35 2646   2.587   4.296   9.976 -0.3691 -0.0916  0.1906
   20SAPC   H5X 2647   2.585   4.407   9.989  1.0130 -0.3232  2.8817
   20SAPC   H5Y 2648   2.485   4.266   9.948 -1.4673  0.4705  3.3279
   20SAPC   C36 2649   2.694   4.285   9.871  0.0934 -0.3741 -0.0655
   20SAPC   H6X 2650   2.700   4.181   9.833  0.7408  0.5427 -2.5468
   20SAPC   H6Y 2651   2.794   4.323   9.901 -0.7389  1.1516  0.8582
   20SAPC   C37 2652   2.649   4.373   9.754 -0.0971  0.8083  0.2381
   20SAPC   H7X 2653   2.606   4.472   9.781 -2.4055  0.1989 -1.0706
   20SAPC   H7Y 2654   2.554   4.329   9.716  0.6882 -0.4324 -0.3210
   20SAPC   C38 2655   2.751   4.390   9.633  0.5990  0.7626  0.4715
   20SAPC   H8X 2656   2.827   4.309   9.634  1.2918  1.3425 -2.2823
   20SAPC   H8Y 2657   2.812   4.479   9.662 -1.5688  1.6389  2.4835
   20SAPC   C39 2658   2.686   4.413   9.499 -0.6705 -0.2055 -0.0650
   20SAPC   H9X 2659   2.588   4.461   9.519  0.3401  0.6933  3.0499
   20SAPC   H9Y 2660   2.653   4.317   9.453 -2.8473 -0.5167  2.0026
   20SAPC  C310 2661   2.782   4.486   9.399  0.0676  0.2110 -0.2492
   20SAPC  H10X 2662   2.876   4.428   9.395 -0.2290 -0.2986  0.1593
   20SAPC  H10Y 2663   2.824   4.579   9.443  1.0371 -0.4214  0.1688
   20SAPC  C311 2664   2.708   4.526   9.274 -0.0684  0.3602  0.3233
   20SAPC  H11X 2665   2.637   4.608   9.300 -1.8591 -0.8434 -0.6664
   20SAPC  H11Y 2666   2.647   4.445   9.229  1.5736 -1.5679  1.4958
   20SAPC  C312 2667   2.803   4.594   9.169  0.7447  0.0038  0.0848
   20SAPC  H12X 2668   2.865   4.664   9.229 -0.9767  0.0096  1.8944
   20SAPC  H12Y 2669   2.741   4.653   9.098  0.1475 -2.4404 -1.4937
   20SAPC  C313 2670   2.892   4.493   9.089 -0.4445  1.3631 -0.2631
   20SAPC  H13X 2671   2.830   4.415   9.039  0.1100  1.8769 -1.7908
   20SAPC  H13Y 2672   2.958   4.434   9.157 -1.3466  1.1325  0.4283
   20SAPC  C314 2673   2.975   4.549   8.987  0.3036  0.3355  0.4737
   20SAPC  H14X 2674   3.067   4.493   8.962 -0.2434 -0.8189  0.9912
   20SAPC  H14Y 2675   3.006   4.639   9.044  1.7639 -0.8731  1.6190
   20SAPC  C315 2676   2.898   4.580   8.856 -0.5393 -0.2306 -0.1095
   20SAPC  H15X 2677   2.792   4.602   8.881 -0.8354  0.4395 -1.8420
   20SAPC  H15Y 2678   2.899   4.495   8.784  0.4901 -1.5519  1.4366
   20SAPC  C316 2679   2.950   4.711   8.792  0.2759  0.1021  0.1154
   20SAPC  H16X 2680   2.931   4.794   8.863 -1.8053  0.0626 -0.3486
   20SAPC  H16Y 2681   2.892   4.735   8.701  0.1033 -0.0512  0.1819
   20SAPC  C317 2682   3.094   4.695   8.744 -0.3916 -0.1884  0.0278
   20SAPC  H17X 2683   3.151   4.645   8.825  0.1763 -1.9758 -1.4462
   20SAPC  H17Y 2684   3.142   4.792   8.721 -1.9584  0.4670 -0.5624
   20SAPC  C318 2685   3.108   4.605   8.617 -0.1501  0.2230 -0.4774
   20SAPC  H18X 2686   3.076   4.501   8.639 -2.7478  0.3061 -3.5617
   20SAPC  H18Y 2687   3.212   4.605   8.578 -0.6977 -4.0093 -2.2414
   20SAPC  H18Z 2688   3.039   4.647   8.542  0.8455  1.0593 -0.9508
   21SAPC     N 2689   2.079   3.149  10.866 -0.2943  0.2135 -0.0255
   21SAPC   C12 2690   2.101   3.298  10.870 -0.2219  0.1718  0.6578
   21SAPC  H12A 2691   2.205   3.293  10.899  0.1570 -1.4362 -0.9154
   21SAPC  H12B 2692   2.053   3.339  10.958 -1.7441  0.4982 -0.2930
   21SAPC   C13 2693   2.151   3.088  10.745  0.1007  0.4623  0.8883
   21SAPC  H13A 2694   2.120   2.985  10.737  2.4657 -0.2928  1.1581
   21SAPC  H13B 2695   2.123   3.141  10.655  1.6798 -0.5058 -0.2067
   21SAPC  H13C 2696   2.257   3.102  10.758  0.1718  1.1180 -0.2512
   21SAPC   C14 2697   2.134   3.084  10.985 -0.8103 -0.0014  0.0905
   21SAPC  H14A 2698   2.098   2.982  10.993 -0.1797 -0.1825  0.6133
   21SAPC  H14B 2699   2.241   3.087  10.999 -0.1944  2.3462 -4.2602
   21SAPC  H14C 2700   2.105   3.134  11.076 -1.8523 -0.7240  0.1683
   21SAPC   C15 2701   1.933   3.124  10.846 -0.0736 -0.0505 -0.2745
   21SAPC  H15A 2702   1.882   3.148  10.938  0.6751 -0.9835  0.3932
   21SAPC  H15B 2703   1.895   3.163  10.753  1.4423  1.3467 -0.3268
   21SAPC  H15C 2704   1.910   3.019  10.840  1.0772 -0.3023 -0.2597
   21SAPC   C11 2705   2.063   3.382  10.741  0.3715 -0.7329  0.3143
   21SAPC  H11A 2706   1.956   3.379  10.710  0.7163 -0.6748 -0.9012
   21SAPC  H11B 2707   2.125   3.341  10.658  0.3102  0.4876 -0.3527
   21SAPC     P 2708   2.258   3.544  10.789 -0.2675 -0.1171 -0.4951
   21SAPC   O13 2709   2.277   3.599  10.924 -0.4076 -0.1486 -0.4044
   21SAPC   O14 2710   2.336   3.420  10.756  0.4374 -0.3706  0.2882
   21SAPC   O12 2711   2.102   3.515  10.765 -0.0720 -0.1803 -0.3291
   21SAPC   O11 2712   2.299   3.645  10.683  0.3104  0.0990 -0.4993
   21SAPC    C1 2713   2.231   3.774  10.663  0.1077 -0.7266 -0.4360
   21SAPC    HA 2714   2.128   3.775  10.706  0.5589 -1.6522  0.6717
   21SAPC    HB 2715   2.297   3.848  10.713  1.3378 -1.8576 -0.3732
   21SAPC    C2 2716   2.224   3.802  10.513  0.0242  0.2240 -0.5013
   21SAPC    HS 2717   2.181   3.904  10.501  1.2916  1.3068  3.3492
   21SAPC   O21 2718   2.149   3.701  10.443  0.0567  0.2053 -0.2329
   21SAPC   C21 2719   2.024   3.709  10.451  0.4143 -0.7104  0.1458
   21SAPC   O22 2720   1.958   3.776  10.528  0.5734 -0.0796  0.3131
   21SAPC   C22 2721   1.962   3.608  10.355 -0.1157  0.4241 -0.3846
   21SAPC   H2R 2722   2.047   3.560  10.302 -0.1796 -0.1442  0.0253
   21SAPC   H2S 2723   1.898   3.548  10.424 -0.6821 -0.3881 -1.5920
   21SAPC    C3 2724   2.373   3.802  10.460 -0.5627  0.6040 -0.0598
   21SAPC    HX 2725   2.413   3.699  10.472 -0.5590  0.7072  0.8753
   21SAPC    HY 2726   2.443   3.864  10.521 -2.3148  2.4486  0.1355
   21SAPC   O31 2727   2.373   3.858  10.326 -0.0414  0.3617 -0.2000
   21SAPC   C31 2728   2.389   3.771  10.233  0.0917  0.5715  0.5661
   21SAPC   O32 2729   2.399   3.647  10.243 -0.8700  0.3335  0.3445
   21SAPC   C32 2730   2.406   3.850  10.104  0.0651 -0.2457  0.4894
   21SAPC   H2X 2731   2.515   3.864  10.090  0.0756  1.3801  2.0270
   21SAPC   H2Y 2732   2.357   3.948  10.120 -0.0504 -0.5633  2.1546
   21SAPC   C23 2733   1.885   3.665  10.235  0.3874 -0.1966  0.6078
   21SAPC   H3R 2734   1.797   3.723  10.272  0.2912  0.9723 -1.3500
   21SAPC   H3S 2735   1.857   3.579  10.171  0.0734 -0.5346  1.1964
   21SAPC   C24 2736   1.975   3.758  10.153 -0.5455  0.1530  0.2706
   21SAPC   H4R 2737   2.066   3.711  10.109 -0.6668  0.7829 -0.6669
   21SAPC   H4S 2738   2.023   3.838  10.213  0.7689 -1.6069  1.6206
   21SAPC   C25 2739   1.895   3.807  10.037 -0.4677 -0.0652  0.4877
   21SAPC   H5R 2740   1.838   3.898  10.062 -2.0507 -0.3404 -1.9589
   21SAPC   C26 2741   1.868   3.762   9.917  0.3409 -0.1485  0.4050
   21SAPC   H6R 2742   1.799   3.810   9.845  0.0972  1.0345  1.4092
   21SAPC   C27 2743   1.915   3.632   9.879 -0.3812  0.6005 -0.0773
   21SAPC   H7R 2744   1.890   3.559   9.958 -1.0963  0.6017 -0.2982
   21SAPC   H7S 2745   2.026   3.628   9.880 -0.3404 -1.5784 -3.4811
   21SAPC   C28 2746   1.863   3.559   9.753 -0.0715  0.5146 -0.0219
   21SAPC   H8R 2747   1.786   3.482   9.769 -0.0842  0.3668 -0.7972
   21SAPC   C29 2748   1.922   3.574   9.627  0.6994 -0.2876 -0.3945
   21SAPC   H9R 2749   1.880   3.502   9.555  2.9769  0.4734 -2.5723
   21SAPC  C210 2750   2.031   3.674   9.584 -0.4645 -0.2082  0.4542
   21SAPC  H10R 2751   2.097   3.684   9.673  0.9592 -1.4898 -0.4348
   21SAPC  H10S 2752   1.986   3.769   9.549  0.6539 -0.0416 -0.5788
   21SAPC  C211 2753   2.123   3.636   9.468 -0.8268  0.3086  0.3410
   21SAPC  H11R 2754   2.229   3.635   9.495 -0.9580 -1.8914  0.9270
   21SAPC  C212 2755   2.081   3.627   9.337 -0.3268 -0.5039  0.5853
   21SAPC  H12R 2756   2.152   3.598   9.258  1.1594  2.2990  0.8365
   21SAPC  C213 2757   1.935   3.644   9.284  0.2190 -0.0806 -0.1283
   21SAPC  H13R 2758   1.870   3.670   9.370  0.7529  1.7058 -0.2454
   21SAPC  H13S 2759   1.909   3.540   9.255  2.1072 -0.3439 -1.0124
   21SAPC  C214 2760   1.918   3.740   9.169 -0.4495 -0.2362 -0.5492
   21SAPC  H14R 2761   1.919   3.845   9.201  2.6963 -1.7105  4.6514
   21SAPC  C215 2762   1.895   3.716   9.036 -0.6501 -0.1300 -0.3052
   21SAPC  H15R 2763   1.883   3.800   8.967  0.6184  0.5047  0.2371
   21SAPC  C216 2764   1.892   3.581   8.966  0.4394  0.6254 -0.1358
   21SAPC  H16R 2765   1.918   3.502   9.039  0.5025 -0.5770 -1.4288
   21SAPC  H16S 2766   1.965   3.583   8.882  2.4104 -2.2653  1.4541
   21SAPC  C217 2767   1.751   3.559   8.909  0.3040 -0.6537  0.2990
   21SAPC  H17R 2768   1.719   3.649   8.853  0.9564  0.9973  2.4917
   21SAPC  H17S 2769   1.680   3.547   8.994 -2.2392 -0.5201 -1.7653
   21SAPC  C218 2770   1.737   3.439   8.816  0.3647  0.3287 -0.3709
   21SAPC  H18R 2771   1.803   3.459   8.729 -0.0224 -0.6052 -0.8862
   21SAPC  H18S 2772   1.632   3.433   8.781  0.3513 -0.0984 -0.2633
   21SAPC  C219 2773   1.772   3.303   8.880  0.4511 -0.1417  0.2401
   21SAPC  H19R 2774   1.738   3.297   8.986 -3.5479 -2.2021 -1.0672
   21SAPC  H19S 2775   1.882   3.293   8.891  0.6099  1.7574  0.5251
   21SAPC  C220 2776   1.727   3.187   8.791  0.6774  0.3745 -0.1158
   21SAPC  H20R 2777   1.775   3.191   8.691  1.2027 -2.3103 -0.0047
   21SAPC  H20S 2778   1.619   3.190   8.768  0.5369 -1.2942  0.2618
   21SAPC  H20T 2779   1.761   3.092   8.837  0.3020  0.2410 -0.1221
   21SAPC   C33 2780   2.333   3.794   9.976 -0.9527 -0.1180 -0.3185
   21SAPC   H3X 2781   2.224   3.801   9.997 -0.4522  2.8786  1.5373
   21SAPC   H3Y 2782   2.366   3.691   9.949 -0.3011 -0.1547  0.5703
   21SAPC   C34 2783   2.355   3.876   9.849  0.3910 -0.1376 -0.1193
   21SAPC   H4X 2784   2.315   3.977   9.874 -2.3150 -0.9690 -0.9267
   21SAPC   H4Y 2785   2.298   3.834   9.763  0.6290  0.2905 -0.4862
   21SAPC   C35 2786   2.500   3.901   9.802 -0.2003  0.5939 -0.0186
   21SAPC   H5X 2787   2.557   3.806   9.805 -1.5927 -0.2280  0.7678
   21SAPC   H5Y 2788   2.534   3.979   9.873  1.8770  0.8123 -1.2089
   21SAPC   C36 2789   2.512   3.964   9.662 -0.5347 -1.0456 -0.5276
   21SAPC   H6X 2790   2.486   4.072   9.669 -1.1084 -1.1967 -0.3642
   21SAPC   H6Y 2791   2.447   3.905   9.595 -1.4025  0.2026 -0.7920
   21SAPC   C37 2792   2.661   3.957   9.620  0.0461  0.2941  0.1798
   21SAPC   H7X 2793   2.693   3.851   9.619 -0.2083  0.2084  1.1023
   21SAPC   H7Y 2794   2.719   4.018   9.693 -0.6109 -0.2032  1.1271
   21SAPC   C38 2795   2.682   4.026   9.479 -0.2444  0.2832 -0.5184
   21SAPC   H8X 2796   2.679   4.135   9.501 -3.6185  0.2198 -0.4840
   21SAPC   H8Y 2797   2.597   3.997   9.415 -1.7581 -0.1402  1.6499
   21SAPC   C39 2798   2.819   4.012   9.419 -0.7053 -0.3481 -0.0561
   21SAPC   H9X 2799   2.841   3.904   9.412  0.4445 -0.0414 -1.4357
   21SAPC   H9Y 2800   2.891   4.054   9.492  1.4879 -2.6670 -0.8122
   21SAPC  C310 2801   2.821   4.077   9.279  0.6395 -0.1786 -0.0250
   21SAPC  H10X 2802   2.810   4.186   9.296  2.3167 -0.2672  1.7663
   21SAPC  H10Y 2803   2.731   4.048   9.222  0.4669  1.0192 -0.3840
   21SAPC  C311 2804   2.943   4.044   9.200  0.4809  0.3055 -0.5887
   21SAPC  H11X 2805   2.943   3.936   9.176  2.4457  0.4207 -1.2017
   21SAPC  H11Y 2806   3.027   4.069   9.269 -0.1048  1.2634 -0.2086
   21SAPC  C312 2807   2.954   4.109   9.064 -0.1931 -0.0647  0.4146
   21SAPC  H12X 2808   2.948   4.220   9.063  1.8487  0.0678 -2.1400
   21SAPC  H12Y 2809   2.868   4.080   9.000  0.0417 -2.1772  1.0182
   21SAPC  C313 2810   3.097   4.082   9.002 -0.3394  0.4152  0.1775
   21SAPC  H13X 2811   3.108   3.972   8.989 -1.6338  0.5012 -1.8125
   21SAPC  H13Y 2812   3.180   4.111   9.069 -0.7895  1.2367  0.3831
   21SAPC  C314 2813   3.107   4.132   8.864 -0.4829  0.3096 -0.9122
   21SAPC  H14X 2814   3.124   4.241   8.879 -1.4354  0.4984 -1.1900
   21SAPC  H14Y 2815   3.015   4.121   8.802 -2.2994  0.5668  1.6685
   21SAPC  C315 2816   3.238   4.083   8.791 -0.0351  0.1617  0.5584
   21SAPC  H15X 2817   3.229   3.973   8.779  2.7342 -0.1770  1.2841
   21SAPC  H15Y 2818   3.323   4.101   8.860  1.9238  0.8425 -1.9573
   21SAPC  C316 2819   3.283   4.159   8.663 -0.6182  0.4625  0.2735
   21SAPC  H16X 2820   3.255   4.265   8.680 -0.0718  0.6438  0.0612
   21SAPC  H16Y 2821   3.221   4.123   8.578 -1.7401  2.2305  0.3091
   21SAPC  C317 2822   3.442   4.141   8.642  0.0946  0.6739  0.5049
   21SAPC  H17X 2823   3.471   4.034   8.639 -1.3160  0.3096 -1.9858
   21SAPC  H17Y 2824   3.500   4.172   8.731  1.4760  0.3550 -0.2754
   21SAPC  C318 2825   3.498   4.196   8.508  0.6164 -1.0410 -0.8513
   21SAPC  H18X 2826   3.602   4.165   8.488  0.9863  1.2552 -2.8354
   21SAPC  H18Y 2827   3.498   4.307   8.502 -0.2609 -1.0805 -1.7879
   21SAPC  H18Z 2828   3.439   4.154   8.423  0.3214 -2.1823 -0.0922
   22SAPC     N 2829   1.890   1.264  10.842  0.4128 -0.8637  0.0281
   22SAPC   C12 2830   1.893   1.268  10.688 -0.1293 -1.0594  0.1627
   22SAPC  H12A 2831   1.796   1.277  10.643 -0.4345 -2.2117  0.5911
   22SAPC  H12B 2832   1.920   1.170  10.651 -2.1724 -1.7285  0.4031
   22SAPC   C13 2833   2.009   1.184  10.886 -0.6037 -0.2744 -0.7890
   22SAPC  H13A 2834   2.031   1.195  10.991 -1.9675 -0.0947 -0.5147
   22SAPC  H13B 2835   1.995   1.079  10.864  0.0141 -1.1030  2.5728
   22SAPC  H13C 2836   2.097   1.232  10.844  0.0699  1.3690  2.3678
   22SAPC   C14 2837   1.887   1.399  10.915 -0.2167  1.0224  0.7416
   22SAPC  H14A 2838   1.786   1.432  10.900  0.0273  1.8116  0.7853
   22SAPC  H14B 2839   1.907   1.388  11.021  0.0684 -1.9465  0.4363
   22SAPC  H14C 2840   1.956   1.470  10.871 -0.0065  0.6695  0.4993
   22SAPC   C15 2841   1.768   1.190  10.895 -0.2156  0.0211  0.3542
   22SAPC  H15A 2842   1.678   1.246  10.872 -0.5980  0.2355  2.2990
   22SAPC  H15B 2843   1.738   1.096  10.850  1.8343 -1.4239  1.9484
   22SAPC  H15C 2844   1.760   1.195  11.002  0.6315  1.9883  0.3528
   22SAPC   C11 2845   1.982   1.373  10.626 -0.4786 -0.0809  0.1116
   22SAPC  H11A 2846   1.959   1.467  10.682 -0.9185  0.7930 -1.5149
   22SAPC  H11B 2847   1.954   1.386  10.519  0.6292 -2.4765 -0.5047
   22SAPC     P 2848   2.223   1.446  10.619 -0.3867 -0.0074  0.1154
   22SAPC   O13 2849   2.206   1.561  10.712 -0.4110  0.0920 -0.3139
   22SAPC   O14 2850   2.360   1.388  10.613  0.2098  0.0056 -0.2235
   22SAPC   O12 2851   2.116   1.334  10.638  0.2747  0.0811 -0.8709
   22SAPC   O11 2852   2.196   1.484  10.465 -1.0527 -0.1333 -0.0927
   22SAPC    C1 2853   2.209   1.624  10.424 -0.1038  1.1409  0.2864
   22SAPC    HA 2854   2.302   1.674  10.457  2.6411 -1.7805 -2.5820
   22SAPC    HB 2855   2.218   1.623  10.313  1.1235 -0.0115  0.3886
   22SAPC    C2 2856   2.076   1.706  10.453 -0.3302 -0.5495 -0.3416
   22SAPC    HS 2857   2.089   1.743  10.556 -0.1352 -1.0394 -0.1904
   22SAPC   O21 2858   1.958   1.628  10.443  0.0369 -0.3838  0.0034
   22SAPC   C21 2859   1.843   1.677  10.490  0.6336 -0.0148  0.3667
   22SAPC   O22 2860   1.821   1.780  10.548  0.0019  0.6605  0.2669
   22SAPC   C22 2861   1.730   1.578  10.453  0.1494  0.0137 -0.1636
   22SAPC   H2R 2862   1.761   1.531  10.357 -1.8388 -2.0873  0.1811
   22SAPC   H2S 2863   1.735   1.490  10.520  2.5091  0.9212  0.8832
   22SAPC    C3 2864   2.067   1.822  10.342  0.2319 -0.0388 -1.0427
   22SAPC    HX 2865   2.157   1.884  10.360  1.2162 -1.8664  0.4256
   22SAPC    HY 2866   1.982   1.893  10.352  0.5263 -0.0137  1.3881
   22SAPC   O31 2867   2.073   1.766  10.205 -0.0132  0.3439  0.5037
   22SAPC   C31 2868   1.953   1.740  10.156  0.3524 -0.3217  0.4234
   22SAPC   O32 2869   1.844   1.764  10.208  0.1395  0.4607  0.3759
   22SAPC   C32 2870   1.966   1.656  10.025  0.4596 -0.9204 -0.1807
   22SAPC   H2X 2871   1.905   1.712   9.952  2.8989 -0.4353 -1.9233
   22SAPC   H2Y 2872   1.907   1.564  10.041 -1.3059 -0.7618 -5.0141
   22SAPC   C23 2873   1.584   1.627  10.468 -0.3804 -0.1009  0.1709
   22SAPC   H3R 2874   1.573   1.723  10.413 -0.0676  0.3910  0.9483
   22SAPC   H3S 2875   1.555   1.639  10.575 -0.5833  2.7123 -0.1457
   22SAPC   C24 2876   1.485   1.529  10.401  0.9931  0.1019 -0.0149
   22SAPC   H4R 2877   1.523   1.430  10.433  2.1844  0.4621 -0.2981
   22SAPC   H4S 2878   1.492   1.527  10.290  1.6248 -0.0229  0.0280
   22SAPC   C25 2879   1.338   1.558  10.440 -0.9931  0.5560 -0.0954
   22SAPC   H5R 2880   1.282   1.491  10.507  1.5023  1.2337  2.8067
   22SAPC   C26 2881   1.263   1.650  10.374 -0.5271  0.1396  0.1599
   22SAPC   H6R 2882   1.160   1.662  10.411 -0.9060 -1.1799 -0.4357
   22SAPC   C27 2883   1.303   1.749  10.264 -0.1157 -0.2041 -0.3079
   22SAPC   H7R 2884   1.408   1.732  10.231 -0.3865  0.2661 -1.4361
   22SAPC   H7S 2885   1.294   1.853  10.302 -0.6962  0.7228 -2.8724
   22SAPC   C28 2886   1.209   1.746  10.142  0.3378 -0.1977  0.8620
   22SAPC   H8R 2887   1.117   1.804  10.159 -0.7840 -1.1014 -1.9670
   22SAPC   C29 2888   1.236   1.702  10.017  0.2671 -0.1173 -0.3152
   22SAPC   H9R 2889   1.159   1.737   9.946  0.7153 -1.0315 -1.2736
   22SAPC  C210 2890   1.364   1.641   9.960  0.6339  0.4798  0.1193
   22SAPC  H10R 2891   1.421   1.586  10.038  1.6662  0.8340 -0.3652
   22SAPC  H10S 2892   1.437   1.720   9.931 -0.4292  0.9203 -1.4498
   22SAPC  C211 2893   1.325   1.555   9.840 -0.9349 -0.2062  0.1591
   22SAPC  H11R 2894   1.294   1.453   9.867 -1.9203  0.2061  0.6130
   22SAPC  C212 2895   1.323   1.599   9.713  0.7150 -0.6927  0.2139
   22SAPC  H12R 2896   1.293   1.528   9.635  1.2155 -1.3249  0.5859
   22SAPC  C213 2897   1.364   1.736   9.660  0.1125  0.5541  0.7574
   22SAPC  H13R 2898   1.386   1.815   9.735 -1.3393  0.6753  1.0803
   22SAPC  H13S 2899   1.270   1.762   9.606  0.8628 -1.4666 -1.6040
   22SAPC  C214 2900   1.466   1.732   9.545  0.1470 -0.3904 -0.1859
   22SAPC  H14R 2901   1.432   1.712   9.442  1.8775  0.2799 -0.9249
   22SAPC  C215 2902   1.596   1.773   9.559 -0.5363  0.6531  0.0215
   22SAPC  H15R 2903   1.669   1.748   9.481  0.9144  0.3535  1.4714
   22SAPC  C216 2904   1.652   1.837   9.681  0.6685 -0.0106 -0.2597
   22SAPC  H16R 2905   1.615   1.782   9.770  2.0753  2.6975  2.0906
   22SAPC  H16S 2906   1.610   1.940   9.683  0.5457 -0.0817  1.2418
   22SAPC  C217 2907   1.800   1.857   9.689  0.5306  0.2271  0.3121
   22SAPC  H17R 2908   1.845   1.911   9.603 -0.9520 -0.4341 -0.8892
   22SAPC  H17S 2909   1.856   1.761   9.678  0.6777  0.5244 -1.6641
   22SAPC  C218 2910   1.822   1.934   9.821 -0.9238 -0.4914 -0.1209
   22SAPC  H18R 2911   1.794   1.882   9.915  0.0666 -0.1390  0.3843
   22SAPC  H18S 2912   1.764   2.028   9.811  0.3027  0.1627 -1.2535
   22SAPC  C219 2913   1.977   1.979   9.834 -0.0732  0.3613  0.4526
   22SAPC  H19R 2914   1.994   2.043   9.744 -0.1986  0.1056  0.2467
   22SAPC  H19S 2915   2.045   1.893   9.815 -2.2191 -1.1204 -0.7175
   22SAPC  C220 2916   2.023   2.053   9.961 -0.1837  0.4643  0.0006
   22SAPC  H20R 2917   1.973   2.152   9.961 -0.1398  0.4898  0.3821
   22SAPC  H20S 2918   2.132   2.071   9.951 -0.3180  2.0239  1.1711
   22SAPC  H20T 2919   2.008   2.008  10.062  0.6608 -1.7216 -0.8220
   22SAPC   C33 2920   2.109   1.642   9.968  0.4658  0.6967  0.3683
   22SAPC   H3X 2921   2.159   1.565  10.031  1.6007  1.8489  0.8909
   22SAPC   H3Y 2922   2.172   1.733   9.977  0.6381  0.3648  2.8767
   22SAPC   C34 2923   2.095   1.581   9.829  0.5936  0.2869 -0.1827
   22SAPC   H4X 2924   2.034   1.650   9.767  2.4446  1.1026 -1.1249
   22SAPC   H4Y 2925   2.044   1.483   9.828 -1.2778  1.2389  0.4390
   22SAPC   C35 2926   2.230   1.558   9.763 -0.4490 -0.7491  0.3914
   22SAPC   H5X 2927   2.283   1.490   9.834  0.8015  0.6182  0.7927
   22SAPC   H5Y 2928   2.295   1.648   9.763 -1.3002 -0.1223  0.8333
   22SAPC   C36 2929   2.225   1.494   9.622 -0.6365 -0.6511  0.9736
   22SAPC   H6X 2930   2.183   1.392   9.628  0.3039 -1.2132 -1.2755
   22SAPC   H6Y 2931   2.323   1.506   9.571 -1.4188  0.1004 -0.3961
   22SAPC   C37 2932   2.136   1.566   9.514  0.5007 -0.2433 -0.2176
   22SAPC   H7X 2933   2.031   1.568   9.551  1.0397 -0.5345  1.3460
   22SAPC   H7Y 2934   2.146   1.507   9.420 -1.0801 -0.0601 -0.5187
   22SAPC   C38 2935   2.173   1.710   9.494 -0.3325  0.6399  0.4088
   22SAPC   H8X 2936   2.278   1.714   9.460 -0.2582 -1.7457  0.2358
   22SAPC   H8Y 2937   2.150   1.780   9.576 -0.0213  0.6764  0.4601
   22SAPC   C39 2938   2.097   1.767   9.367 -1.6269  0.3602 -0.0524
   22SAPC   H9X 2939   2.150   1.727   9.278 -0.6355 -0.8919  1.0672
   22SAPC   H9Y 2940   2.101   1.877   9.358  2.3427  0.2553 -0.6321
   22SAPC  C310 2941   1.947   1.731   9.355  0.4120  0.0336  0.2880
   22SAPC  H10X 2942   1.891   1.803   9.419  1.2451  0.6354  0.3459
   22SAPC  H10Y 2943   1.921   1.630   9.391 -1.7554  0.9852  1.4745
   22SAPC  C311 2944   1.905   1.743   9.211  0.2450 -0.2084 -0.5345
   22SAPC  H11X 2945   1.944   1.650   9.164  2.0532  0.4353 -0.3243
   22SAPC  H11Y 2946   1.958   1.833   9.173  0.9545 -0.0360  0.8056
   22SAPC  C312 2947   1.756   1.737   9.190  0.0501  0.2017  0.2261
   22SAPC  H12X 2948   1.714   1.817   9.255 -2.0016 -1.5829  1.1463
   22SAPC  H12Y 2949   1.719   1.640   9.229  0.7344  0.1744  0.8217
   22SAPC  C313 2950   1.701   1.757   9.048 -0.6684  0.0602 -0.1136
   22SAPC  H13X 2951   1.721   1.858   9.005  0.7319  0.1365  0.7086
   22SAPC  H13Y 2952   1.590   1.748   9.058 -0.5283  0.7142  2.1812
   22SAPC  C314 2953   1.776   1.672   8.945  0.5127  0.1054  0.2895
   22SAPC  H14X 2954   1.780   1.569   8.987  0.3706 -0.0929 -0.1783
   22SAPC  H14Y 2955   1.882   1.696   8.923  0.2396  0.0941 -1.0355
   22SAPC  C315 2956   1.710   1.661   8.805  0.0570 -0.3562 -0.2885
   22SAPC  H15X 2957   1.695   1.765   8.768  2.3279  0.5886  1.3983
   22SAPC  H15Y 2958   1.612   1.608   8.816  0.2372 -0.9609 -1.4489
   22SAPC  C316 2959   1.803   1.592   8.706 -0.2119  0.4967  0.4002
   22SAPC  H16X 2960   1.852   1.506   8.757  0.6869  0.4832 -0.4692
   22SAPC  H16Y 2961   1.887   1.663   8.696 -1.1364  1.5496 -0.0021
   22SAPC  C317 2962   1.733   1.570   8.576 -0.0109  0.2472  0.0351
   22SAPC  H17X 2963   1.808   1.554   8.495 -1.1607  0.6313 -1.1320
   22SAPC  H17Y 2964   1.674   1.660   8.549  0.4315  1.5718  3.2940
   22SAPC  C318 2965   1.636   1.450   8.575  0.4781 -0.1915 -0.1712
   22SAPC  H18X 2966   1.582   1.438   8.671  0.4724  2.3563  0.1731
   22SAPC  H18Y 2967   1.698   1.359   8.558  0.3302 -0.5274  1.0454
   22SAPC  H18Z 2968   1.556   1.463   8.500 -0.5303  1.8704  1.2133
   23SAPC     N 2969   3.261   3.236  10.930 -0.3012  0.5871  0.0014
   23SAPC   C12 2970   3.197   3.155  10.818  0.4697  0.0683 -0.1132
   23SAPC  H12A 2971   3.118   3.208  10.767 -0.4010 -1.6858 -0.6472
   23SAPC  H12B 2972   3.149   3.070  10.864  1.9496 -0.5617  0.2802
   23SAPC   C13 2973   3.355   3.337  10.876 -0.2022 -0.1632 -0.5041
   23SAPC  H13A 2974   3.405   3.394  10.954 -0.1755 -0.0878 -0.5755
   23SAPC  H13B 2975   3.440   3.292  10.826  0.6030 -2.3359  2.7054
   23SAPC  H13C 2976   3.304   3.402  10.806  1.6674  0.3221 -1.4482
   23SAPC   C14 2977   3.144   3.305  11.001 -0.0388  0.2947  0.5405
   23SAPC  H14A 2978   3.185   3.363  11.083  0.1613  3.1665 -1.5198
   23SAPC  H14B 2979   3.088   3.367  10.933  2.0527  0.2088 -1.2976
   23SAPC  H14C 2980   3.075   3.227  11.032  1.1940 -0.9072  0.2988
   23SAPC   C15 2981   3.329   3.146  11.028 -0.3752 -0.0869  0.8853
   23SAPC  H15A 2982   3.273   3.066  11.073 -2.8537  2.6140  2.7829
   23SAPC  H15B 2983   3.403   3.092  10.970  0.7612 -2.3302  4.2751
   23SAPC  H15C 2984   3.370   3.189  11.119  0.5845  0.9016 -0.0015
   23SAPC   C11 2985   3.295   3.100  10.714 -0.9835  0.1765  0.0879
   23SAPC  H11A 2986   3.333   3.183  10.650  2.0908 -1.5113 -0.3987
   23SAPC  H11B 2987   3.236   3.032  10.648  0.5760 -0.8918 -0.2503
   23SAPC     P 2988   3.444   2.885  10.737  0.3131 -0.2262  0.2051
   23SAPC   O13 2989   3.577   2.857  10.796 -0.4774  0.1562  1.2438
   23SAPC   O14 2990   3.326   2.794  10.758 -0.2125 -0.3177 -0.1534
   23SAPC   O12 2991   3.401   3.029  10.773  0.1387  0.5286  0.3479
   23SAPC   O11 2992   3.454   2.911  10.582  0.1188  0.9789  0.3309
   23SAPC    C1 2993   3.545   3.009  10.526 -0.3804  0.4347  0.5493
   23SAPC    HA 2994   3.501   3.111  10.523 -0.9945  0.1946  1.2943
   23SAPC    HB 2995   3.640   3.016  10.584 -0.7256 -0.2410  1.2048
   23SAPC    C2 2996   3.582   2.988  10.373 -0.0652  0.1731  0.6082
   23SAPC    HS 2997   3.610   3.085  10.327  1.3492  0.1536  1.3959
   23SAPC   O21 2998   3.458   2.941  10.304 -0.1942 -0.2757  0.6868
   23SAPC   C21 2999   3.347   3.013  10.305  0.3787 -0.2216 -0.0752
   23SAPC   O22 3000   3.337   3.127  10.334 -0.5256  0.2305  0.7754
   23SAPC   C22 3001   3.224   2.926  10.274  0.3149  0.0996  0.2002
   23SAPC   H2R 3002   3.251   2.828  10.319  0.7011 -0.2686 -0.8204
   23SAPC   H2S 3003   3.137   2.967  10.328 -1.8065 -1.8059 -1.6488
   23SAPC    C3 3004   3.702   2.887  10.357 -0.8543  0.2118 -0.4676
   23SAPC    HX 3005   3.675   2.801  10.422  2.0625  0.2535  0.8403
   23SAPC    HY 3006   3.797   2.930  10.395 -0.3591 -0.0819 -1.3417
   23SAPC   O31 3007   3.715   2.855  10.224  0.8330 -0.1381 -0.1196
   23SAPC   C31 3008   3.647   2.754  10.180  0.3455 -0.5219  0.0452
   23SAPC   O32 3009   3.579   2.674  10.241 -0.5404  0.0226  0.0713
   23SAPC   C32 3010   3.636   2.781  10.022  0.4795  0.7646  0.0392
   23SAPC   H2X 3011   3.542   2.731   9.992  0.6069  0.0728  0.7639
   23SAPC   H2Y 3012   3.732   2.748   9.975 -0.1262 -0.4141 -0.4110
   23SAPC   C23 3013   3.199   2.892  10.123  0.6762  0.1300  0.5677
   23SAPC   H3R 3014   3.146   2.794  10.129  0.5068  0.2314  0.7266
   23SAPC   H3S 3015   3.293   2.868  10.067 -1.0686 -0.3646 -2.2507
   23SAPC   C24 3016   3.125   2.991  10.035  0.2773 -0.2200  0.0392
   23SAPC   H4R 3017   3.036   3.030  10.088  0.1902  1.5588 -1.3617
   23SAPC   H4S 3018   3.082   2.933   9.950 -0.5805  0.7127 -0.1782
   23SAPC   C25 3019   3.213   3.097   9.974 -0.3961  0.5050 -0.1328
   23SAPC   H5R 3020   3.235   3.180  10.042 -2.6251  0.6915  0.4006
   23SAPC   C26 3021   3.270   3.106   9.851 -0.4260  0.7315  0.1947
   23SAPC   H6R 3022   3.341   3.187   9.829 -0.4742  0.4386 -1.0704
   23SAPC   C27 3023   3.253   3.009   9.744 -0.9102  0.4894 -0.4445
   23SAPC   H7R 3024   3.259   2.905   9.784 -3.5379  0.8380  1.0289
   23SAPC   H7S 3025   3.340   3.004   9.676  0.0467 -0.6883  0.8407
   23SAPC   C28 3026   3.128   3.042   9.661 -0.2436  0.0929  0.2784
   23SAPC   H8R 3027   3.036   2.997   9.703 -1.0116  2.3330  1.0917
   23SAPC   C29 3028   3.128   3.111   9.549  0.5771 -0.5187 -0.0249
   23SAPC   H9R 3029   3.027   3.130   9.510  0.5016 -1.3916 -0.2695
   23SAPC  C210 3030   3.246   3.171   9.472  0.2786 -0.2231  0.5617
   23SAPC  H10R 3031   3.306   3.240   9.536 -2.1579  1.1009  1.4811
   23SAPC  H10S 3032   3.204   3.225   9.385 -0.0514 -2.3240 -0.6226
   23SAPC  C211 3033   3.335   3.067   9.415  0.1283  0.0449 -0.3428
   23SAPC  H11R 3034   3.359   2.975   9.470  2.0764  0.4956 -0.4035
   23SAPC  C212 3035   3.375   3.062   9.286 -0.4176  0.1305 -1.7962
   23SAPC  H12R 3036   3.426   2.968   9.261  0.6439  0.2391 -0.1341
   23SAPC  C213 3037   3.348   3.158   9.177  0.1138 -0.3073 -1.1067
   23SAPC  H13R 3038   3.434   3.188   9.113 -0.0200  0.0625 -1.1160
   23SAPC  H13S 3039   3.319   3.256   9.221  1.4508 -0.1573 -0.5303
   23SAPC  C214 3040   3.230   3.117   9.094 -0.0397  0.4840 -0.0001
   23SAPC  H14R 3041   3.160   3.051   9.149  0.3374  0.3437  0.3099
   23SAPC  C215 3042   3.200   3.154   8.967  0.0851 -0.4554 -0.3954
   23SAPC  H15R 3043   3.098   3.134   8.932 -0.7142  0.1407  1.5037
   23SAPC  C216 3044   3.293   3.239   8.881  0.5253  0.4158  0.4016
   23SAPC  H16R 3045   3.271   3.215   8.775  1.6926 -2.2791  0.7399
   23SAPC  H16S 3046   3.398   3.211   8.906 -0.3696 -2.3368  1.2341
   23SAPC  C217 3047   3.289   3.395   8.898  0.3436 -0.7024  0.2771
   23SAPC  H17R 3048   3.345   3.440   8.813 -0.4342  2.2143  1.2393
   23SAPC  H17S 3049   3.338   3.423   8.994  0.1336  0.5369  0.0329
   23SAPC  C218 3050   3.149   3.448   8.887  0.0942 -0.3272  0.6941
   23SAPC  H18R 3051   3.089   3.419   8.976 -1.2211 -0.4067 -0.2122
   23SAPC  H18S 3052   3.093   3.412   8.799  1.4008  0.2855 -0.4102
   23SAPC  C219 3053   3.155   3.600   8.879  0.4226 -0.4628 -0.2868
   23SAPC  H19R 3054   3.220   3.614   8.790 -0.0626 -2.0040 -0.8954
   23SAPC  H19S 3055   3.212   3.645   8.963  1.0405 -1.2182 -0.2962
   23SAPC  C220 3056   3.010   3.663   8.855 -0.3937 -0.1192  0.6042
   23SAPC  H20R 3057   2.962   3.632   8.950  0.3317  0.4058  1.1495
   23SAPC  H20S 3058   2.949   3.623   8.771 -0.2647  0.3982  0.2615
   23SAPC  H20T 3059   3.030   3.772   8.841 -2.3447  0.0595 -1.0256
   23SAPC   C33 3060   3.628   2.926   9.989  0.8368 -0.1450  0.1810
   23SAPC   H3X 3061   3.721   2.984  10.003  0.3239  0.5270  0.8415
   23SAPC   H3Y 3062   3.534   2.971  10.029  0.9805  0.9259 -0.6719
   23SAPC   C34 3063   3.594   2.938   9.839 -0.6285  0.5491 -1.2283
   23SAPC   H4X 3064   3.569   3.044   9.816 -2.2606  0.2820 -0.7418
   23SAPC   H4Y 3065   3.497   2.887   9.820 -0.4575  0.6972 -2.5616
   23SAPC   C35 3066   3.702   2.895   9.739 -0.5823  0.0758  0.0020
   23SAPC   H5X 3067   3.721   2.786   9.750 -0.1996 -0.0606 -1.7724
   23SAPC   H5Y 3068   3.797   2.937   9.779 -0.3695 -2.0727  1.8825
   23SAPC   C36 3069   3.667   2.936   9.603 -0.3900 -0.4355 -0.3796
   23SAPC   H6X 3070   3.618   3.036   9.605 -1.9321 -1.2018  2.0175
   23SAPC   H6Y 3071   3.600   2.854   9.570  0.0097 -1.2874  0.8976
   23SAPC   C37 3072   3.798   2.952   9.521 -0.9802 -0.2529 -0.1551
   23SAPC   H7X 3073   3.856   2.857   9.521  1.8148  1.3722  1.8064
   23SAPC   H7Y 3074   3.867   3.025   9.568 -1.5139 -0.0463  0.3104
   23SAPC   C38 3075   3.769   2.984   9.376 -0.1234  0.2461  0.0051
   23SAPC   H8X 3076   3.715   3.081   9.378  1.7467  1.2961  2.4252
   23SAPC   H8Y 3077   3.709   2.894   9.353  3.0423 -1.3169 -2.4745
   23SAPC   C39 3078   3.893   3.005   9.284 -0.0410  0.9117  0.3215
   23SAPC   H9X 3079   3.936   2.904   9.265 -1.6613 -0.3126  2.9002
   23SAPC   H9Y 3080   3.969   3.057   9.346  1.6215 -1.8151  0.6727
   23SAPC  C310 3081   3.862   3.062   9.143 -0.5414  0.6580  0.4370
   23SAPC  H10X 3082   3.959   3.077   9.091 -0.5518 -0.1494  0.1811
   23SAPC  H10Y 3083   3.810   3.160   9.156 -0.4222  0.9665 -1.3380
   23SAPC  C311 3084   3.765   2.979   9.063 -0.1496 -0.2090  1.0058
   23SAPC  H11X 3085   3.667   2.983   9.114  0.5144  0.7420  2.2284
   23SAPC  H11Y 3086   3.805   2.875   9.068 -0.1422 -0.1643  1.8222
   23SAPC  C312 3087   3.744   3.024   8.916 -0.1881  0.4599 -0.2647
   23SAPC  H12X 3088   3.844   3.008   8.869  0.1094 -0.6205  0.7057
   23SAPC  H12Y 3089   3.721   3.133   8.919  1.1026  0.7381  0.0655
   23SAPC  C313 3090   3.628   2.950   8.840  0.3528 -0.2996 -0.0329
   23SAPC  H13X 3091   3.539   2.938   8.906 -0.6372  2.0221 -0.8952
   23SAPC  H13Y 3092   3.660   2.848   8.809 -1.4494 -1.0352  0.4893
   23SAPC  C314 3093   3.597   3.024   8.712 -0.2122  0.4190 -0.8656
   23SAPC  H14X 3094   3.687   3.044   8.650  0.6747  0.3511  0.3783
   23SAPC  H14Y 3095   3.559   3.119   8.756  0.1479  0.6531 -1.0651
   23SAPC  C315 3096   3.485   2.959   8.629  0.1901  0.3741  0.7004
   23SAPC  H15X 3097   3.395   2.951   8.694  0.1132  0.0330  0.5534
   23SAPC  H15Y 3098   3.513   2.857   8.595  0.1281  1.2249 -2.0390
   23SAPC  C316 3099   3.462   3.052   8.510 -0.3000  0.3227 -0.6237
   23SAPC  H16X 3100   3.546   3.045   8.438  1.3832  1.2775  1.2092
   23SAPC  H16Y 3101   3.454   3.155   8.552 -0.8173  0.0373 -0.0153
   23SAPC  C317 3102   3.331   3.028   8.428  0.3232 -0.2310 -0.3544
   23SAPC  H17X 3103   3.323   2.919   8.414  2.5190 -0.4533  0.0209
   23SAPC  H17Y 3104   3.353   3.078   8.331 -0.2021 -0.6749 -0.7055
   23SAPC  C318 3105   3.198   3.085   8.483  0.0331 -0.4213  0.1996
   23SAPC  H18X 3106   3.177   3.057   8.588  1.2357 -0.4799  0.4328
   23SAPC  H18Y 3107   3.116   3.063   8.411 -0.9119 -0.1114  1.1870
   23SAPC  H18Z 3108   3.204   3.196   8.492 -0.6894 -0.5444  2.4228
   24SAPC     N 3109   5.357   2.944  11.043 -0.0008 -0.4613 -0.2246
   24SAPC   C12 3110   5.493   3.011  11.021  0.4678  0.2942  0.0106
   24SAPC  H12A 3111   5.491   3.070  10.931 -0.5270  0.5722  0.2125
   24SAPC  H12B 3112   5.566   2.933  11.005 -0.0869 -0.7078  2.2343
   24SAPC   C13 3113   5.356   2.865  11.168 -0.0704 -0.1320 -0.6531
   24SAPC  H13A 3114   5.447   2.807  11.173  1.2402  1.8984 -0.2790
   24SAPC  H13B 3115   5.335   2.931  11.251 -1.9490 -1.5179  0.0009
   24SAPC  H13C 3116   5.272   2.798  11.169 -0.7100  0.6683  0.1320
   24SAPC   C14 3117   5.254   3.056  11.048  0.0267 -0.6611 -0.2060
   24SAPC  H14A 3118   5.263   3.132  10.971 -0.3992  1.3740  1.6879
   24SAPC  H14B 3119   5.158   3.010  11.030 -1.5697  3.0530 -1.8695
   24SAPC  H14C 3120   5.262   3.110  11.141 -0.6298  3.9281 -2.6623
   24SAPC   C15 3121   5.330   2.855  10.924 -0.2811 -0.8085 -0.9873
   24SAPC  H15A 3122   5.392   2.767  10.926 -0.2266 -0.7567  0.2100
   24SAPC  H15B 3123   5.231   2.812  10.928  0.5836 -2.7079  2.3312
   24SAPC  H15C 3124   5.348   2.913  10.835  0.9242 -0.5543 -0.5959
   24SAPC   C11 3125   5.546   3.102  11.134 -0.1491 -0.9281 -0.1435
   24SAPC  H11A 3126   5.655   3.113  11.116 -0.5377  2.8894 -0.6377
   24SAPC  H11B 3127   5.551   3.041  11.226 -2.1194 -1.0572 -0.1090
   24SAPC     P 3128   5.476   3.342  11.042 -0.0014  0.2382 -0.2980
   24SAPC   O13 3129   5.342   3.399  11.039  0.0401 -0.2483 -0.2572
   24SAPC   O14 3130   5.582   3.443  11.076  0.0928 -0.6394  0.1944
   24SAPC   O12 3131   5.484   3.229  11.155 -0.1771 -0.5840  0.2799
   24SAPC   O11 3132   5.517   3.274  10.904 -0.0478 -0.1202 -0.0936
   24SAPC    C1 3133   5.543   3.370  10.799 -0.0811  0.6033 -0.2302
   24SAPC    HA 3134   5.472   3.456  10.794 -1.0931 -0.1956  0.4124
   24SAPC    HB 3135   5.641   3.422  10.808 -0.5732  1.1721  2.0204
   24SAPC    C2 3136   5.542   3.283  10.671 -0.0914  0.1931 -0.8107
   24SAPC    HS 3137   5.568   3.348  10.584  1.5446  1.1287  0.3350
   24SAPC   O21 3138   5.414   3.212  10.658 -0.2517 -0.2824 -0.2338
   24SAPC   C21 3139   5.320   3.273  10.592  0.1427 -0.4700 -0.1709
   24SAPC   O22 3140   5.329   3.384  10.542  0.2594 -0.1961  0.0973
   24SAPC   C22 3141   5.201   3.175  10.593  0.1988 -0.6675  0.6254
   24SAPC   H2R 3142   5.196   3.130  10.695 -0.9288  1.0716  1.3535
   24SAPC   H2S 3143   5.107   3.230  10.571  0.9825 -0.4841 -2.4794
   24SAPC    C3 3144   5.654   3.179  10.682 -0.0258 -0.2596 -0.4649
   24SAPC    HX 3145   5.628   3.115  10.769 -0.0918  0.6646  0.1950
   24SAPC    HY 3146   5.757   3.215  10.703 -0.7172  0.9691  0.8996
   24SAPC   O31 3147   5.662   3.090  10.573  0.4853 -0.3027  0.1107
   24SAPC   C31 3148   5.725   3.138  10.461  0.2625  0.8928 -0.6176
   24SAPC   O32 3149   5.794   3.236  10.453 -0.0448 -0.6093  0.6934
   24SAPC   C32 3150   5.697   3.048  10.341 -0.1883 -0.0735  0.1044
   24SAPC   H2X 3151   5.607   2.985  10.356  0.0311 -0.6341 -0.8768
   24SAPC   H2Y 3152   5.777   2.972  10.324  0.1642  0.6865 -1.8093
   24SAPC   C23 3153   5.222   3.063  10.494 -0.4537  0.2243  0.6059
   24SAPC   H3R 3154   5.170   2.970  10.523 -2.2972  1.3248  0.9372
   24SAPC   H3S 3155   5.331   3.044  10.494 -0.4993 -0.0311  1.0029
   24SAPC   C24 3156   5.180   3.117  10.351  0.3163  0.5356  1.0821
   24SAPC   H4R 3157   5.212   3.220  10.326 -0.5752 -0.2253 -3.8856
   24SAPC   H4S 3158   5.069   3.113  10.346  0.4169 -1.4540 -0.2706
   24SAPC   C25 3159   5.227   3.022  10.242 -0.2972 -0.2877 -0.1668
   24SAPC   H5R 3160   5.223   2.919  10.279  1.7235 -0.6919 -1.0223
   24SAPC   C26 3161   5.286   3.045  10.122  0.0764 -0.0936 -0.1094
   24SAPC   H6R 3162   5.292   2.959  10.054 -1.2831  1.6256 -2.4973
   24SAPC   C27 3163   5.324   3.176  10.054 -0.0495  0.2789  0.3833
   24SAPC   H7R 3164   5.402   3.161   9.976 -1.9951 -0.2165 -1.5195
   24SAPC   H7S 3165   5.380   3.239  10.127 -0.8965  0.6152  0.7459
   24SAPC   C28 3166   5.205   3.244   9.990 -0.0274  0.1787  0.2720
   24SAPC   H8R 3167   5.114   3.255  10.051  0.0124  0.5359  0.2678
   24SAPC   C29 3168   5.188   3.271   9.861  0.1307  0.3682  0.8187
   24SAPC   H9R 3169   5.090   3.314   9.837 -1.1741 -3.1667 -0.4519
   24SAPC  C210 3170   5.287   3.257   9.746 -0.1147  0.1175  0.4579
   24SAPC  H10R 3171   5.389   3.262   9.789  0.4175  0.8571 -0.8695
   24SAPC  H10S 3172   5.268   3.348   9.686 -0.8924 -0.5188 -0.2720
   24SAPC  C211 3173   5.267   3.124   9.677 -0.4143 -0.1631  0.6648
   24SAPC  H11R 3174   5.274   3.032   9.737 -1.3825 -0.8723 -0.2808
   24SAPC  C212 3175   5.243   3.105   9.545 -0.7398  0.4335  0.5100
   24SAPC  H12R 3176   5.224   3.005   9.502  1.5763 -0.3177  1.1450
   24SAPC  C213 3177   5.225   3.214   9.443  0.0373 -0.4731 -0.3528
   24SAPC  H13R 3178   5.327   3.248   9.418  0.5737 -1.6968  0.1236
   24SAPC  H13S 3179   5.168   3.303   9.479 -0.5773 -0.8189 -0.4560
   24SAPC  C214 3180   5.150   3.164   9.321 -0.1501 -0.2114  0.5866
   24SAPC  H14R 3181   5.079   3.082   9.339 -0.2865 -0.3691 -0.5805
   24SAPC  C215 3182   5.168   3.214   9.199  0.4289 -1.0163 -0.5069
   24SAPC  H15R 3183   5.112   3.168   9.117  1.2172  0.4229 -1.8868
   24SAPC  C216 3184   5.263   3.329   9.180 -0.8859 -0.1886  0.5673
   24SAPC  H16R 3185   5.363   3.289   9.153 -2.2248 -3.1040 -0.2779
   24SAPC  H16S 3186   5.268   3.391   9.273 -0.5082 -0.3349  0.6467
   24SAPC  C217 3187   5.211   3.409   9.064  0.8519  0.5045 -0.0740
   24SAPC  H17R 3188   5.266   3.504   9.078 -0.3289  1.0931  0.6893
   24SAPC  H17S 3189   5.105   3.440   9.073  1.1469  1.6065 -0.3558
   24SAPC  C218 3190   5.242   3.349   8.924  0.8523 -0.7126 -0.0530
   24SAPC  H18R 3191   5.188   3.252   8.918  0.6869 -0.9035  3.5595
   24SAPC  H18S 3192   5.352   3.335   8.917  0.9548  0.4237 -0.8815
   24SAPC  C219 3193   5.208   3.438   8.806  0.5310  0.0966  0.2865
   24SAPC  H19R 3194   5.258   3.535   8.828  0.1912 -0.3692  3.3059
   24SAPC  H19S 3195   5.100   3.462   8.812 -0.0179 -1.9939 -0.8546
   24SAPC  C220 3196   5.260   3.374   8.682 -0.5433 -0.2933 -0.4133
   24SAPC  H20R 3197   5.238   3.265   8.682  0.2083 -0.5441  3.3285
   24SAPC  H20S 3198   5.371   3.381   8.684 -0.3876 -2.3651  2.0210
   24SAPC  H20T 3199   5.207   3.425   8.599 -0.0688  3.6713  1.5780
   24SAPC   C33 3200   5.695   3.130  10.207  0.6800 -0.0660 -0.3169
   24SAPC   H3X 3201   5.781   3.201  10.210 -0.1977  0.9728  0.8029
   24SAPC   H3Y 3202   5.597   3.179  10.192 -0.4572 -1.9951  0.7215
   24SAPC   C34 3203   5.714   3.036  10.084 -0.0518 -0.1037  0.1084
   24SAPC   H4X 3204   5.620   2.976  10.080  1.1057 -1.8285 -2.6749
   24SAPC   H4Y 3205   5.792   2.958  10.094 -2.0202 -2.2016 -0.3180
   24SAPC   C35 3206   5.723   3.107   9.948 -0.8012 -0.5517 -0.0940
   24SAPC   H5X 3207   5.627   3.149   9.911 -0.6110 -2.0986 -2.4278
   24SAPC   H5Y 3208   5.748   3.023   9.879 -2.0499  0.6396 -2.0256
   24SAPC   C36 3209   5.834   3.210   9.941 -0.4338  0.5751 -0.0140
   24SAPC   H6X 3210   5.924   3.184  10.001  1.2216  0.6206 -2.3951
   24SAPC   H6Y 3211   5.790   3.306   9.978  2.5709  2.1674 -0.4141
   24SAPC   C37 3212   5.890   3.227   9.801  0.0182 -0.4433  0.3452
   24SAPC   H7X 3213   5.945   3.135   9.770 -2.6075 -1.8532 -0.2793
   24SAPC   H7Y 3214   5.953   3.319   9.797  1.6521 -1.4592  2.0603
   24SAPC   C38 3215   5.779   3.251   9.700 -0.7876 -0.9408 -0.5068
   24SAPC   H8X 3216   5.691   3.312   9.730 -0.6226 -0.5334 -0.8376
   24SAPC   H8Y 3217   5.746   3.147   9.677 -0.5399 -1.3073  0.7762
   24SAPC   C39 3218   5.830   3.320   9.572  0.1444 -0.7613 -0.5873
   24SAPC   H9X 3219   5.928   3.270   9.555  0.5982 -0.6884  1.6719
   24SAPC   H9Y 3220   5.848   3.428   9.586  1.1255 -1.2863  2.5601
   24SAPC  C310 3221   5.741   3.305   9.451  0.4522 -0.0035 -0.6185
   24SAPC  H10X 3222   5.647   3.354   9.483  2.5302  1.6632  3.1824
   24SAPC  H10Y 3223   5.722   3.196   9.435  0.8500  0.0253 -1.3071
   24SAPC  C311 3224   5.792   3.373   9.324  0.6748 -0.0865 -0.2739
   24SAPC  H11X 3225   5.884   3.325   9.285  0.6746  0.4416 -0.9334
   24SAPC  H11Y 3226   5.809   3.482   9.337 -2.6092  0.2997  1.5674
   24SAPC  C312 3227   5.682   3.358   9.216 -0.3373  0.6726 -0.1798
   24SAPC  H12X 3228   5.581   3.381   9.254 -0.4637 -2.8238  1.8923
   24SAPC  H12Y 3229   5.679   3.249   9.195  0.4699  0.6651 -0.2684
   24SAPC  C313 3230   5.716   3.431   9.091  0.1106 -0.0331  0.3760
   24SAPC  H13X 3231   5.809   3.403   9.038  0.3711  1.4802 -0.0110
   24SAPC  H13Y 3232   5.743   3.536   9.118 -0.7891 -0.0313  1.2952
   24SAPC  C314 3233   5.598   3.430   8.990 -0.1010 -0.3203  0.3382
   24SAPC  H14X 3234   5.512   3.478   9.041 -0.0827 -1.5319  1.5670
   24SAPC  H14Y 3235   5.570   3.324   8.970  0.4976 -0.6849  1.3764
   24SAPC  C315 3236   5.614   3.513   8.859  0.0846 -0.0760 -0.4892
   24SAPC  H15X 3237   5.508   3.520   8.826 -0.1378 -0.5333  0.1142
   24SAPC  H15Y 3238   5.670   3.462   8.778 -0.0367 -3.1571  1.3118
   24SAPC  C316 3239   5.649   3.662   8.882 -0.0384  0.4861  0.1534
   24SAPC  H16X 3240   5.751   3.670   8.925  1.0426  1.2512 -2.4310
   24SAPC  H16Y 3241   5.576   3.703   8.955 -1.2533  1.1949 -1.4142
   24SAPC  C317 3242   5.630   3.760   8.764  0.2872  1.0819 -0.8266
   24SAPC  H17X 3243   5.521   3.758   8.741 -0.2748  2.2542  1.4527
   24SAPC  H17Y 3244   5.695   3.741   8.676  1.0268  1.0240 -0.2730
   24SAPC  C318 3245   5.645   3.908   8.806  0.0847  0.2254 -0.2277
   24SAPC  H18X 3246   5.594   3.969   8.728 -2.3563  0.0082  1.1412
   24SAPC  H18Y 3247   5.752   3.936   8.806 -0.5187  2.6548  1.3282
   24SAPC  H18Z 3248   5.602   3.933   8.905  0.4823  0.1651 -0.0389
   25SAPC     N 3249   2.672   0.660   5.619  0.0020  0.1354  0.1889
   25SAPC   C12 3250   2.674   0.806   5.668 -0.0227 -0.2721 -0.1332
   25SAPC  H12A 3251   2.573   0.843   5.658  0.7697  1.6140 -1.5841
   25SAPC  H12B 3252   2.734   0.855   5.592 -0.3475 -1.7855 -1.4024
   25SAPC   C13 3253   2.560   0.582   5.681  0.1652 -0.3880  0.2641
   25SAPC  H13A 3254   2.531   0.491   5.631 -1.5206  0.1798  0.2034
   25SAPC  H13B 3255   2.584   0.555   5.783  3.5373  1.3214 -0.0207
   25SAPC  H13C 3256   2.465   0.631   5.669 -0.5153 -2.3671 -2.9464
   25SAPC   C14 3257   2.659   0.652   5.471 -1.1973  0.7118 -0.4529
   25SAPC  H14A 3258   2.574   0.712   5.441 -2.6419 -0.5379  1.0384
   25SAPC  H14B 3259   2.746   0.691   5.420 -1.0503 -0.2081 -0.9106
   25SAPC  H14C 3260   2.646   0.552   5.433  0.9013  0.4245 -0.4767
   25SAPC   C15 3261   2.811   0.600   5.640 -0.1044 -0.3976  0.8780
   25SAPC  H15A 3262   2.888   0.660   5.593  0.3526 -0.6462  1.3062
   25SAPC  H15B 3263   2.841   0.601   5.744  2.1487 -0.4849  0.2682
   25SAPC  H15C 3264   2.813   0.499   5.602 -1.0489  0.2947 -1.0515
   25SAPC   C11 3265   2.729   0.845   5.805  0.2788  0.3557  0.1755
   25SAPC  H11A 3266   2.710   0.954   5.806  0.0849  0.3399 -1.4552
   25SAPC  H11B 3267   2.839   0.832   5.813  0.6854  2.2173 -2.0820
   25SAPC     P 3268   2.500   0.807   5.947 -0.3017  0.6476  0.0177
   25SAPC   O13 3269   2.432   0.884   5.839 -0.2293  0.4946 -0.4665
   25SAPC   O14 3270   2.433   0.681   5.964 -0.1094  0.1160  0.2319
   25SAPC   O12 3271   2.650   0.773   5.904 -0.3962  0.3868  0.0478
   25SAPC   O11 3272   2.497   0.896   6.075 -0.3383  0.1046  0.8515
   25SAPC    C1 3273   2.615   0.957   6.120 -0.8297  0.1282 -0.3321
   25SAPC    HA 3274   2.701   0.889   6.138  1.5017  2.7884 -0.9373
   25SAPC    HB 3275   2.652   1.038   6.053 -0.2681 -1.5744 -2.1059
   25SAPC    C2 3276   2.595   1.027   6.262 -0.1721  0.0058  0.7274
   25SAPC    HS 3277   2.684   1.085   6.291  0.4128 -0.5765  0.1109
   25SAPC   O21 3278   2.557   0.930   6.357  0.5107 -0.2526  0.2858
   25SAPC   C21 3279   2.657   0.866   6.409 -0.2719  0.2503  0.6371
   25SAPC   O22 3280   2.778   0.877   6.385 -0.2741  0.4011 -0.1208
   25SAPC   C22 3281   2.600   0.778   6.520 -0.5293  0.2774 -0.0489
   25SAPC   H2R 3282   2.490   0.791   6.523 -1.3385 -4.5760 -2.6073
   25SAPC   H2S 3283   2.620   0.674   6.485  2.6315  0.9217 -0.2811
   25SAPC    C3 3284   2.481   1.132   6.254  0.0847 -0.3690 -0.1492
   25SAPC    HX 3285   2.382   1.088   6.231 -0.3302 -0.2746  1.3630
   25SAPC    HY 3286   2.508   1.201   6.171  0.9736  1.4873  1.6363
   25SAPC   O31 3287   2.493   1.213   6.372  0.2058 -0.6972 -0.5619
   25SAPC   C31 3288   2.374   1.271   6.398  0.0824 -0.1896  0.2118
   25SAPC   O32 3289   2.272   1.252   6.339 -0.1040 -0.2354  0.1613
   25SAPC   C32 3290   2.388   1.354   6.514 -0.3688 -0.2737  0.4083
   25SAPC   H2X 3291   2.327   1.447   6.524 -2.0100 -1.0759 -1.7742
   25SAPC   H2Y 3292   2.494   1.388   6.522 -0.6700  0.4221  1.6035
   25SAPC   C23 3293   2.665   0.806   6.657  0.2210  0.7403  0.0299
   25SAPC   H3R 3294   2.655   0.910   6.696  1.1700  0.6997  0.3997
   25SAPC   H3S 3295   2.775   0.793   6.643  0.2670 -0.1291  1.1474
   25SAPC   C24 3296   2.613   0.711   6.767  0.5242  0.4674 -0.2140
   25SAPC   H4R 3297   2.503   0.717   6.782  0.8458  1.3923  1.9121
   25SAPC   H4S 3298   2.670   0.743   6.857  1.8471  0.2540 -0.9556
   25SAPC   C25 3299   2.665   0.571   6.739  0.0161 -0.2041 -0.2707
   25SAPC   H5R 3300   2.773   0.565   6.718  0.0864 -0.4619  0.1526
   25SAPC   C26 3301   2.591   0.459   6.731  0.6175 -0.3638 -0.3527
   25SAPC   H6R 3302   2.650   0.369   6.709  0.0427 -0.6610 -0.7128
   25SAPC   C27 3303   2.439   0.449   6.747 -0.0792 -0.1482 -0.1427
   25SAPC   H7R 3304   2.377   0.525   6.695  0.1330 -1.3822 -2.2977
   25SAPC   H7S 3305   2.408   0.460   6.853  1.9674 -1.6850  0.6512
   25SAPC   C28 3306   2.383   0.318   6.699  0.2312 -0.3332  0.1916
   25SAPC   H8R 3307   2.376   0.303   6.591  2.8739  1.7085 -0.3087
   25SAPC   C29 3308   2.345   0.220   6.778  0.3229  0.1367 -0.6391
   25SAPC   H9R 3309   2.310   0.127   6.731 -1.6126  0.0203  0.9488
   25SAPC  C210 3310   2.347   0.207   6.926  0.7205 -0.4022 -0.1392
   25SAPC  H10R 3311   2.413   0.290   6.960 -1.3498  0.9482  0.6707
   25SAPC  H10S 3312   2.401   0.114   6.952 -0.5600 -1.6696 -1.8679
   25SAPC  C211 3313   2.220   0.209   7.002  0.0049 -0.3683  0.5444
   25SAPC  H11R 3314   2.140   0.151   6.955  0.9053  0.1555 -1.7096
   25SAPC  C212 3315   2.192   0.261   7.119 -0.1069 -0.0165 -0.0771
   25SAPC  H12R 3316   2.088   0.250   7.156 -0.1675  0.9819  0.0751
   25SAPC  C213 3317   2.278   0.345   7.202 -0.2446 -0.1161  0.4624
   25SAPC  H13R 3318   2.228   0.442   7.224  1.3692  0.6979  0.6913
   25SAPC  H13S 3319   2.358   0.386   7.137  0.7817 -0.4485  1.4895
   25SAPC  C214 3320   2.353   0.262   7.299 -0.4996  0.0926 -0.5774
   25SAPC  H14R 3321   2.407   0.173   7.263 -1.7428 -0.8743 -0.1180
   25SAPC  C215 3322   2.367   0.290   7.429 -0.3198  0.3806  0.0532
   25SAPC  H15R 3323   2.422   0.225   7.498  1.8760  0.9410 -1.1033
   25SAPC  C216 3324   2.295   0.403   7.495  0.4336 -0.6929  0.0080
   25SAPC  H16R 3325   2.269   0.386   7.602  0.1620 -0.1355  0.0352
   25SAPC  H16S 3326   2.201   0.425   7.439  0.5534 -1.3340 -0.4435
   25SAPC  C217 3327   2.377   0.527   7.486 -0.0687  0.1142  0.5558
   25SAPC  H17R 3328   2.322   0.610   7.536 -0.2337  0.0389  0.4987
   25SAPC  H17S 3329   2.391   0.573   7.386 -2.5360  0.2651  0.2543
   25SAPC  C218 3330   2.517   0.527   7.550  1.1239  1.1377 -0.5469
   25SAPC  H18R 3331   2.563   0.627   7.532 -1.3869  1.9592 -2.6878
   25SAPC  H18S 3332   2.586   0.450   7.509  1.2973  0.3268  1.2232
   25SAPC  C219 3333   2.520   0.494   7.697 -1.0389  0.3966  0.0063
   25SAPC  H19R 3334   2.478   0.392   7.714  1.1495 -0.8080 -1.5305
   25SAPC  H19S 3335   2.461   0.566   7.757  0.2350  1.2994  0.2052
   25SAPC  C220 3336   2.660   0.487   7.757 -0.1438 -0.6183  0.2285
   25SAPC  H20R 3337   2.711   0.585   7.743  0.0231 -0.8290 -0.6819
   25SAPC  H20S 3338   2.724   0.414   7.703  1.7733  0.2235  1.3040
   25SAPC  H20T 3339   2.665   0.452   7.862 -2.1978  1.6607  1.1227
   25SAPC   C33 3340   2.372   1.269   6.643 -0.3884  0.1178  0.4068
   25SAPC   H3X 3341   2.434   1.327   6.715  0.1506  2.1429 -1.6377
   25SAPC   H3Y 3342   2.398   1.161   6.637  1.9342  0.6161  1.1264
   25SAPC   C34 3343   2.232   1.283   6.698  0.2708 -0.5636  0.0597
   25SAPC   H4X 3344   2.159   1.206   6.666  0.2596 -0.2956 -0.5524
   25SAPC   H4Y 3345   2.195   1.387   6.681  1.0540 -0.1453  0.8683
   25SAPC   C35 3346   2.250   1.258   6.849 -0.2442  0.0055 -0.1391
   25SAPC   H5X 3347   2.304   1.338   6.902 -0.7158  0.5785 -0.5105
   25SAPC   H5Y 3348   2.294   1.158   6.872 -0.1923  0.7800  3.3896
   25SAPC   C36 3349   2.125   1.267   6.931  0.1337  0.0139 -1.3639
   25SAPC   H6X 3350   2.046   1.198   6.896  0.1224  1.3940 -4.1789
   25SAPC   H6Y 3351   2.086   1.368   6.905  0.8006  0.7230  0.3108
   25SAPC   C37 3352   2.148   1.284   7.086  0.5369  0.1972  0.3799
   25SAPC   H7X 3353   2.201   1.379   7.109 -0.9048  0.7688  1.4648
   25SAPC   H7Y 3354   2.207   1.195   7.117 -2.0403 -1.3933  0.9361
   25SAPC   C38 3355   2.015   1.300   7.163  0.6971 -0.3826 -0.4692
   25SAPC   H8X 3356   1.958   1.208   7.135 -1.7680  0.7335  0.7450
   25SAPC   H8Y 3357   1.960   1.395   7.145 -0.2718 -0.2504  2.7957
   25SAPC   C39 3358   2.022   1.291   7.315  1.0003 -0.9164  0.4322
   25SAPC   H9X 3359   2.061   1.379   7.370 -0.2673  1.3375 -2.1601
   25SAPC   H9Y 3360   2.078   1.197   7.332  2.6868 -0.2166 -1.1784
   25SAPC  C310 3361   1.889   1.266   7.375  0.1871 -0.2251  0.0020
   25SAPC  H10X 3362   1.835   1.192   7.313 -0.2118  0.6181 -0.6730
   25SAPC  H10Y 3363   1.825   1.356   7.357  1.9872  1.1282  0.2215
   25SAPC  C311 3364   1.876   1.233   7.529 -0.5188  0.4794 -0.7371
   25SAPC  H11X 3365   1.920   1.137   7.563  0.8810  1.5277  0.4408
   25SAPC  H11Y 3366   1.765   1.240   7.536 -0.5343 -0.8248  0.7279
   25SAPC  C312 3367   1.940   1.347   7.616 -0.4354  0.1306  0.1545
   25SAPC  H12X 3368   1.922   1.445   7.567  1.2267  0.2299 -0.2867
   25SAPC  H12Y 3369   2.050   1.335   7.617 -0.3001  1.2494  2.3730
   25SAPC  C313 3370   1.881   1.348   7.767  0.3772 -0.1264 -0.8300
   25SAPC  H13X 3371   1.916   1.252   7.811  2.2268 -0.3997 -2.8529
   25SAPC  H13Y 3372   1.770   1.343   7.767  0.3869 -0.4898  0.0868
   25SAPC  C314 3373   1.939   1.477   7.828  0.4729  0.2273  0.0338
   25SAPC  H14X 3374   1.908   1.569   7.774  0.5317  0.4631  0.3942
   25SAPC  H14Y 3375   2.050   1.476   7.831  0.4624  0.7387  0.9400
   25SAPC  C315 3376   1.885   1.490   7.970  0.3931 -0.2447  0.4575
   25SAPC  H15X 3377   1.907   1.401   8.033  1.8029 -0.4787 -0.3351
   25SAPC  H15Y 3378   1.774   1.488   7.962  0.4685 -0.3436 -0.6805
   25SAPC  C316 3379   1.929   1.616   8.046  0.8618 -0.0245 -0.0965
   25SAPC  H16X 3380   1.913   1.707   7.985 -2.1300  0.2628  1.0483
   25SAPC  H16Y 3381   2.039   1.608   8.061  1.0791  1.6293 -0.8061
   25SAPC  C317 3382   1.868   1.629   8.186  0.5624  0.4522  0.3207
   25SAPC  H17X 3383   1.901   1.544   8.250 -3.9478 -1.9685 -0.3463
   25SAPC  H17Y 3384   1.757   1.632   8.179  0.5878  1.6853  0.3855
   25SAPC  C318 3385   1.920   1.755   8.258  0.2160  0.0692 -0.2645
   25SAPC  H18X 3386   1.891   1.845   8.200  0.5781  0.0303 -0.5048
   25SAPC  H18Y 3387   2.031   1.762   8.257  0.1583  1.1345 -0.1066
   25SAPC  H18Z 3388   1.883   1.766   8.363  2.2393 -0.6154  0.5548
   26SAPC     N 3389   0.930   2.809   6.539  0.6197 -0.4136 -0.3326
   26SAPC   C12 3390   1.078   2.816   6.480  1.0064 -0.1090 -0.5218
   26SAPC  H12A 3391   1.139   2.733   6.512  1.7195 -0.0917 -1.7775
   26SAPC  H12B 3392   1.127   2.900   6.529 -0.9048  0.1224  1.0457
   26SAPC   C13 3393   0.844   2.710   6.475 -0.4133  0.0662 -0.0141
   26SAPC  H13A 3394   0.748   2.710   6.524 -0.1533 -0.8468  0.5143
   26SAPC  H13B 3395   0.827   2.737   6.372  0.3345  1.0131  0.1042
   26SAPC  H13C 3396   0.887   2.611   6.483  0.3112  0.5637  2.4263
   26SAPC   C14 3397   0.945   2.774   6.681  0.5717  1.0354 -0.4678
   26SAPC  H14A 3398   0.853   2.746   6.728  1.0865 -1.4734 -0.8514
   26SAPC  H14B 3399   1.016   2.692   6.682  0.2601  0.7643 -0.5332
   26SAPC  H14C 3400   0.985   2.854   6.742 -0.9302  1.5811 -0.2026
   26SAPC   C15 3401   0.859   2.942   6.526  0.6438  0.0842 -0.0199
   26SAPC  H15A 3402   0.760   2.924   6.565 -0.0133  0.1429 -1.5941
   26SAPC  H15B 3403   0.897   3.027   6.580 -0.8423  0.4327  0.4958
   26SAPC  H15C 3404   0.838   2.972   6.424  0.3640 -0.5057 -0.1387
   26SAPC   C11 3405   1.084   2.856   6.329  0.0494 -0.7670 -0.0387
   26SAPC  H11A 3406   1.187   2.882   6.296  0.5353 -1.4412  0.9210
   26SAPC  H11B 3407   1.019   2.943   6.308  1.7483  0.2462 -1.2238
   26SAPC     P 3408   1.112   2.618   6.245 -0.1248  0.0524  0.0186
   26SAPC   O13 3409   1.053   2.518   6.335  0.3188 -0.1630 -0.2783
   26SAPC   O14 3410   1.136   2.568   6.103  0.0781 -0.3235  0.6001
   26SAPC   O12 3411   1.035   2.753   6.242 -1.0889 -0.2975  0.3893
   26SAPC   O11 3412   1.253   2.647   6.301  0.0296 -0.1757  0.1903
   26SAPC    C1 3413   1.363   2.587   6.245 -0.2760  0.2920 -0.2217
   26SAPC    HA 3414   1.357   2.476   6.242  0.2238  0.2900 -2.2948
   26SAPC    HB 3415   1.366   2.620   6.139 -2.7585 -0.4140 -0.5524
   26SAPC    C2 3416   1.495   2.623   6.316  0.2434  0.1665 -0.1252
   26SAPC    HS 3417   1.581   2.586   6.256  0.7111  1.0526 -0.0180
   26SAPC   O21 3418   1.496   2.571   6.456  0.0474 -0.7330 -0.0924
   26SAPC   C21 3419   1.511   2.436   6.454  0.0461 -0.2695  0.3726
   26SAPC   O22 3420   1.528   2.377   6.350  0.2346 -0.3826 -0.1180
   26SAPC   C22 3421   1.507   2.374   6.595  0.5755  0.6322  0.1264
   26SAPC   H2R 3422   1.547   2.451   6.663  2.5985 -0.2055 -0.0931
   26SAPC   H2S 3423   1.409   2.330   6.622  2.0378 -2.7888  0.0604
   26SAPC    C3 3424   1.483   2.778   6.314  0.1881 -0.6717 -0.3451
   26SAPC    HX 3425   1.389   2.812   6.363  0.7296  1.0725 -0.4838
   26SAPC    HY 3426   1.475   2.795   6.205  0.3235 -2.4322 -0.6364
   26SAPC   O31 3427   1.605   2.830   6.360  0.6039  0.3362 -0.2247
   26SAPC   C31 3428   1.587   2.886   6.483 -0.2085  0.2855  0.7739
   26SAPC   O32 3429   1.498   2.861   6.560  0.0363 -0.1204  0.6443
   26SAPC   C32 3430   1.702   2.985   6.506  0.7490 -1.0670  0.4181
   26SAPC   H2X 3431   1.702   3.049   6.415 -3.3923 -0.3229  0.8162
   26SAPC   H2Y 3432   1.793   2.922   6.514  0.9243 -0.9784 -0.8347
   26SAPC   C23 3433   1.587   2.244   6.604  0.1735  0.3341 -0.2710
   26SAPC   H3R 3434   1.685   2.260   6.554  0.2510 -3.4547 -1.4771
   26SAPC   H3S 3435   1.540   2.173   6.533 -1.5866 -0.7484  1.9146
   26SAPC   C24 3436   1.608   2.176   6.745  0.1297 -0.2718 -0.0588
   26SAPC   H4R 3437   1.631   2.258   6.816  2.9660  0.7726 -2.0656
   26SAPC   H4S 3438   1.702   2.116   6.741  1.8664  2.3804 -0.1180
   26SAPC   C25 3439   1.497   2.084   6.784  0.2574  0.1940 -0.3943
   26SAPC   H5R 3440   1.456   2.022   6.703  0.5535  1.5324 -1.5863
   26SAPC   C26 3441   1.436   2.070   6.904  0.2499  0.5418 -0.6001
   26SAPC   H6R 3442   1.350   2.001   6.907  0.4402  0.3441  0.8764
   26SAPC   C27 3443   1.480   2.143   7.031 -0.6143  0.2774  0.3917
   26SAPC   H7R 3444   1.508   2.250   7.023 -3.7948  1.1107 -0.2620
   26SAPC   H7S 3445   1.573   2.096   7.069 -0.4891  1.5298  1.6308
   26SAPC   C28 3446   1.364   2.137   7.129 -0.5799 -0.4828 -0.2466
   26SAPC   H8R 3447   1.268   2.176   7.094 -0.5804 -0.6921 -0.4721
   26SAPC   C29 3448   1.370   2.104   7.259 -0.0362  0.1991  0.4333
   26SAPC   H9R 3449   1.277   2.117   7.316 -1.2604  1.4277 -1.7897
   26SAPC  C210 3450   1.488   2.075   7.340  0.3504 -0.0229 -0.2033
   26SAPC  H10R 3451   1.561   2.016   7.281  0.7889  0.7070 -0.4050
   26SAPC  H10S 3452   1.453   2.025   7.433 -1.7337  1.8458  0.0572
   26SAPC  C211 3453   1.554   2.206   7.383 -0.0025  0.2764 -0.0268
   26SAPC  H11R 3454   1.533   2.286   7.310 -1.5242  0.1213  0.2343
   26SAPC  C212 3455   1.617   2.236   7.498  0.2647  0.8484 -0.5408
   26SAPC  H12R 3456   1.646   2.341   7.515  2.4691  0.2752 -0.5451
   26SAPC  C213 3457   1.634   2.144   7.621 -0.2827 -0.1774 -0.1674
   26SAPC  H13R 3458   1.720   2.191   7.675 -0.6838  1.3093 -0.8158
   26SAPC  H13S 3459   1.654   2.038   7.595  0.5013 -0.2494  0.6894
   26SAPC  C214 3460   1.512   2.154   7.703 -0.9124 -0.0600  0.6157
   26SAPC  H14R 3461   1.450   2.063   7.703 -0.4382 -0.3896  1.2204
   26SAPC  C215 3462   1.489   2.255   7.788  0.5166 -0.7697  0.8568
   26SAPC  H15R 3463   1.394   2.254   7.843  0.5853 -0.5249  0.9818
   26SAPC  C216 3464   1.578   2.376   7.812 -0.0279  0.0405 -0.7318
   26SAPC  H16R 3465   1.521   2.471   7.804  0.1953  0.2830  0.4658
   26SAPC  H16S 3466   1.666   2.384   7.744  2.6022  0.8718  2.6143
   26SAPC  C217 3467   1.626   2.358   7.959  0.5916  0.0103 -0.1814
   26SAPC  H17R 3468   1.705   2.281   7.955 -1.7460 -2.4374 -0.9980
   26SAPC  H17S 3469   1.540   2.335   8.026  1.6202 -2.2416  0.3905
   26SAPC  C218 3470   1.694   2.490   8.018  0.1211 -0.6682  0.6610
   26SAPC  H18R 3471   1.782   2.505   7.953  1.0826 -2.3145  1.5470
   26SAPC  H18S 3472   1.723   2.467   8.123 -0.5143  0.4512  1.0971
   26SAPC  C219 3473   1.604   2.610   8.035 -0.1588  0.6845 -0.2357
   26SAPC  H19R 3474   1.550   2.631   7.940 -1.1962 -1.9809 -0.2929
   26SAPC  H19S 3475   1.665   2.700   8.054  0.0943  0.6509 -0.8829
   26SAPC  C220 3476   1.490   2.602   8.145  0.5998  0.5275  0.0981
   26SAPC  H20R 3477   1.527   2.573   8.246  0.1964 -1.4293 -0.2968
   26SAPC  H20S 3478   1.416   2.521   8.126  1.6325 -0.6627  1.0524
   26SAPC  H20T 3479   1.439   2.699   8.164  3.3703  2.2373 -0.9579
   26SAPC   C33 3480   1.696   3.069   6.644 -0.6364  0.5960 -0.1105
   26SAPC   H3X 3481   1.587   3.081   6.667 -0.2816  1.7587  1.0401
   26SAPC   H3Y 3482   1.738   3.168   6.615  1.2299 -0.2016 -0.1715
   26SAPC   C34 3483   1.757   3.004   6.765  0.3065 -0.1550 -0.2738
   26SAPC   H4X 3484   1.863   2.985   6.740  0.3099 -1.1451  0.5110
   26SAPC   H4Y 3485   1.717   2.901   6.770 -1.3297  0.4092 -1.3028
   26SAPC   C35 3486   1.759   3.089   6.889 -0.3351  0.2036  0.4929
   26SAPC   H5X 3487   1.660   3.076   6.938 -0.2967 -1.8775  0.0723
   26SAPC   H5Y 3488   1.782   3.196   6.871  1.0496 -0.0249  0.8801
   26SAPC   C36 3489   1.863   3.031   6.990  0.1993  0.0714 -0.3551
   26SAPC   H6X 3490   1.967   3.050   6.954  0.0831 -1.9763 -1.8468
   26SAPC   H6Y 3491   1.840   2.923   6.991  4.0488 -0.8809 -2.3025
   26SAPC   C37 3492   1.854   3.095   7.126  0.2565  0.5620  0.8474
   26SAPC   H7X 3493   1.764   3.069   7.186  0.4808 -0.0310  0.9318
   26SAPC   H7Y 3494   1.862   3.206   7.120  1.5642  0.4536  0.4386
   26SAPC   C38 3495   1.967   3.046   7.214 -0.3481  0.1017 -0.2271
   26SAPC   H8X 3496   2.066   3.092   7.198 -0.0527  0.1335  1.5774
   26SAPC   H8Y 3497   1.986   2.937   7.208 -0.1292  0.1844 -1.2261
   26SAPC   C39 3498   1.943   3.081   7.362 -0.1401  0.2665  0.1714
   26SAPC   H9X 3499   1.860   3.019   7.404 -1.4314  0.8462 -1.4956
   26SAPC   H9Y 3500   1.923   3.189   7.377  0.6691  0.6280 -1.2928
   26SAPC  C310 3501   2.061   3.054   7.457 -0.0269 -1.1537 -0.5391
   26SAPC  H10X 3502   2.153   3.077   7.399 -0.1031 -2.7761 -1.3230
   26SAPC  H10Y 3503   2.070   2.948   7.487 -1.0267 -0.3194  2.9159
   26SAPC  C311 3504   2.065   3.156   7.570 -0.9761 -0.5112 -0.0413
   26SAPC  H11X 3505   2.048   3.255   7.523 -0.2111  0.4927  1.7538
   26SAPC  H11Y 3506   2.159   3.150   7.628 -0.1599  1.4711 -1.1166
   26SAPC  C312 3507   1.954   3.116   7.678 -0.2980 -0.3788 -0.9020
   26SAPC  H12X 3508   1.974   3.015   7.719 -0.4392 -0.9482 -2.2259
   26SAPC  H12Y 3509   1.849   3.128   7.642 -0.9988 -1.7257  0.6523
   26SAPC  C313 3510   1.964   3.231   7.786  0.3608  0.1246  0.5420
   26SAPC  H13X 3511   1.951   3.328   7.732 -1.7465  1.3012  3.0715
   26SAPC  H13Y 3512   2.068   3.227   7.824  1.1156  0.3338 -1.4359
   26SAPC  C314 3513   1.863   3.208   7.902  0.8857  0.3332  0.7021
   26SAPC  H14X 3514   1.872   3.103   7.936  0.0209 -0.0718 -0.2812
   26SAPC  H14Y 3515   1.758   3.226   7.870  1.3092 -0.0358 -0.9358
   26SAPC  C315 3516   1.882   3.300   8.034  0.1029 -0.1179  0.5585
   26SAPC  H15X 3517   1.838   3.400   8.013 -0.3941 -0.5482 -0.5021
   26SAPC  H15Y 3518   1.991   3.315   8.047  0.0584  1.6853 -0.9918
   26SAPC  C316 3519   1.801   3.248   8.156  0.0857  0.6196  0.3970
   26SAPC  H16X 3520   1.817   3.139   8.172  1.2544  0.6850 -0.2538
   26SAPC  H16Y 3521   1.694   3.276   8.146  0.1628  1.1046  0.9448
   26SAPC  C317 3522   1.860   3.311   8.283  0.7234 -0.6639  0.1418
   26SAPC  H17X 3523   1.850   3.420   8.265 -0.7595 -0.7398  0.4271
   26SAPC  H17Y 3524   1.969   3.291   8.283  1.0659  0.9058  2.8397
   26SAPC  C318 3525   1.794   3.278   8.419 -0.1507 -0.0527 -0.1515
   26SAPC  H18X 3526   1.821   3.175   8.449 -1.6961 -0.8340 -1.4166
   26SAPC  H18Y 3527   1.685   3.295   8.410  0.1470  2.5320  0.6304
   26SAPC  H18Z 3528   1.834   3.342   8.501  1.5486 -2.4225  0.9221
   27SAPC     N 3529   0.266   3.475   6.527  0.0438  0.1608  0.3067
   27SAPC   C12 3530   0.319   3.371   6.630  0.1832 -0.1489 -0.2277
   27SAPC  H12A 3531   0.361   3.422   6.716 -0.7402 -1.6060  1.0988
   27SAPC  H12B 3532   0.410   3.326   6.593 -0.1875 -1.9048  0.9658
   27SAPC   C13 3533   0.247   3.408   6.399 -0.4406  0.3711 -0.5536
   27SAPC  H13A 3534   0.218   3.479   6.323 -0.0025  2.0344  0.8123
   27SAPC  H13B 3535   0.335   3.357   6.363  1.0767  2.1804  0.5375
   27SAPC  H13C 3536   0.173   3.329   6.407  0.0537  0.0123  0.5943
   27SAPC   C14 3537   0.144   3.535   6.574  0.1735  0.6854 -0.2544
   27SAPC  H14A 3538   0.112   3.613   6.506  1.2832  1.2594 -0.1443
   27SAPC  H14B 3539   0.068   3.459   6.586  0.2013  0.7406  0.2676
   27SAPC  H14C 3540   0.160   3.581   6.670  0.4281  0.4669 -0.1924
   27SAPC   C15 3541   0.371   3.574   6.503 -0.0872  0.0504  0.1778
   27SAPC  H15A 3542   0.460   3.529   6.462 -0.3464  1.3718 -1.8949
   27SAPC  H15B 3543   0.331   3.647   6.434  0.4828  2.0615  1.9266
   27SAPC  H15C 3544   0.410   3.630   6.587 -1.6896  2.0819 -0.4013
   27SAPC   C11 3545   0.230   3.251   6.671 -0.1354  0.0934 -0.3453
   27SAPC  H11A 3546   0.291   3.195   6.746  1.5018 -0.9201 -2.3730
   27SAPC  H11B 3547   0.226   3.173   6.592  1.2876 -0.0524 -0.2825
   27SAPC     P 3548   0.051   3.272   6.851 -0.1325  0.0850 -0.0609
   27SAPC   O13 3549   0.121   3.362   6.939  0.0305  0.2472  0.3057
   27SAPC   O14 3550  -0.097   3.286   6.841  0.1398 -0.3205 -0.2176
   27SAPC   O12 3551   0.098   3.290   6.703 -0.0050 -0.0708 -0.2610
   27SAPC   O11 3552   0.083   3.121   6.880 -0.0943 -0.3932 -0.2459
   27SAPC    C1 3553   0.015   3.000   6.840 -0.3237  0.5508  0.3329
   27SAPC    HA 3554  -0.087   3.024   6.802 -0.9987 -2.6260  0.0506
   27SAPC    HB 3555   0.071   2.956   6.755  0.0100  0.8826  0.3772
   27SAPC    C2 3556   0.019   2.894   6.953  0.0426 -0.5274  1.0856
   27SAPC    HS 3557  -0.021   2.803   6.904 -1.1203  0.7858 -0.4730
   27SAPC   O21 3558  -0.066   2.944   7.066  0.1501 -0.8170  0.2711
   27SAPC   C21 3559  -0.193   2.936   7.035  0.0366  0.3943  0.2920
   27SAPC   O22 3560  -0.249   2.876   6.945  0.3026 -0.3172 -0.4649
   27SAPC   C22 3561  -0.273   3.018   7.135  0.3778 -0.3155  0.1718
   27SAPC   H2R 3562  -0.220   3.026   7.232  0.0005 -0.5949  0.4041
   27SAPC   H2S 3563  -0.287   3.119   7.092 -1.2566 -0.8857 -0.6677
   27SAPC    C3 3564   0.163   2.853   6.999  0.6124  0.7162  0.3448
   27SAPC    HX 3565   0.210   2.945   7.041  1.5197  1.5859 -2.4886
   27SAPC    HY 3566   0.227   2.843   6.909 -0.7607 -1.8245 -0.3785
   27SAPC   O31 3567   0.167   2.755   7.103  0.7437  0.4511 -0.0239
   27SAPC   C31 3568   0.224   2.646   7.068  0.5353  0.6238 -0.0991
   27SAPC   O32 3569   0.252   2.610   6.954 -1.0074  0.6667 -0.5044
   27SAPC   C32 3570   0.264   2.560   7.190  0.8192 -0.7160 -0.8893
   27SAPC   H2X 3571   0.371   2.575   7.214  0.2344 -0.4792  1.7212
   27SAPC   H2Y 3572   0.253   2.455   7.154  1.2406 -0.9957 -0.2063
   27SAPC   C23 3573  -0.420   2.966   7.169  0.2202  0.1573  0.3063
   27SAPC   H3R 3574  -0.398   2.858   7.184 -0.1608 -0.0731 -0.7693
   27SAPC   H3S 3575  -0.477   2.981   7.075  2.4795  0.1757 -1.0919
   27SAPC   C24 3576  -0.506   3.019   7.278  0.1545  0.1456 -0.6521
   27SAPC   H4R 3577  -0.612   2.986   7.262 -0.5264  0.9774  2.0134
   27SAPC   H4S 3578  -0.506   3.130   7.281  0.7011  0.1541 -0.9094
   27SAPC   C25 3579  -0.460   2.968   7.409  0.3510  0.5690  0.5912
   27SAPC   H5R 3580  -0.355   2.944   7.428  0.5386  1.1534  0.2810
   27SAPC   C26 3581  -0.546   2.937   7.511 -0.4011 -0.2099  0.5669
   27SAPC   H6R 3582  -0.504   2.904   7.607 -0.1992 -0.4056  0.4151
   27SAPC   C27 3583  -0.700   2.958   7.509  0.9818 -0.5648 -0.3095
   27SAPC   H7R 3584  -0.764   2.869   7.527  0.0196  0.4803  1.6249
   27SAPC   H7S 3585  -0.732   2.979   7.404 -2.1923 -2.1815  0.2729
   27SAPC   C28 3586  -0.740   3.083   7.588  0.6005 -0.1425 -0.5977
   27SAPC   H8R 3587  -0.707   3.176   7.540 -0.4453  0.8135  0.5033
   27SAPC   C29 3588  -0.790   3.071   7.716 -0.8138 -0.2003 -0.1965
   27SAPC   H9R 3589  -0.834   3.152   7.777  0.3616 -0.8096  1.4741
   27SAPC  C210 3590  -0.815   2.944   7.792 -0.1645  0.7381 -0.4106
   27SAPC  H10R 3591  -0.768   2.863   7.732 -1.2978 -0.0164 -0.2869
   27SAPC  H10S 3592  -0.925   2.936   7.795  0.0093 -1.6852  0.5900
   27SAPC  C211 3593  -0.763   2.964   7.931  0.5357 -0.5856 -0.4156
   27SAPC  H11R 3594  -0.670   3.018   7.956  0.0372  0.9604 -1.8313
   27SAPC  C212 3595  -0.831   2.931   8.048 -1.4042 -0.3204  0.1315
   27SAPC  H12R 3596  -0.783   2.967   8.140 -0.1768 -0.1258 -0.5659
   27SAPC  C213 3597  -0.956   2.853   8.061 -0.0342 -0.5321 -0.3365
   27SAPC  H13R 3598  -0.974   2.778   7.981 -1.0062 -1.4977  0.7759
   27SAPC  H13S 3599  -1.040   2.925   8.063  0.8808  0.6270 -2.0654
   27SAPC  C214 3600  -0.940   2.788   8.190  0.4687 -0.3413  0.6723
   27SAPC  H14R 3601  -0.851   2.724   8.201  0.5894  0.2611  3.4896
   27SAPC  C215 3602  -1.018   2.791   8.290  0.4215 -0.0055 -0.0739
   27SAPC  H15R 3603  -0.988   2.733   8.379 -2.2937  0.1541  1.0099
   27SAPC  C216 3604  -1.146   2.866   8.298  0.6271 -0.8214  0.1981
   27SAPC  H16R 3605  -1.219   2.800   8.349 -0.5624 -0.8847 -1.5395
   27SAPC  H16S 3606  -1.199   2.881   8.201 -0.0739  0.7191  0.8133
   27SAPC  C217 3607  -1.148   2.995   8.378  0.4719  0.3472 -0.1167
   27SAPC  H17R 3608  -1.250   3.038   8.375  0.0488 -0.6387  0.2822
   27SAPC  H17S 3609  -1.083   3.075   8.335 -0.3253  0.9963 -0.1339
   27SAPC  C218 3610  -1.115   2.965   8.525 -0.2696  0.1946 -0.2372
   27SAPC  H18R 3611  -1.005   2.950   8.535 -0.4011  0.4387  1.9066
   27SAPC  H18S 3612  -1.164   2.871   8.557  0.1575  0.8015  2.3710
   27SAPC  C219 3613  -1.162   3.076   8.628 -0.1548  0.3248 -0.3852
   27SAPC  H19R 3614  -1.271   3.087   8.608 -0.3380  0.0193  0.4130
   27SAPC  H19S 3615  -1.122   3.177   8.606 -1.5275  0.9448 -0.1209
   27SAPC  C220 3616  -1.139   3.051   8.773  0.4629  0.4546 -0.3208
   27SAPC  H20R 3617  -1.036   3.050   8.813  0.3546  0.5632 -0.0412
   27SAPC  H20S 3618  -1.173   2.946   8.788 -1.5861  1.1460  0.0659
   27SAPC  H20T 3619  -1.196   3.116   8.843 -0.0109 -2.6324  2.2577
   27SAPC   C33 3620   0.199   2.604   7.318  0.1054  0.1887 -0.3819
   27SAPC   H3X 3621   0.090   2.584   7.305 -0.1513 -0.1739  2.0993
   27SAPC   H3Y 3622   0.211   2.713   7.336  0.1490  0.3498 -1.3758
   27SAPC   C34 3623   0.255   2.528   7.445 -0.0290  0.8083 -0.0655
   27SAPC   H4X 3624   0.365   2.537   7.431  0.1390  0.4597  0.9872
   27SAPC   H4Y 3625   0.224   2.422   7.433  1.0095  0.6245 -1.2981
   27SAPC   C35 3626   0.213   2.588   7.581 -0.0010 -0.2007 -0.4475
   27SAPC   H5X 3627   0.103   2.575   7.589  0.0279  0.2529  0.7597
   27SAPC   H5Y 3628   0.238   2.697   7.584  1.6795 -0.5675 -0.7767
   27SAPC   C36 3629   0.289   2.513   7.692 -0.0788 -0.8752 -0.2963
   27SAPC   H6X 3630   0.392   2.552   7.681  0.4972 -1.7603  1.6684
   27SAPC   H6Y 3631   0.298   2.403   7.678  0.5880 -1.2869  3.0790
   27SAPC   C37 3632   0.231   2.541   7.829 -0.8461 -0.3061  0.4816
   27SAPC   H7X 3633   0.121   2.528   7.820 -1.0004  1.5893 -0.6254
   27SAPC   H7Y 3634   0.261   2.643   7.861  1.6525 -0.6566 -0.6436
   27SAPC   C38 3635   0.287   2.451   7.948 -0.1984  0.1284  0.4272
   27SAPC   H8X 3636   0.396   2.470   7.957 -0.5786  1.7034  1.9829
   27SAPC   H8Y 3637   0.282   2.344   7.919 -1.6076  0.3126 -0.0243
   27SAPC   C39 3638   0.208   2.455   8.082  0.0449 -0.3623 -0.1818
   27SAPC   H9X 3639   0.253   2.390   8.160  1.8255 -0.8947 -1.6041
   27SAPC   H9Y 3640   0.105   2.416   8.069 -0.9221  0.8381  3.4939
   27SAPC  C310 3641   0.202   2.590   8.140  0.3003 -0.9426  0.0443
   27SAPC  H10X 3642   0.123   2.639   8.079  1.4985 -0.1052 -0.8620
   27SAPC  H10Y 3643   0.288   2.658   8.120 -1.0216  0.7536 -0.0542
   27SAPC  C311 3644   0.175   2.586   8.294  1.1570 -0.1263  0.2420
   27SAPC  H11X 3645   0.246   2.524   8.353 -1.3090 -2.7246  0.5764
   27SAPC  H11Y 3646   0.071   2.549   8.302  1.1277  0.2654  1.7104
   27SAPC  C312 3647   0.173   2.722   8.359 -0.3051  0.6577 -0.6776
   27SAPC  H12X 3648   0.123   2.797   8.294  0.3899  0.5511 -1.3437
   27SAPC  H12Y 3649   0.274   2.761   8.385 -0.8770  0.9467  1.2186
   27SAPC  C313 3650   0.098   2.717   8.498 -0.7426 -0.5449 -0.6675
   27SAPC  H13X 3651  -0.009   2.693   8.477 -1.1068  1.6898 -1.5074
   27SAPC  H13Y 3652   0.102   2.815   8.550  1.7220 -1.8561  1.7304
   27SAPC  C314 3653   0.154   2.615   8.594  0.1202  0.2075  0.4082
   27SAPC  H14X 3654   0.265   2.625   8.592  0.2137 -0.8037 -0.4852
   27SAPC  H14Y 3655   0.120   2.518   8.550  0.8117  0.1247  0.0436
   27SAPC  C315 3656   0.096   2.617   8.733  0.2615  0.0120 -0.4381
   27SAPC  H15X 3657   0.123   2.713   8.780 -0.3208 -0.0813  0.0861
   27SAPC  H15Y 3658   0.148   2.544   8.798  2.4412  2.3033  0.4412
   27SAPC  C316 3659  -0.058   2.595   8.732 -0.2576 -0.1330 -0.2741
   27SAPC  H16X 3660  -0.086   2.503   8.677 -1.0441  0.0209 -0.1353
   27SAPC  H16Y 3661  -0.114   2.680   8.687  0.6944 -0.1946 -1.6190
   27SAPC  C317 3662  -0.114   2.596   8.879 -0.4408 -0.5476 -0.8602
   27SAPC  H17X 3663  -0.030   2.558   8.941  0.2860  2.6993  0.2645
   27SAPC  H17Y 3664  -0.189   2.514   8.888  0.7177 -1.6783 -1.3370
   27SAPC  C318 3665  -0.179   2.723   8.924  0.3402  0.3715 -0.3505
   27SAPC  H18X 3666  -0.235   2.722   9.020 -0.0269  1.8496 -0.5391
   27SAPC  H18Y 3667  -0.264   2.747   8.857 -0.8281 -2.2184  0.1364
   27SAPC  H18Z 3668  -0.103   2.803   8.936 -1.3842  1.5286  3.7939
   28SAPC     N 3669   5.564   0.432   6.022 -0.1405  0.1356  0.1527
   28SAPC   C12 3670   5.560   0.451   6.170 -0.2935  0.8035 -0.2678
   28SAPC  H12A 3671   5.512   0.542   6.201 -1.7673  0.1081 -0.5045
   28SAPC  H12B 3672   5.664   0.469   6.195  0.3418 -0.8591 -1.6059
   28SAPC   C13 3673   5.421   0.419   5.972 -0.1060 -0.7026 -0.3242
   28SAPC  H13A 3674   5.365   0.362   6.044  0.1853 -0.5942 -0.0083
   28SAPC  H13B 3675   5.373   0.515   5.969 -2.1577 -1.6366  1.5117
   28SAPC  H13C 3676   5.409   0.369   5.877  1.5408 -1.9806  0.0974
   28SAPC   C14 3677   5.620   0.557   5.961 -0.3087 -0.3485  0.1802
   28SAPC  H14A 3678   5.613   0.545   5.854  0.2519  0.2968  0.0721
   28SAPC  H14B 3679   5.559   0.642   5.987  0.6775  0.9095 -1.5276
   28SAPC  H14C 3680   5.721   0.591   5.981 -0.0809 -0.8131 -0.1907
   28SAPC   C15 3681   5.637   0.309   5.983 -0.1210 -0.3890 -0.0503
   28SAPC  H15A 3682   5.607   0.270   5.887 -3.0985 -2.4589  1.6406
   28SAPC  H15B 3683   5.743   0.328   5.977 -0.4804  1.6191 -0.4777
   28SAPC  H15C 3684   5.633   0.230   6.057  1.4832 -0.3348  0.1067
   28SAPC   C11 3685   5.511   0.328   6.263 -0.0737  0.0648 -0.1573
   28SAPC  H11A 3686   5.417   0.291   6.215 -1.2875 -0.2796  2.4137
   28SAPC  H11B 3687   5.483   0.367   6.363 -1.1551  0.3013 -0.5365
   28SAPC     P 3688   5.745   0.257   6.355  0.3443 -0.2501 -0.0061
   28SAPC   O13 3689   5.812   0.130   6.364  0.6172 -0.0504 -0.6422
   28SAPC   O14 3690   5.817   0.373   6.292  0.6527  0.0011 -0.0789
   28SAPC   O12 3691   5.610   0.236   6.271  0.4524  0.2499  0.2600
   28SAPC   O11 3692   5.692   0.305   6.498  0.2167 -0.4868  0.4313
   28SAPC    C1 3693   5.784   0.336   6.608  0.3650 -0.5527 -0.0314
   28SAPC    HA 3694   5.858   0.406   6.564 -1.0280  1.1082  0.1882
   28SAPC    HB 3695   5.727   0.393   6.685  1.4003 -1.4331  1.4157
   28SAPC    C2 3696   5.844   0.211   6.678  0.3747 -0.9747 -0.5625
   28SAPC    HS 3697   5.896   0.152   6.599  2.0037  0.3586 -0.5340
   28SAPC   O21 3698   5.739   0.136   6.734  0.0425  0.6038 -0.2111
   28SAPC   C21 3699   5.753   0.005   6.737  0.5308  0.1968  0.9090
   28SAPC   O22 3700   5.848  -0.060   6.695  0.7180  0.6074  0.1904
   28SAPC   C22 3701   5.615  -0.061   6.777 -0.2628 -0.5372  0.0810
   28SAPC   H2R 3702   5.545  -0.025   6.699 -0.3578 -2.0304 -0.5417
   28SAPC   H2S 3703   5.630  -0.169   6.759 -0.3697 -0.2732 -1.6878
   28SAPC    C3 3704   5.954   0.241   6.782  0.4884 -0.2296  0.1616
   28SAPC    HX 3705   6.030   0.295   6.722 -0.2529  1.0253  0.3317
   28SAPC    HY 3706   5.992   0.140   6.805 -0.2250 -0.0931  2.0240
   28SAPC   O31 3707   5.899   0.310   6.893  0.3097 -0.4582 -0.2124
   28SAPC   C31 3708   5.873   0.249   7.010  0.0372  0.7315  0.1494
   28SAPC   O32 3709   5.914   0.135   7.033 -0.3702  0.2464  0.0805
   28SAPC   C32 3710   5.792   0.339   7.106 -0.3250  0.4154  0.7957
   28SAPC   H2X 3711   5.685   0.354   7.081  0.2193  0.4182 -1.7518
   28SAPC   H2Y 3712   5.843   0.438   7.103  1.5016 -0.5334 -0.9247
   28SAPC   C23 3713   5.578  -0.037   6.920 -0.0546  0.0296  0.1929
   28SAPC   H3R 3714   5.472  -0.064   6.939 -0.6184  0.7868 -1.8114
   28SAPC   H3S 3715   5.581   0.073   6.938 -0.5361  0.1689 -0.5433
   28SAPC   C24 3716   5.661  -0.109   7.026  0.5394  0.2435  0.6458
   28SAPC   H4R 3717   5.769  -0.091   7.007  0.3099  1.1173  0.1186
   28SAPC   H4S 3718   5.649  -0.058   7.125 -2.0160 -0.3007  0.6556
   28SAPC   C25 3719   5.661  -0.261   7.028 -0.5977 -1.0252  0.0835
   28SAPC   H5R 3720   5.750  -0.313   6.988  1.1475  0.4219  1.9411
   28SAPC   C26 3721   5.568  -0.339   7.092  0.2875  0.0542 -0.2006
   28SAPC   H6R 3722   5.578  -0.448   7.088  0.3005  0.0817 -1.1353
   28SAPC   C27 3723   5.453  -0.291   7.173 -0.2108  0.3053  0.4915
   28SAPC   H7R 3724   5.361  -0.263   7.117 -0.4789 -0.0150  0.7682
   28SAPC   H7S 3725   5.490  -0.203   7.230  0.4621  1.6707 -1.9885
   28SAPC   C28 3726   5.395  -0.400   7.259 -0.1379 -0.2758 -0.2281
   28SAPC   H8R 3727   5.373  -0.492   7.202 -0.0145 -0.6622  0.3385
   28SAPC   C29 3728   5.377  -0.402   7.390 -0.3951 -0.6406 -0.6841
   28SAPC   H9R 3729   5.312  -0.477   7.437 -1.3792  0.7682  0.2617
   28SAPC  C210 3730   5.419  -0.303   7.494 -0.0900 -0.4573 -0.8505
   28SAPC  H10R 3731   5.371  -0.322   7.593  0.9891  0.0618 -0.2244
   28SAPC  H10S 3732   5.363  -0.213   7.462  0.3709 -0.5292 -1.8532
   28SAPC  C211 3733   5.568  -0.263   7.512  0.4337 -0.4305  0.4696
   28SAPC  H11R 3734   5.614  -0.267   7.412 -1.7729  0.9476 -0.6243
   28SAPC  C212 3735   5.641  -0.235   7.616 -0.0274 -0.1253 -0.6065
   28SAPC  H12R 3736   5.749  -0.214   7.604  0.3336 -2.0349 -0.7965
   28SAPC  C213 3737   5.599  -0.239   7.761 -0.1292 -0.0527 -0.0990
   28SAPC  H13R 3738   5.499  -0.288   7.769 -0.4327  0.7665  1.1789
   28SAPC  H13S 3739   5.597  -0.141   7.813 -1.0333  1.2567 -2.5222
   28SAPC  C214 3740   5.692  -0.320   7.846 -0.0149 -0.2310 -0.2347
   28SAPC  H14R 3741   5.771  -0.261   7.895  0.2513 -0.1633 -0.7457
   28SAPC  C215 3742   5.686  -0.456   7.870 -0.0542  0.1572 -0.2618
   28SAPC  H15R 3743   5.766  -0.497   7.933 -1.7908 -0.1906  1.7641
   28SAPC  C216 3744   5.591  -0.564   7.829  0.0549  0.4207 -0.0680
   28SAPC  H16R 3745   5.552  -0.540   7.728  0.1612 -0.5867 -0.3567
   28SAPC  H16S 3746   5.502  -0.579   7.894 -0.0413 -1.1418 -0.5443
   28SAPC  C217 3747   5.665  -0.701   7.822 -0.2199  0.6047  0.8343
   28SAPC  H17R 3748   5.696  -0.726   7.926  1.3019 -1.8315 -0.1775
   28SAPC  H17S 3749   5.750  -0.696   7.751 -0.0835  2.2516  1.0918
   28SAPC  C218 3750   5.561  -0.812   7.799  0.1503  0.1032 -0.2888
   28SAPC  H18R 3751   5.508  -0.832   7.895  1.6339 -0.4740  0.4318
   28SAPC  H18S 3752   5.615  -0.908   7.784 -1.5850 -1.0106  0.3882
   28SAPC  C219 3753   5.463  -0.784   7.689 -0.4783  0.3146 -0.5127
   28SAPC  H19R 3754   5.399  -0.699   7.719 -0.7240  0.0793 -0.3641
   28SAPC  H19S 3755   5.391  -0.869   7.695 -1.9225  1.5778  0.3999
   28SAPC  C220 3756   5.512  -0.766   7.543  0.3083  0.4304 -0.2955
   28SAPC  H20R 3757   5.417  -0.776   7.487  0.4469  0.1733 -0.4870
   28SAPC  H20S 3758   5.580  -0.849   7.513 -1.8163 -1.0112 -1.2615
   28SAPC  H20T 3759   5.560  -0.666   7.539 -1.4353  1.2601 -0.6163
   28SAPC   C33 3760   5.803   0.279   7.254 -0.5614 -0.1156 -0.5697
   28SAPC   H3X 3761   5.791   0.361   7.328 -2.8925 -0.9298 -0.0251
   28SAPC   H3Y 3762   5.901   0.234   7.282 -0.3909  1.2418  1.0510
   28SAPC   C34 3763   5.674   0.185   7.291 -0.2803  0.0362  0.2040
   28SAPC   H4X 3764   5.666   0.120   7.201  2.3536 -0.3040  0.1680
   28SAPC   H4Y 3765   5.583   0.248   7.305 -1.5876 -1.9403  0.6868
   28SAPC   C35 3766   5.693   0.102   7.417  0.4139 -0.4145 -0.0705
   28SAPC   H5X 3767   5.757   0.013   7.398  0.0060 -0.2093 -2.7172
   28SAPC   H5Y 3768   5.590   0.066   7.440  0.9471 -0.9615  1.4973
   28SAPC   C36 3769   5.740   0.188   7.547 -0.4853 -1.0018  0.0564
   28SAPC   H6X 3770   5.674   0.278   7.546 -2.8278 -2.6286 -2.5067
   28SAPC   H6Y 3771   5.843   0.227   7.533 -1.6099  1.3668 -1.9827
   28SAPC   C37 3772   5.741   0.112   7.682 -0.2552  0.3364  0.9975
   28SAPC   H7X 3773   5.801   0.020   7.670 -0.2133  0.5245 -0.3443
   28SAPC   H7Y 3774   5.639   0.085   7.716 -1.6500 -0.0774 -3.3059
   28SAPC   C38 3775   5.792   0.191   7.796 -0.2017 -0.4600 -0.1066
   28SAPC   H8X 3776   5.757   0.296   7.799 -1.7225 -0.9062 -1.2827
   28SAPC   H8Y 3777   5.898   0.203   7.767 -0.1195  0.2440  0.4841
   28SAPC   C39 3778   5.775   0.129   7.931  0.0247  0.7446  0.0372
   28SAPC   H9X 3779   5.839   0.038   7.940  1.4252  1.7296  0.1915
   28SAPC   H9Y 3780   5.666   0.112   7.942  0.4430 -1.4452  1.1313
   28SAPC  C310 3781   5.823   0.225   8.043 -0.5820 -0.9889 -0.0506
   28SAPC  H10X 3782   5.744   0.300   8.067  0.7454  0.8561 -1.3489
   28SAPC  H10Y 3783   5.906   0.281   7.995 -1.4331 -0.7797 -1.3081
   28SAPC  C311 3784   5.859   0.160   8.176 -0.0794  0.3585 -0.0892
   28SAPC  H11X 3785   5.928   0.230   8.227  0.5710  0.6998 -1.4138
   28SAPC  H11Y 3786   5.927   0.075   8.154 -0.9769 -0.2967 -0.3679
   28SAPC  C312 3787   5.734   0.129   8.249 -0.3334  0.0739  0.6497
   28SAPC  H12X 3788   5.665   0.054   8.205 -0.7922  1.1224 -0.4397
   28SAPC  H12Y 3789   5.662   0.214   8.246 -1.1712 -0.6211  1.0326
   28SAPC  C313 3790   5.755   0.088   8.398  1.1364 -0.6271 -0.3347
   28SAPC  H13X 3791   5.657   0.109   8.446  1.2003 -0.5923 -0.2208
   28SAPC  H13Y 3792   5.823   0.165   8.443  0.2744 -0.0555  0.0045
   28SAPC  C314 3793   5.795  -0.057   8.422  0.5269  0.3897  0.5147
   28SAPC  H14X 3794   5.801  -0.079   8.531  0.1987 -0.6704  0.3256
   28SAPC  H14Y 3795   5.893  -0.084   8.377  0.5699  0.1682  0.7424
   28SAPC  C315 3796   5.704  -0.165   8.362  0.4614  0.5180  0.0267
   28SAPC  H15X 3797   5.726  -0.162   8.253 -1.5717 -3.5062 -0.6037
   28SAPC  H15Y 3798   5.597  -0.137   8.370  0.3500  0.5684 -1.4444
   28SAPC  C316 3799   5.737  -0.308   8.407 -0.0960  0.3901  0.5297
   28SAPC  H16X 3800   5.711  -0.309   8.515 -2.0240  1.9359  0.1138
   28SAPC  H16Y 3801   5.847  -0.320   8.398 -0.2669 -0.7757 -0.0749
   28SAPC  C317 3802   5.671  -0.419   8.327 -0.5645  0.7584 -0.6372
   28SAPC  H17X 3803   5.742  -0.425   8.242  1.7234 -1.8672  1.3580
   28SAPC  H17Y 3804   5.572  -0.377   8.298 -1.5805 -0.1340  1.4047
   28SAPC  C318 3805   5.659  -0.552   8.409  0.1511  0.1146  0.0831
   28SAPC  H18X 3806   5.643  -0.635   8.338 -1.0835  1.8990 -1.7761
   28SAPC  H18Y 3807   5.575  -0.536   8.479 -0.0659 -2.8732  0.5755
   28SAPC  H18Z 3808   5.750  -0.582   8.466  0.2799  1.1272  0.4228
   29SAPC     N 3809   2.176   3.095   6.084  0.0705  0.3570  0.1609
   29SAPC   C12 3810   2.027   3.096   6.115 -0.0696  0.6200  0.1785
   29SAPC  H12A 3811   1.996   3.053   6.209 -2.7263  0.8980 -0.5277
   29SAPC  H12B 3812   1.982   3.029   6.044 -0.5737 -1.7901  2.7077
   29SAPC   C13 3813   2.212   2.948   6.087 -0.4809  0.2100 -0.1084
   29SAPC  H13A 3814   2.181   2.883   6.006 -0.4113  1.0365 -0.8009
   29SAPC  H13B 3815   2.319   2.940   6.078 -0.0003  1.9596  3.2811
   29SAPC  H13C 3816   2.189   2.896   6.179 -0.9717  0.7356  0.0706
   29SAPC   C14 3817   2.215   3.157   5.952 -0.3094  0.0213 -0.4951
   29SAPC  H14A 3818   2.165   3.104   5.873 -0.4724 -1.5504  0.6446
   29SAPC  H14B 3819   2.192   3.263   5.954  1.7201  0.5202 -2.0522
   29SAPC  H14C 3820   2.320   3.157   5.927  0.2288  2.3455  1.5281
   29SAPC   C15 3821   2.236   3.164   6.202 -0.0399 -0.3547  0.5682
   29SAPC  H15A 3822   2.189   3.261   6.211 -1.1591 -0.6589 -1.5600
   29SAPC  H15B 3823   2.217   3.119   6.298 -0.4348 -0.2679  0.5334
   29SAPC  H15C 3824   2.342   3.178   6.185 -0.3089  0.3363 -0.6341
   29SAPC   C11 3825   1.946   3.229   6.108 -0.1196  0.3476  0.4827
   29SAPC  H11A 3826   1.841   3.192   6.104  0.4684 -1.2459 -1.0359
   29SAPC  H11B 3827   1.975   3.268   6.008 -0.5159 -0.9687 -0.1646
   29SAPC     P 3828   1.874   3.449   6.219 -0.2341  0.0492 -0.4912
   29SAPC   O13 3829   1.957   3.551   6.292 -0.2802 -0.8498  0.4775
   29SAPC   O14 3830   1.834   3.475   6.078 -0.8747  0.5215 -0.2472
   29SAPC   O12 3831   1.967   3.318   6.223  0.3811 -0.1220 -0.5046
   29SAPC   O11 3832   1.744   3.410   6.302  0.5891 -0.5735  0.3650
   29SAPC    C1 3833   1.675   3.508   6.381 -0.2530 -0.8758  0.0809
   29SAPC    HA 3834   1.738   3.598   6.399 -0.9400 -0.5795  1.0434
   29SAPC    HB 3835   1.587   3.542   6.324  0.9386 -0.1490 -1.3672
   29SAPC    C2 3836   1.630   3.458   6.521 -0.5781 -0.2159  0.5221
   29SAPC    HS 3837   1.594   3.549   6.574  0.3436  1.2104 -1.2233
   29SAPC   O21 3838   1.742   3.408   6.598 -0.2923  0.7930 -0.9399
   29SAPC   C21 3839   1.816   3.501   6.649  0.2051  0.1696 -0.5774
   29SAPC   O22 3840   1.794   3.622   6.653  0.1316 -0.8718 -0.3520
   29SAPC   C22 3841   1.937   3.430   6.706  0.3165  0.9364  0.2450
   29SAPC   H2R 3842   1.911   3.343   6.771  0.1800  0.5168 -0.3634
   29SAPC   H2S 3843   1.974   3.374   6.618 -1.8170 -0.4646  0.2026
   29SAPC    C3 3844   1.518   3.355   6.502 -0.3367  0.6106  0.0301
   29SAPC    HX 3845   1.547   3.270   6.436 -1.4475 -0.4582  0.9150
   29SAPC    HY 3846   1.434   3.402   6.446 -0.1298 -0.7417 -1.4768
   29SAPC   O31 3847   1.490   3.300   6.632  0.9186 -0.2634 -0.3792
   29SAPC   C31 3848   1.377   3.349   6.693 -0.7513 -0.0124  0.0579
   29SAPC   O32 3849   1.295   3.425   6.642  0.2419 -0.2384 -0.1631
   29SAPC   C32 3850   1.367   3.304   6.840 -0.4629  0.3305 -0.0185
   29SAPC   H2X 3851   1.295   3.370   6.892  0.9318  1.1762  0.8627
   29SAPC   H2Y 3852   1.465   3.316   6.891 -0.7256  1.5574  0.2014
   29SAPC   C23 3853   2.034   3.531   6.767  0.4880  0.2669 -0.1342
   29SAPC   H3R 3854   1.989   3.555   6.866  0.7298  2.5479 -0.5494
   29SAPC   H3S 3855   2.048   3.623   6.707  2.7115  0.8888  1.2640
   29SAPC   C24 3856   2.177   3.487   6.786 -0.1259  0.1785 -0.1746
   29SAPC   H4R 3857   2.233   3.562   6.846  0.3614 -0.0314 -0.3570
   29SAPC   H4S 3858   2.222   3.485   6.684  0.1197  1.4775 -0.0970
   29SAPC   C25 3859   2.184   3.340   6.842 -0.0825  0.2058 -0.6996
   29SAPC   H5R 3860   2.206   3.264   6.765  2.2102  0.2681 -0.1356
   29SAPC   C26 3861   2.201   3.312   6.971  0.0063  0.2743  0.4823
   29SAPC   H6R 3862   2.221   3.207   6.994  0.4448  0.0209 -1.0251
   29SAPC   C27 3863   2.205   3.419   7.080  0.0758  0.0351 -0.5421
   29SAPC   H7R 3864   2.148   3.512   7.057  1.0472  0.4996 -1.0915
   29SAPC   H7S 3865   2.307   3.461   7.094 -0.1026  0.9160 -1.8237
   29SAPC   C28 3866   2.149   3.371   7.210  0.5152 -0.1802 -0.4457
   29SAPC   H8R 3867   2.077   3.287   7.203 -0.3787  0.4228  1.2337
   29SAPC   C29 3868   2.176   3.423   7.335  0.3271 -0.1516  0.2941
   29SAPC   H9R 3869   2.131   3.373   7.422 -0.4309  1.7427  1.0138
   29SAPC  C210 3870   2.273   3.532   7.359  0.2564 -0.0837  0.2942
   29SAPC  H10R 3871   2.236   3.597   7.440  2.7881  3.4347 -1.2528
   29SAPC  H10S 3872   2.288   3.597   7.270  0.9116  2.5619  2.2818
   29SAPC  C211 3873   2.405   3.468   7.386  0.2515 -0.3205 -0.1498
   29SAPC  H11R 3874   2.487   3.477   7.313 -0.1504 -0.8190 -0.6675
   29SAPC  C212 3875   2.448   3.411   7.500  1.1995  0.2301 -0.1669
   29SAPC  H12R 3876   2.551   3.373   7.498 -0.0538 -3.4594  0.9119
   29SAPC  C213 3877   2.363   3.388   7.624 -0.2338  0.5758  0.5046
   29SAPC  H13R 3878   2.401   3.299   7.679  0.1380  0.8972  0.7725
   29SAPC  H13S 3879   2.264   3.359   7.585 -0.5013  0.5732  1.1838
   29SAPC  C214 3880   2.340   3.508   7.709  0.0412 -0.2218 -0.1864
   29SAPC  H14R 3881   2.322   3.602   7.656 -0.6761 -0.3106 -0.1028
   29SAPC  C215 3882   2.319   3.499   7.841 -0.4402 -0.8038 -1.0325
   29SAPC  H15R 3883   2.292   3.589   7.898  0.1398  0.1865 -2.2818
   29SAPC  C216 3884   2.300   3.370   7.921 -0.4603 -0.9109 -0.1999
   29SAPC  H16R 3885   2.275   3.292   7.846 -0.7089 -0.9402 -0.0873
   29SAPC  H16S 3886   2.218   3.378   7.996 -1.5912 -0.1015 -1.5027
   29SAPC  C217 3887   2.432   3.339   7.998 -0.0748 -0.2718 -0.1437
   29SAPC  H17R 3888   2.447   3.408   8.083  1.4693 -0.3134 -0.3691
   29SAPC  H17S 3889   2.510   3.348   7.919  1.2762 -0.6910  1.1209
   29SAPC  C218 3890   2.423   3.196   8.046  0.4229 -0.6441  0.1344
   29SAPC  H18R 3891   2.425   3.131   7.957  0.2357  0.6894 -0.8684
   29SAPC  H18S 3892   2.321   3.175   8.085 -1.3512  2.0357 -2.7826
   29SAPC  C219 3893   2.537   3.157   8.142 -0.7596 -0.3741 -0.2568
   29SAPC  H19R 3894   2.534   3.229   8.226  3.4700  1.2888 -1.4054
   29SAPC  H19S 3895   2.638   3.171   8.099 -0.1091 -0.0065  1.3641
   29SAPC  C220 3896   2.506   3.019   8.197  0.5463 -1.3060  0.4393
   29SAPC  H20R 3897   2.423   3.027   8.270  0.5157  0.8324  0.1950
   29SAPC  H20S 3898   2.584   2.959   8.248 -0.2677  0.7022  4.1789
   29SAPC  H20T 3899   2.477   2.959   8.107 -1.5182 -1.0726  0.9127
   29SAPC   C33 3900   1.316   3.161   6.843  0.1253 -0.6179 -0.1051
   29SAPC   H3X 3901   1.392   3.095   6.799 -0.7698  0.2063 -2.9707
   29SAPC   H3Y 3902   1.225   3.146   6.781  0.7234 -2.1696 -0.5992
   29SAPC   C34 3903   1.292   3.105   6.985  0.5690  0.5973 -0.1003
   29SAPC   H4X 3904   1.388   3.107   7.039  0.5035 -1.0358  0.1296
   29SAPC   H4Y 3905   1.262   2.998   6.970 -0.8804  0.7044  1.8093
   29SAPC   C35 3906   1.192   3.187   7.068 -0.7685 -0.3863 -0.3611
   29SAPC   H5X 3907   1.093   3.196   7.017 -0.3246  0.4239 -1.0972
   29SAPC   H5Y 3908   1.229   3.290   7.088 -2.1171  0.2708 -1.1426
   29SAPC   C36 3909   1.174   3.111   7.200  0.3267 -0.3123 -0.1295
   29SAPC   H6X 3910   1.272   3.075   7.236  2.0995  3.1057 -1.3724
   29SAPC   H6Y 3911   1.113   3.022   7.173  0.2499  0.1693 -1.6150
   29SAPC   C37 3912   1.117   3.197   7.307  0.4903 -0.7013  0.1325
   29SAPC   H7X 3913   1.018   3.239   7.281  0.4684 -2.6639 -3.3031
   29SAPC   H7Y 3914   1.191   3.280   7.313  1.4922 -1.7019  2.2012
   29SAPC   C38 3915   1.102   3.127   7.442 -0.0697  0.0513 -0.1642
   29SAPC   H8X 3916   1.190   3.067   7.474 -1.4832 -2.4621 -0.8506
   29SAPC   H8Y 3917   1.008   3.068   7.444 -1.4123  2.0385 -1.6614
   29SAPC   C39 3918   1.081   3.238   7.545 -0.3280  0.3386  0.0057
   29SAPC   H9X 3919   1.003   3.306   7.505 -2.3726 -2.6595 -1.1870
   29SAPC   H9Y 3920   1.174   3.299   7.551 -0.5669  0.8088 -0.9951
   29SAPC  C310 3921   1.032   3.195   7.686 -0.5761  0.2049  0.8935
   29SAPC  H10X 3922   1.088   3.100   7.699 -0.0959  0.3594  0.0062
   29SAPC  H10Y 3923   0.924   3.173   7.677 -0.7010  0.9969  0.3636
   29SAPC  C311 3924   1.038   3.307   7.793  0.1535 -1.3844 -0.0086
   29SAPC  H11X 3925   0.959   3.381   7.773  0.6111 -0.9634 -0.2746
   29SAPC  H11Y 3926   1.133   3.364   7.792  1.2490 -3.1538 -0.1265
   29SAPC  C312 3927   1.019   3.240   7.935 -0.7304 -0.3900 -0.7090
   29SAPC  H12X 3928   1.112   3.185   7.961 -0.1800  0.6376 -0.4339
   29SAPC  H12Y 3929   0.936   3.167   7.933 -0.4627 -0.6754 -1.2995
   29SAPC  C313 3930   1.005   3.339   8.057 -0.0841  0.1039  0.3681
   29SAPC  H13X 3931   0.926   3.410   8.024 -1.3906 -1.2007  0.6264
   29SAPC  H13Y 3932   1.098   3.395   8.084 -0.7740  1.1043  0.7047
   29SAPC  C314 3933   0.981   3.253   8.188 -0.0139 -0.1459  0.1825
   29SAPC  H14X 3934   1.080   3.206   8.207 -0.5161 -1.5380 -0.6368
   29SAPC  H14Y 3935   0.909   3.169   8.184 -4.7275  3.6262  0.7922
   29SAPC  C315 3936   0.932   3.341   8.300 -0.0949  0.0924  0.3509
   29SAPC  H15X 3937   0.826   3.367   8.279 -0.7857 -1.7695  1.4591
   29SAPC  H15Y 3938   0.990   3.436   8.298 -1.3906  0.8867 -1.9478
   29SAPC  C316 3939   0.932   3.282   8.443  0.5134  0.3743  0.4680
   29SAPC  H16X 3940   0.906   3.364   8.513 -2.3812 -0.1247  0.0266
   29SAPC  H16Y 3941   1.034   3.246   8.467  1.1251  2.4084  1.0437
   29SAPC  C317 3942   0.832   3.166   8.458 -0.6196 -0.4005  0.4511
   29SAPC  H17X 3943   0.878   3.074   8.415 -0.2014  0.4812 -1.0261
   29SAPC  H17Y 3944   0.743   3.187   8.395 -1.9350 -0.8708  2.1221
   29SAPC  C318 3945   0.793   3.138   8.597  0.1030  0.2028 -0.2415
   29SAPC  H18X 3946   0.713   3.061   8.604 -1.4691  1.8752  0.6291
   29SAPC  H18Y 3947   0.755   3.225   8.654 -0.1755 -1.6434  2.4885
   29SAPC  H18Z 3948   0.881   3.114   8.662  1.1504  0.1756 -1.6596
   30SAPC     N 3949   3.658   4.969   6.288  0.0157  0.0848 -0.0692
   30SAPC   C12 3950   3.638   4.830   6.353 -0.0122  0.6588  0.0544
   30SAPC  H12A 3951   3.556   4.828   6.422 -1.2034 -0.8963 -1.3571
   30SAPC  H12B 3952   3.728   4.807   6.407 -0.0898 -1.7657 -0.8032
   30SAPC   C13 3953   3.760   4.958   6.177 -0.0775 -0.2075 -0.1071
   30SAPC  H13A 3954   3.789   5.057   6.146 -0.2852  0.0119  0.3886
   30SAPC  H13B 3955   3.846   4.901   6.205  0.2802 -0.0500 -0.8644
   30SAPC  H13C 3956   3.716   4.907   6.092  0.3602 -0.0623 -0.4213
   30SAPC   C14 3957   3.530   5.014   6.233  0.0868 -0.9615 -0.4472
   30SAPC  H14A 3958   3.452   5.036   6.305  1.5952  0.6755  0.7173
   30SAPC  H14B 3959   3.551   5.108   6.185  2.0853 -2.0564 -1.8141
   30SAPC  H14C 3960   3.491   4.933   6.173 -0.3440 -2.2176  1.4514
   30SAPC   C15 3961   3.714   5.054   6.403  0.4715 -0.4511 -0.5046
   30SAPC  H15A 3962   3.635   5.070   6.474 -0.0627  0.8285 -1.3732
   30SAPC  H15B 3963   3.797   5.017   6.461  0.8945  1.1257 -0.0894
   30SAPC  H15C 3964   3.737   5.152   6.364  0.5299 -0.2640  0.0041
   30SAPC   C11 3965   3.621   4.709   6.265 -0.5954  0.5967  0.2305
   30SAPC  H11A 3966   3.637   4.612   6.317 -0.8249  0.7877  0.6492
   30SAPC  H11B 3967   3.706   4.711   6.193 -2.5487 -1.8235 -2.2506
   30SAPC     P 3968   3.431   4.593   6.137  0.1530 -0.0036 -0.1219
   30SAPC   O13 3969   3.306   4.634   6.074  0.3637 -0.0771 -0.1539
   30SAPC   O14 3970   3.525   4.517   6.050  0.3088 -0.4000  0.7427
   30SAPC   O12 3971   3.501   4.716   6.195  0.2848  0.0565  0.2789
   30SAPC   O11 3972   3.391   4.508   6.265 -0.8182  0.5366 -0.4359
   30SAPC    C1 3973   3.308   4.570   6.358 -1.0608  0.5552 -0.0938
   30SAPC    HA 3974   3.363   4.659   6.395 -0.8966  0.5530 -0.3292
   30SAPC    HB 3975   3.211   4.599   6.313 -1.3634  0.6770  0.6411
   30SAPC    C2 3976   3.283   4.479   6.476 -0.3182  0.4785 -0.3877
   30SAPC    HS 3977   3.231   4.525   6.562  0.2862  1.4460 -0.5340
   30SAPC   O21 3978   3.408   4.422   6.527  0.3956 -0.3974  0.4601
   30SAPC   C21 3979   3.497   4.509   6.579  0.2176 -0.2792  0.6924
   30SAPC   O22 3980   3.490   4.632   6.583 -0.5242 -0.3028 -0.3171
   30SAPC   C22 3981   3.611   4.428   6.632  0.3284  0.2017  0.2610
   30SAPC   H2R 3982   3.581   4.323   6.649 -1.0447  0.5921  0.3061
   30SAPC   H2S 3983   3.689   4.424   6.552 -0.8983  1.4164 -1.0342
   30SAPC    C3 3984   3.199   4.364   6.428 -0.2663 -0.0121 -0.3985
   30SAPC    HX 3985   3.252   4.293   6.361  0.8117 -0.8961  1.3629
   30SAPC    HY 3986   3.097   4.396   6.397 -0.2683 -1.8740 -2.5339
   30SAPC   O31 3987   3.160   4.291   6.544  0.3828  0.7017 -0.2896
   30SAPC   C31 3988   3.227   4.177   6.582 -0.8889  0.0199  0.4469
   30SAPC   O32 3989   3.285   4.105   6.500  0.3416  0.2672 -0.2847
   30SAPC   C32 3990   3.201   4.149   6.726  0.4695  0.7840  1.0759
   30SAPC   H2X 3991   3.120   4.073   6.727  0.4111  0.8470  1.1612
   30SAPC   H2Y 3992   3.161   4.241   6.774 -0.0226  2.0459 -1.6500
   30SAPC   C23 3993   3.657   4.475   6.772 -0.0921  0.1710 -0.5731
   30SAPC   H3R 3994   3.567   4.464   6.836 -0.1906  0.1412 -0.7167
   30SAPC   H3S 3995   3.673   4.585   6.766 -1.3431  0.3329 -0.9518
   30SAPC   C24 3996   3.775   4.389   6.826  0.0706 -1.1379  0.2476
   30SAPC   H4R 3997   3.857   4.410   6.753 -0.6970  4.6242  0.8220
   30SAPC   H4S 3998   3.760   4.279   6.826  0.7690 -1.2404 -0.1542
   30SAPC   C25 3999   3.827   4.448   6.952 -0.6603 -0.3948 -0.5299
   30SAPC   H5R 4000   3.913   4.515   6.939 -3.7212  4.0758  0.8971
   30SAPC   C26 4001   3.779   4.432   7.080 -0.7123 -0.8750  0.2767
   30SAPC   H6R 4002   3.825   4.490   7.161  1.2352  0.5726 -1.8069
   30SAPC   C27 4003   3.658   4.349   7.120  0.2127 -0.5207 -0.1161
   30SAPC   H7R 4004   3.580   4.325   7.045 -2.4668 -0.5543  2.5805
   30SAPC   H7S 4005   3.598   4.401   7.199  0.7143 -0.0492 -0.0401
   30SAPC   C28 4006   3.722   4.221   7.172 -0.3775 -1.0899 -0.0779
   30SAPC   H8R 4007   3.772   4.171   7.087 -1.5819 -1.6406 -0.4783
   30SAPC   C29 4008   3.707   4.177   7.305 -0.2965 -0.3750 -0.4229
   30SAPC   H9R 4009   3.754   4.083   7.339 -0.9333  0.8155  4.0915
   30SAPC  C210 4010   3.630   4.243   7.416  0.0834  0.8490  0.6365
   30SAPC  H10R 4011   3.564   4.172   7.469  0.7784 -0.5028 -0.2934
   30SAPC  H10S 4012   3.560   4.322   7.380 -0.5283  1.2484  2.6535
   30SAPC  C211 4013   3.723   4.296   7.528 -0.0016 -0.4697  1.2201
   30SAPC  H11R 4014   3.822   4.323   7.489 -1.0051  2.2534  0.3627
   30SAPC  C212 4015   3.691   4.323   7.658 -0.5285 -0.2249  0.6293
   30SAPC  H12R 4016   3.771   4.375   7.714  0.7809 -0.1996 -1.2033
   30SAPC  C213 4017   3.558   4.307   7.734 -0.5536 -0.1463  0.7349
   30SAPC  H13R 4018   3.483   4.280   7.656 -0.3455  3.2737 -0.7740
   30SAPC  H13S 4019   3.524   4.407   7.770 -0.7518  0.2042 -0.3771
   30SAPC  C214 4020   3.568   4.211   7.854  0.3792  0.0041 -0.5222
   30SAPC  H14R 4021   3.567   4.104   7.828  0.2969  0.1498 -1.1372
   30SAPC  C215 4022   3.582   4.239   7.983  0.4402 -0.2574 -0.5357
   30SAPC  H15R 4023   3.594   4.155   8.053 -1.2682  0.6576  0.9011
   30SAPC  C216 4024   3.588   4.373   8.043  0.0134  0.0556 -0.4176
   30SAPC  H16R 4025   3.530   4.392   8.136  0.1327  0.6671 -0.4684
   30SAPC  H16S 4026   3.544   4.445   7.970  0.0576  1.2435  0.7078
   30SAPC  C217 4027   3.732   4.431   8.059  0.5831  0.5078 -0.1064
   30SAPC  H17R 4028   3.715   4.536   8.026 -3.5112 -0.2963 -0.8827
   30SAPC  H17S 4029   3.806   4.386   7.990  0.4635  2.2212 -1.3944
   30SAPC  C218 4030   3.781   4.409   8.203  0.5397 -0.0499 -0.5925
   30SAPC  H18R 4031   3.782   4.304   8.241 -0.1636  0.9785  2.3811
   30SAPC  H18S 4032   3.703   4.462   8.260  0.5564 -1.6924  1.0049
   30SAPC  C219 4033   3.917   4.474   8.231  0.1097 -0.2002 -0.5536
   30SAPC  H19R 4034   3.913   4.582   8.207 -0.5852 -0.3581 -1.1561
   30SAPC  H19S 4035   4.001   4.427   8.175 -0.5597 -0.7372 -1.1096
   30SAPC  C220 4036   3.955   4.482   8.378  0.2613  0.0346 -0.5654
   30SAPC  H20R 4037   3.934   4.389   8.436 -0.1913  0.8243  0.5495
   30SAPC  H20S 4038   3.882   4.557   8.416  1.0842  0.4846  0.1338
   30SAPC  H20T 4039   4.062   4.505   8.391  0.2259  0.4922 -1.0827
   30SAPC   C33 4040   3.325   4.087   6.801  0.1706 -0.2520  0.1136
   30SAPC   H3X 4041   3.419   4.141   6.778  1.3012 -1.1218  2.5770
   30SAPC   H3Y 4042   3.342   3.985   6.759  0.3834 -0.3796  0.5107
   30SAPC   C34 4043   3.296   4.054   6.947 -0.1205  0.5263  0.2576
   30SAPC   H4X 4044   3.199   4.001   6.949 -1.0174  2.1163  0.2333
   30SAPC   H4Y 4045   3.301   4.146   7.010  2.0885  0.1802  0.6238
   30SAPC   C35 4046   3.394   3.962   7.012  0.7364 -0.6170 -0.6870
   30SAPC   H5X 4047   3.498   4.000   7.006  1.4873 -2.0703  2.1336
   30SAPC   H5Y 4048   3.379   3.866   6.958 -0.1088  0.0331 -1.6326
   30SAPC   C36 4049   3.352   3.934   7.159 -0.8487  0.4461  0.3076
   30SAPC   H6X 4050   3.258   3.876   7.163 -0.0921 -1.0890 -2.9388
   30SAPC   H6Y 4051   3.333   4.038   7.193 -2.4983  0.3999 -0.4225
   30SAPC   C37 4052   3.469   3.876   7.243  0.2614 -0.0160 -0.3543
   30SAPC   H7X 4053   3.547   3.955   7.248  0.7097 -0.5933  3.7394
   30SAPC   H7Y 4054   3.509   3.785   7.195 -1.1343 -0.2413 -1.0996
   30SAPC   C38 4055   3.427   3.835   7.385  0.0841  0.2426  0.0134
   30SAPC   H8X 4056   3.519   3.787   7.424  0.3801  1.1825  0.4996
   30SAPC   H8Y 4057   3.340   3.768   7.367 -0.7779  1.0297  1.1494
   30SAPC   C39 4058   3.375   3.943   7.486 -0.4399 -0.9599  0.5194
   30SAPC   H9X 4059   3.294   4.004   7.439 -0.7008 -2.3712 -0.9147
   30SAPC   H9Y 4060   3.463   4.006   7.510 -0.5008 -0.9566  0.7297
   30SAPC  C310 4061   3.316   3.884   7.615 -0.3212 -0.6495 -0.2557
   30SAPC  H10X 4062   3.398   3.847   7.679  0.1933  1.8418  0.5866
   30SAPC  H10Y 4063   3.239   3.808   7.589 -1.3784 -0.0118  0.9451
   30SAPC  C311 4064   3.247   3.995   7.706  0.2660 -0.3391  0.2636
   30SAPC  H11X 4065   3.153   4.026   7.657 -0.4708 -1.0933  1.1938
   30SAPC  H11Y 4066   3.318   4.079   7.727 -0.4807 -0.1979  2.3514
   30SAPC  C312 4067   3.214   3.932   7.840  0.2840 -0.3574  0.8039
   30SAPC  H12X 4068   3.174   3.829   7.834  1.2124 -0.7831  1.8694
   30SAPC  H12Y 4069   3.130   3.990   7.885  0.2933  1.5295 -1.4988
   30SAPC  C313 4070   3.326   3.937   7.944  1.1390  0.2811 -0.4610
   30SAPC  H13X 4071   3.363   4.041   7.944 -0.6487  0.9355 -2.3516
   30SAPC  H13Y 4072   3.419   3.882   7.915  1.3788 -0.1229  1.0059
   30SAPC  C314 4073   3.269   3.919   8.086  0.6803  0.2918 -0.0267
   30SAPC  H14X 4074   3.204   3.830   8.073 -3.4058  3.0544  0.3863
   30SAPC  H14Y 4075   3.201   4.005   8.103 -1.2754 -1.0573 -0.7655
   30SAPC  C315 4076   3.375   3.909   8.198  0.2432  0.1055  0.0019
   30SAPC  H15X 4077   3.454   3.985   8.178  0.5152 -0.3613 -0.7464
   30SAPC  H15Y 4078   3.419   3.808   8.180  2.6180  1.2036 -0.5776
   30SAPC  C316 4079   3.322   3.916   8.343 -0.1161 -0.6725 -0.0771
   30SAPC  H16X 4080   3.303   4.025   8.351  0.5625 -0.5049 -0.7386
   30SAPC  H16Y 4081   3.400   3.885   8.416  0.3567 -1.4792 -0.9149
   30SAPC  C317 4082   3.196   3.836   8.368 -0.3430  0.0628 -0.5949
   30SAPC  H17X 4083   3.211   3.728   8.346 -1.1519  0.2869 -2.3636
   30SAPC  H17Y 4084   3.118   3.871   8.297 -1.3338  0.7450  0.7999
   30SAPC  C318 4085   3.143   3.852   8.509 -0.4856 -0.3229  0.1823
   30SAPC  H18X 4086   3.058   3.780   8.517 -0.2500 -1.0104 -2.7336
   30SAPC  H18Y 4087   3.106   3.953   8.536 -1.2451 -0.3657 -0.6472
   30SAPC  H18Z 4088   3.218   3.813   8.581  1.4955 -0.0702 -1.6979
   31SAPC     N 4089   4.628   3.943   6.358 -0.2376 -0.3623 -0.3648
   31SAPC   C12 4090   4.571   4.024   6.477 -0.6384  0.0807 -0.2774
   31SAPC  H12A 4091   4.635   4.106   6.507  0.3356 -0.7422 -0.0826
   31SAPC  H12B 4092   4.570   3.958   6.563  0.3583 -1.0869 -1.1446
   31SAPC   C13 4093   4.660   4.038   6.240  0.2064  0.2295 -0.2881
   31SAPC  H13A 4094   4.587   4.117   6.229 -0.4090 -0.1637  0.7787
   31SAPC  H13B 4095   4.763   4.070   6.247  0.0438  0.6903  0.0577
   31SAPC  H13C 4096   4.641   3.994   6.143 -0.1491 -0.0541 -0.0945
   31SAPC   C14 4097   4.753   3.866   6.386 -0.0797  0.0540 -0.1460
   31SAPC  H14A 4098   4.837   3.932   6.401 -0.2498 -0.0505  1.4299
   31SAPC  H14B 4099   4.749   3.805   6.476  1.2659  0.3505  0.1322
   31SAPC  H14C 4100   4.780   3.801   6.304  1.0030 -2.2911  1.9713
   31SAPC   C15 4101   4.533   3.838   6.305 -0.8029  0.4325 -0.2451
   31SAPC  H15A 4102   4.486   3.777   6.381 -0.6249  2.4993  1.5571
   31SAPC  H15B 4103   4.441   3.876   6.262 -0.7156  0.6968 -0.2007
   31SAPC  H15C 4104   4.577   3.779   6.226  0.5498  1.0945  0.0077
   31SAPC   C11 4105   4.437   4.099   6.453  0.1058 -0.0895 -0.2251
   31SAPC  H11A 4106   4.385   4.123   6.549  0.2993  1.2795 -0.4618
   31SAPC  H11B 4107   4.357   4.039   6.404 -2.0884 -0.6918  3.8787
   31SAPC     P 4108   4.522   4.338   6.407  0.1320  0.2020  0.0752
   31SAPC   O13 4109   4.669   4.313   6.387  0.7268  0.3132 -0.0121
   31SAPC   O14 4110   4.461   4.445   6.331 -0.1494  1.1315 -0.2200
   31SAPC   O12 4111   4.454   4.203   6.369 -0.6250  0.2547 -0.0770
   31SAPC   O11 4112   4.493   4.356   6.566 -0.0753 -0.2611 -0.0555
   31SAPC    C1 4113   4.526   4.488   6.617 -0.2702 -0.5825 -0.3738
   31SAPC    HA 4114   4.486   4.569   6.553  1.8638  1.5205  0.8819
   31SAPC    HB 4115   4.477   4.501   6.716  0.0722  0.5325 -0.3478
   31SAPC    C2 4116   4.679   4.520   6.637  0.3457 -0.3039  0.6612
   31SAPC    HS 4117   4.703   4.521   6.529  1.1500 -1.0868  0.8304
   31SAPC   O21 4118   4.734   4.415   6.708  0.2559 -0.5192 -0.0292
   31SAPC   C21 4119   4.862   4.400   6.699 -0.2531  0.3693  0.7434
   31SAPC   O22 4120   4.937   4.470   6.635 -0.0230  0.3592  0.5259
   31SAPC   C22 4121   4.894   4.284   6.786 -0.1769 -0.0949  0.1783
   31SAPC   H2R 4122   4.859   4.291   6.891  0.4690 -2.8211  0.6116
   31SAPC   H2S 4123   4.852   4.191   6.742  2.1480 -0.3358 -1.6319
   31SAPC    C3 4124   4.713   4.657   6.707  0.7176  0.4250  0.0987
   31SAPC    HX 4125   4.654   4.736   6.655 -0.1379 -1.3261 -1.6321
   31SAPC    HY 4126   4.817   4.695   6.696  0.5078  0.3632 -2.3299
   31SAPC   O31 4127   4.670   4.656   6.840  0.6340 -0.9255  1.0579
   31SAPC   C31 4128   4.759   4.637   6.936 -0.3620  0.3030  0.6929
   31SAPC   O32 4129   4.882   4.660   6.913 -0.1118 -0.0268 -0.3717
   31SAPC   C32 4130   4.683   4.611   7.070 -0.2312  0.3071 -0.3022
   31SAPC   H2X 4131   4.679   4.503   7.094  0.6276  0.0624 -1.2173
   31SAPC   H2Y 4132   4.581   4.655   7.072 -1.1841 -1.8024 -0.9493
   31SAPC   C23 4133   5.048   4.266   6.792  0.0737 -0.1716  0.3613
   31SAPC   H3R 4134   5.098   4.268   6.693  0.4838 -1.1259  0.5402
   31SAPC   H3S 4135   5.061   4.165   6.837 -0.5670  0.7381  2.6587
   31SAPC   C24 4136   5.127   4.375   6.876  0.0277  0.1883 -0.6579
   31SAPC   H4R 4137   5.125   4.481   6.841  3.3448  1.0525  1.5160
   31SAPC   H4S 4138   5.235   4.350   6.881  0.1418  0.9896  0.9798
   31SAPC   C25 4139   5.077   4.368   7.025  0.2022  0.2488 -0.4151
   31SAPC   H5R 4140   4.982   4.424   7.032  1.1545  2.3162 -3.2145
   31SAPC   C26 4141   5.130   4.307   7.133  0.2927  0.5509  0.5373
   31SAPC   H6R 4142   5.082   4.317   7.231 -0.4572 -0.8928  0.3363
   31SAPC   C27 4143   5.259   4.236   7.134 -0.5437 -0.2231 -0.3781
   31SAPC   H7R 4144   5.295   4.202   7.034  0.5639  1.4183 -0.5527
   31SAPC   H7S 4145   5.239   4.141   7.187  1.8085 -0.8019 -0.4526
   31SAPC   C28 4146   5.366   4.319   7.203  0.1345  0.0176 -0.1006
   31SAPC   H8R 4147   5.420   4.392   7.142  0.5442  0.0025  0.2450
   31SAPC   C29 4148   5.404   4.312   7.339 -0.4453  0.3245  0.1837
   31SAPC   H9R 4149   5.469   4.389   7.384 -1.6169  1.2368  0.3639
   31SAPC  C210 4150   5.351   4.209   7.437  0.1669  0.5219 -0.1513
   31SAPC  H10R 4151   5.433   4.182   7.506 -0.0353  1.4127  0.4576
   31SAPC  H10S 4152   5.332   4.116   7.379 -2.2114  0.9637 -0.1560
   31SAPC  C211 4153   5.225   4.258   7.499  0.5808 -0.6092 -0.4331
   31SAPC  H11R 4154   5.145   4.282   7.428  0.9329 -0.2870 -0.7239
   31SAPC  C212 4155   5.191   4.252   7.630 -0.4615  0.7453  0.1063
   31SAPC  H12R 4156   5.088   4.286   7.651  0.3573  2.6782  1.1237
   31SAPC  C213 4157   5.274   4.191   7.740  0.1788  0.8416  1.1249
   31SAPC  H13R 4158   5.254   4.245   7.834 -1.5751 -2.0623  2.4740
   31SAPC  H13S 4159   5.384   4.202   7.727  0.0204  0.2482 -0.9256
   31SAPC  C214 4160   5.234   4.044   7.740 -0.9526  0.0419  0.5424
   31SAPC  H14R 4161   5.260   3.975   7.658 -1.8608 -1.0907  1.1917
   31SAPC  C215 4162   5.140   3.996   7.826  0.5578 -0.0311  0.8352
   31SAPC  H15R 4163   5.116   3.889   7.820  0.7032 -0.0210  0.1159
   31SAPC  C216 4164   5.065   4.066   7.942 -0.1054 -0.0139  0.3061
   31SAPC  H16R 4165   5.113   4.161   7.975  0.3628 -0.9548  2.3790
   31SAPC  H16S 4166   5.051   3.998   8.028 -0.0900 -1.4285 -0.7978
   31SAPC  C217 4167   4.920   4.114   7.902  0.1683  0.4848  0.1223
   31SAPC  H17R 4168   4.850   4.030   7.886  0.4938  0.1496  0.4751
   31SAPC  H17S 4169   4.936   4.164   7.804  0.1253 -0.7870 -0.5307
   31SAPC  C218 4170   4.859   4.222   7.995  0.1982  0.0909  0.2885
   31SAPC  H18R 4171   4.788   4.279   7.931  0.9838  1.5221  0.6749
   31SAPC  H18S 4172   4.937   4.293   8.031  0.7220 -0.1840 -0.3003
   31SAPC  C219 4173   4.786   4.157   8.114 -0.2921  0.0217 -0.1848
   31SAPC  H19R 4174   4.848   4.071   8.147  0.2672  0.1985 -0.7676
   31SAPC  H19S 4175   4.699   4.099   8.075  0.2689 -0.5959 -0.5351
   31SAPC  C220 4176   4.732   4.232   8.229 -0.3458  0.0759 -0.7286
   31SAPC  H20R 4177   4.649   4.300   8.202 -1.0041 -0.6621 -0.5764
   31SAPC  H20S 4178   4.814   4.275   8.291  1.4296 -3.3976 -0.5620
   31SAPC  H20T 4179   4.678   4.168   8.303  0.0149  1.5942  0.8834
   31SAPC   C33 4180   4.767   4.666   7.188  0.2592 -0.3580 -0.0049
   31SAPC   H3X 4181   4.794   4.770   7.159  1.8949 -1.3654 -2.2738
   31SAPC   H3Y 4182   4.857   4.605   7.211 -0.2628 -1.3212 -0.4987
   31SAPC   C34 4183   4.683   4.674   7.313 -0.1739  0.3311  0.3781
   31SAPC   H4X 4184   4.593   4.738   7.298  2.1504  3.9581  1.3173
   31SAPC   H4Y 4185   4.745   4.718   7.394  0.1527  0.7315 -0.0904
   31SAPC   C35 4186   4.668   4.527   7.362 -0.3628 -0.0726  0.0416
   31SAPC   H5X 4187   4.766   4.486   7.394 -1.7739 -2.9973  0.7953
   31SAPC   H5Y 4188   4.620   4.455   7.292 -0.9533 -0.9641  1.3479
   31SAPC   C36 4189   4.585   4.518   7.490 -0.1584 -0.4092 -0.7615
   31SAPC   H6X 4190   4.570   4.409   7.500 -0.5786 -0.1611  1.5729
   31SAPC   H6Y 4191   4.491   4.563   7.450  0.4681  1.4055 -0.2767
   31SAPC   C37 4192   4.636   4.593   7.614 -0.0092  1.0736  0.5246
   31SAPC   H7X 4193   4.656   4.698   7.583  1.6391  0.0894 -1.9232
   31SAPC   H7Y 4194   4.732   4.552   7.651 -0.3268 -0.3596 -0.1977
   31SAPC   C38 4195   4.549   4.579   7.741 -1.0739 -0.2830  0.2742
   31SAPC   H8X 4196   4.441   4.564   7.718 -1.2394 -0.1870  0.9606
   31SAPC   H8Y 4197   4.562   4.679   7.788 -2.4338 -0.5602  1.2843
   31SAPC   C39 4198   4.587   4.469   7.841 -0.0327 -0.0797 -0.9637
   31SAPC   H9X 4199   4.698   4.456   7.835 -0.2146 -1.9683 -0.7198
   31SAPC   H9Y 4200   4.538   4.375   7.807 -1.0261 -0.1224  0.5549
   31SAPC  C310 4201   4.552   4.504   7.992  0.1253  0.2261  0.2872
   31SAPC  H10X 4202   4.602   4.600   8.015  0.9733 -0.0113 -0.5394
   31SAPC  H10Y 4203   4.581   4.429   8.069 -0.6415  1.1886  1.5365
   31SAPC  C311 4204   4.400   4.534   8.025 -0.2949  0.0982  0.5285
   31SAPC  H11X 4205   4.351   4.435   8.012  0.4546 -0.0624 -1.2268
   31SAPC  H11Y 4206   4.362   4.595   7.940 -0.5283 -0.6947  0.0562
   31SAPC  C312 4207   4.387   4.602   8.164 -0.4625  0.2239  0.6120
   31SAPC  H12X 4208   4.461   4.684   8.163 -0.9086  0.6327  0.9565
   31SAPC  H12Y 4209   4.419   4.527   8.240  3.0818 -0.3980 -1.4274
   31SAPC  C313 4210   4.247   4.646   8.209  0.6288  0.3167 -0.5378
   31SAPC  H13X 4211   4.173   4.564   8.196  0.2112  0.5373  0.3848
   31SAPC  H13Y 4212   4.225   4.733   8.144  0.5340 -0.2412 -1.2515
   31SAPC  C314 4213   4.237   4.687   8.355 -1.2025  0.4284  0.1140
   31SAPC  H14X 4214   4.270   4.601   8.418 -1.0840  0.3350 -0.0731
   31SAPC  H14Y 4215   4.130   4.712   8.373 -1.3146  0.3599 -0.4623
   31SAPC  C315 4216   4.329   4.804   8.390  0.0938  0.3667 -0.1999
   31SAPC  H15X 4217   4.319   4.879   8.309  1.7150 -0.4641 -1.1872
   31SAPC  H15Y 4218   4.434   4.767   8.387 -0.3069 -0.7211 -1.3227
   31SAPC  C316 4219   4.316   4.845   8.534  0.6388  0.0282 -0.3820
   31SAPC  H16X 4220   4.318   4.745   8.582 -0.4786  0.5932  0.8678
   31SAPC  H16Y 4221   4.224   4.896   8.567  0.4344 -0.3442 -0.3702
   31SAPC  C317 4222   4.446   4.922   8.580  0.5843 -0.1973  0.2138
   31SAPC  H17X 4223   4.419   5.026   8.608  0.5099  0.5621 -2.4704
   31SAPC  H17Y 4224   4.492   4.936   8.480 -2.5064 -2.5624 -1.6229
   31SAPC  C318 4225   4.514   4.833   8.682 -0.0689  0.0657  0.3063
   31SAPC  H18X 4226   4.526   4.727   8.651 -2.2402 -0.0518 -0.2494
   31SAPC  H18Y 4227   4.459   4.837   8.778  0.2570 -3.1138  0.6767
   31SAPC  H18Z 4228   4.621   4.857   8.694  0.4667 -3.1362  2.6236
   32SAPC     N 4229   6.155   4.789   6.260  0.3847  0.0812 -0.5658
   32SAPC   C12 4230   6.014   4.831   6.282 -0.4503 -0.5977 -0.7169
   32SAPC  H12A 4231   6.004   4.939   6.278  0.2694 -0.5544 -1.6316
   32SAPC  H12B 4232   5.992   4.817   6.386 -0.2327 -1.5836 -0.7989
   32SAPC   C13 4233   6.250   4.882   6.329  0.1381 -0.8408 -0.3412
   32SAPC  H13A 4234   6.233   4.893   6.435 -0.4128  2.9136 -0.7271
   32SAPC  H13B 4235   6.354   4.854   6.319  0.5268  0.6233 -0.5483
   32SAPC  H13C 4236   6.244   4.979   6.282  2.3281 -0.9698 -0.9319
   32SAPC   C14 4237   6.173   4.652   6.323 -0.5665 -0.0371  0.1367
   32SAPC  H14A 4238   6.276   4.622   6.329 -0.9885 -1.9476 -1.5825
   32SAPC  H14B 4239   6.122   4.643   6.418 -2.3038  1.0524 -0.6589
   32SAPC  H14C 4240   6.114   4.588   6.259 -1.5070  1.2378 -0.3078
   32SAPC   C15 4241   6.187   4.781   6.114  0.1051 -0.2550  0.2306
   32SAPC  H15A 4242   6.160   4.863   6.048  1.5522 -0.8026 -1.0710
   32SAPC  H15B 4243   6.292   4.764   6.096  0.5375 -1.8865  3.9617
   32SAPC  H15C 4244   6.139   4.696   6.068 -0.5061 -0.1240  0.6237
   32SAPC   C11 4245   5.897   4.774   6.195 -0.1414 -0.3711 -0.2395
   32SAPC  H11A 4246   5.814   4.765   6.268  0.4459 -0.4004  0.4271
   32SAPC  H11B 4247   5.911   4.668   6.164 -0.4028 -1.0962  2.0559
   32SAPC     P 4248   5.799   4.997   6.116 -0.3022  0.0737 -0.2070
   32SAPC   O13 4249   5.891   5.101   6.072  0.3879 -0.4323 -0.4887
   32SAPC   O14 4250   5.664   4.999   6.052 -0.3239  0.0697 -0.0288
   32SAPC   O12 4251   5.861   4.850   6.081  0.0136 -0.3453 -0.1816
   32SAPC   O11 4252   5.783   5.007   6.272  0.1143 -0.4924 -0.5352
   32SAPC    C1 4253   5.690   5.105   6.320 -0.1317  0.8848 -0.1794
   32SAPC    HA 4254   5.632   5.162   6.245 -0.4973 -0.7612 -1.1768
   32SAPC    HB 4255   5.618   5.050   6.385  1.5742  0.0495  1.0411
   32SAPC    C2 4256   5.766   5.203   6.412 -0.1518  0.4147 -0.3186
   32SAPC    HS 4257   5.840   5.254   6.346 -0.5447  1.4486  0.0296
   32SAPC   O21 4258   5.845   5.136   6.516 -0.1440  0.2543 -0.1969
   32SAPC   C21 4259   5.940   5.213   6.575  0.3215  0.2277 -0.5385
   32SAPC   O22 4260   5.961   5.329   6.549  0.0183  0.1793  0.1855
   32SAPC   C22 4261   6.017   5.135   6.683  0.8294  0.5819  0.7758
   32SAPC   H2R 4262   5.976   5.033   6.693  2.9192 -0.3167  0.4508
   32SAPC   H2S 4263   6.121   5.123   6.645 -0.0650  2.4702 -2.4685
   32SAPC    C3 4264   5.669   5.307   6.479 -0.7194 -0.5495 -0.0434
   32SAPC    HX 4265   5.617   5.365   6.400  1.8146 -2.1432 -2.9668
   32SAPC    HY 4266   5.717   5.386   6.541 -0.8819 -0.7615  0.3602
   32SAPC   O31 4267   5.566   5.228   6.543 -0.6013  0.5509  0.0705
   32SAPC   C31 4268   5.558   5.241   6.674 -0.5648  0.1195 -0.7213
   32SAPC   O32 4269   5.604   5.329   6.744 -0.1126  0.1898  0.0692
   32SAPC   C32 4270   5.504   5.109   6.725 -0.0652 -0.1441  0.1600
   32SAPC   H2X 4271   5.571   5.022   6.711 -1.4527 -0.9106 -1.9661
   32SAPC   H2Y 4272   5.426   5.079   6.651 -1.8614  0.7891  1.6295
   32SAPC   C23 4273   6.019   5.203   6.822  0.7017  0.2461  0.2679
   32SAPC   H3R 4274   6.033   5.126   6.901  1.4434  1.8519  1.7123
   32SAPC   H3S 4275   5.916   5.236   6.849  0.9302  2.7162 -1.7104
   32SAPC   C24 4276   6.126   5.308   6.846 -0.1390  1.0022 -0.5426
   32SAPC   H4R 4277   6.106   5.328   6.953  3.2512 -1.6268  0.6788
   32SAPC   H4S 4278   6.102   5.397   6.783  1.3079  2.5673  1.0381
   32SAPC   C25 4279   6.269   5.263   6.835  0.0069  0.1226  0.1809
   32SAPC   H5R 4280   6.317   5.269   6.736  0.0519  1.2739  0.2640
   32SAPC   C26 4281   6.352   5.240   6.936  0.0251  0.8477 -0.2298
   32SAPC   H6R 4282   6.456   5.212   6.914 -0.6749 -0.9285 -1.3562
   32SAPC   C27 4283   6.315   5.244   7.083  0.1860  0.9292 -0.0031
   32SAPC   H7R 4284   6.217   5.193   7.097  0.8618 -0.9752 -1.8551
   32SAPC   H7S 4285   6.311   5.349   7.116  2.2790  1.6461 -1.9173
   32SAPC   C28 4286   6.411   5.176   7.179  0.1563 -0.5787  0.1444
   32SAPC   H8R 4287   6.501   5.128   7.138 -1.2983 -1.3473 -2.1807
   32SAPC   C29 4288   6.395   5.168   7.313  0.0318 -0.0884  0.2135
   32SAPC   H9R 4289   6.468   5.118   7.378  2.0722 -0.4431 -2.2471
   32SAPC  C210 4290   6.270   5.230   7.381 -0.6035 -0.8717  0.0727
   32SAPC  H10R 4291   6.193   5.150   7.385  1.0454 -2.4917  0.3961
   32SAPC  H10S 4292   6.235   5.320   7.326 -1.6379 -0.7510  0.9196
   32SAPC  C211 4293   6.298   5.269   7.522  0.1482  0.4472  0.0987
   32SAPC  H11R 4294   6.364   5.357   7.525  1.4500 -0.5145  0.0662
   32SAPC  C212 4295   6.261   5.209   7.634 -0.2797  0.8367 -0.2514
   32SAPC  H12R 4296   6.302   5.246   7.730 -0.8929 -1.3670  0.9013
   32SAPC  C213 4297   6.173   5.082   7.647  0.0673 -0.0454 -0.1673
   32SAPC  H13R 4298   6.157   5.022   7.555  0.1189 -1.4366  0.7338
   32SAPC  H13S 4299   6.070   5.114   7.674  0.1600 -1.0704  1.4233
   32SAPC  C214 4300   6.228   4.999   7.761  0.1730  0.9955 -0.4124
   32SAPC  H14R 4301   6.328   4.957   7.745 -0.5469 -0.6690 -0.5783
   32SAPC  C215 4302   6.166   4.954   7.878 -0.0683 -0.3728 -0.4670
   32SAPC  H15R 4303   6.227   4.897   7.949  0.5609  1.1452  0.2303
   32SAPC  C216 4304   6.021   4.983   7.921 -0.1269  0.7644 -0.6633
   32SAPC  H16R 4305   5.952   4.962   7.838  1.8192  1.6993 -2.5763
   32SAPC  H16S 4306   6.018   5.093   7.940 -4.8207  0.7384 -0.8217
   32SAPC  C217 4307   5.995   4.901   8.043 -0.9609  0.1092 -0.8475
   32SAPC  H17R 4308   6.073   4.932   8.116  1.4262 -0.0149 -3.2550
   32SAPC  H17S 4309   6.023   4.794   8.029  2.1491  1.1132 -2.8035
   32SAPC  C218 4310   5.849   4.908   8.098 -0.0150  0.4376  0.4590
   32SAPC  H18R 4311   5.777   4.860   8.029  0.6157  2.3597 -1.6171
   32SAPC  H18S 4312   5.821   5.015   8.105  0.2943  0.7526 -2.5516
   32SAPC  C219 4313   5.828   4.842   8.232 -0.1564 -0.2157  0.2673
   32SAPC  H19R 4314   5.915   4.869   8.296  0.8088  0.1553 -1.1766
   32SAPC  H19S 4315   5.837   4.732   8.219  4.2102 -0.1058  1.3245
   32SAPC  C220 4316   5.695   4.880   8.295 -0.5649 -0.2847 -0.3547
   32SAPC  H20R 4317   5.694   4.833   8.396  0.1690  0.1420 -0.1477
   32SAPC  H20S 4318   5.604   4.848   8.240 -0.3283 -1.8757  0.1464
   32SAPC  H20T 4319   5.691   4.991   8.299  0.1253 -0.2924  0.7714
   32SAPC   C33 4320   5.438   5.119   6.867 -0.2268  0.2346  0.0534
   32SAPC   H3X 4321   5.404   5.019   6.902  1.4036 -0.7985 -1.2386
   32SAPC   H3Y 4322   5.352   5.189   6.860  0.0174  0.4132 -1.1770
   32SAPC   C34 4323   5.528   5.176   6.980  0.5318  0.5358  0.4321
   32SAPC   H4X 4324   5.513   5.287   6.977  0.5689  0.5417  0.4606
   32SAPC   H4Y 4325   5.636   5.158   6.965 -0.0338 -0.3805 -2.9183
   32SAPC   C35 4326   5.493   5.124   7.117 -0.0962 -0.0410  0.1891
   32SAPC   H5X 4327   5.496   5.013   7.113  1.4941  0.0129 -0.6424
   32SAPC   H5Y 4328   5.386   5.146   7.138  0.3432  3.3568 -0.7052
   32SAPC   C36 4329   5.585   5.198   7.229  0.1951 -0.1951 -1.5185
   32SAPC   H6X 4330   5.558   5.306   7.231 -0.3714 -0.2351 -4.5236
   32SAPC   H6Y 4331   5.692   5.186   7.202  0.9844 -1.7610  2.0151
   32SAPC   C37 4332   5.559   5.143   7.368  0.3440  0.3153  0.5811
   32SAPC   H7X 4333   5.561   5.032   7.357 -0.4281  0.1521  1.9734
   32SAPC   H7Y 4334   5.457   5.178   7.397 -2.2304 -1.9893 -4.9056
   32SAPC   C38 4335   5.666   5.190   7.465 -0.2228  0.7499  0.8015
   32SAPC   H8X 4336   5.648   5.295   7.496 -2.7946  1.1616 -1.8303
   32SAPC   H8Y 4337   5.760   5.193   7.407 -0.5756 -2.9896 -0.1047
   32SAPC   C39 4338   5.683   5.099   7.588 -0.6020  0.3320  0.1761
   32SAPC   H9X 4339   5.752   5.158   7.651  2.2326 -3.7666  1.0743
   32SAPC   H9Y 4340   5.733   5.009   7.547  1.0009  0.6618  1.3865
   32SAPC  C310 4341   5.552   5.074   7.666  0.4814 -0.2344 -0.0502
   32SAPC  H10X 4342   5.482   5.006   7.612 -1.8096  0.1033  2.4050
   32SAPC  H10Y 4343   5.497   5.170   7.681  2.0256  0.9853 -1.8218
   32SAPC  C311 4344   5.573   5.004   7.799 -0.4365  0.4506  0.1024
   32SAPC  H11X 4345   5.647   5.066   7.855 -0.3667 -1.3081  1.9853
   32SAPC  H11Y 4346   5.612   4.901   7.785  2.6824  1.7041 -1.0036
   32SAPC  C312 4347   5.443   5.001   7.886  0.7882  0.3557 -0.3944
   32SAPC  H12X 4348   5.362   4.953   7.828 -0.4411  3.0665 -1.0368
   32SAPC  H12Y 4349   5.411   5.108   7.892  1.7920  0.7900 -2.2882
   32SAPC  C313 4350   5.465   4.951   8.029 -0.4929 -0.1910  0.2121
   32SAPC  H13X 4351   5.537   5.015   8.085 -0.4694 -1.4679  1.6580
   32SAPC  H13Y 4352   5.521   4.855   8.033  0.6576  0.4753  0.3288
   32SAPC  C314 4353   5.332   4.942   8.107 -0.1138  0.5870  0.0200
   32SAPC  H14X 4354   5.363   4.884   8.196 -0.3714 -1.5697 -1.2655
   32SAPC  H14Y 4355   5.256   4.881   8.054 -2.0561  3.3765 -0.5092
   32SAPC  C315 4356   5.285   5.080   8.153  0.7107  0.3081  0.0781
   32SAPC  H15X 4357   5.251   5.140   8.066  0.3369  1.3173  0.9082
   32SAPC  H15Y 4358   5.369   5.136   8.197  1.0057 -0.6624  0.7698
   32SAPC  C316 4359   5.164   5.066   8.244  0.2839 -0.0609  0.1057
   32SAPC  H16X 4360   5.081   5.017   8.189 -0.2312  0.4931  0.3943
   32SAPC  H16Y 4361   5.131   5.172   8.255  0.2271 -0.0989  0.2999
   32SAPC  C317 4362   5.194   4.989   8.377 -0.1418  0.0974  0.6426
   32SAPC  H17X 4363   5.206   4.879   8.364 -1.2849  0.1733 -1.2918
   32SAPC  H17Y 4364   5.092   4.995   8.421 -0.7075 -2.3782 -0.2367
   32SAPC  C318 4365   5.299   5.053   8.467  0.1334 -0.9103 -1.0617
   32SAPC  H18X 4366   5.402   5.031   8.430  0.9761  1.5797 -0.3287
   32SAPC  H18Y 4367   5.291   4.999   8.564 -0.6628  0.7121 -0.2104
   32SAPC  H18Z 4368   5.279   5.161   8.480  1.0807 -0.5102 -2.7951
   33POPC     N 4369   1.818   6.716  11.025  0.9579 -0.2337 -0.3662
   33POPC   C12 4370   1.708   6.822  11.032 -0.1117 -0.2111 -0.6639
   33POPC  H12A 4371   1.700   6.869  11.129 -0.4311 -1.7096  0.0462
   33POPC  H12B 4372   1.611   6.775  11.027  0.4437 -1.6967  1.5582
   33POPC   C13 4373   1.798   6.616  11.137  0.0980  1.1979 -0.6169
   33POPC  H13A 4374   1.815   6.657  11.236  3.0518 -0.5541 -0.3278
   33POPC  H13B 4375   1.696   6.581  11.134  1.4674 -2.9576 -3.1623
   33POPC  H13C 4376   1.860   6.529  11.122  0.1992  1.0770  0.4410
   33POPC   C14 4377   1.811   6.642  10.894 -0.0521 -0.2713  0.1471
   33POPC  H14A 4378   1.726   6.575  10.897 -1.0566  1.0196  0.9020
   33POPC  H14B 4379   1.809   6.705  10.806 -0.4997  1.3436  1.3006
   33POPC  H14C 4380   1.899   6.580  10.883 -0.7535 -1.1115 -0.8371
   33POPC   C15 4381   1.949   6.786  11.035 -0.1812 -0.0775  0.2128
   33POPC  H15A 4382   1.957   6.850  10.948  2.7616  1.0062  1.2618
   33POPC  H15B 4383   2.020   6.707  11.017  0.2463 -0.3524  3.0068
   33POPC  H15C 4384   1.952   6.833  11.131  2.0087  0.7848 -0.2697
   33POPC   C11 4385   1.696   6.948  10.928  0.2993 -0.4619 -0.7657
   33POPC  H11A 4386   1.774   7.025  10.946 -1.6111  1.0945  1.1585
   33POPC  H11B 4387   1.602   7.002  10.954  2.4327  2.3764  1.3817
   33POPC     P 4388   1.817   6.949  10.692  0.2817  0.1501  0.0301
   33POPC   O13 4389   1.861   6.824  10.619 -0.0995 -0.5873 -0.4527
   33POPC   O14 4390   1.922   7.032  10.763  0.8598 -0.1898  0.1863
   33POPC   O12 4391   1.696   6.919  10.793  0.6378  0.4719 -0.3023
   33POPC   O11 4392   1.736   7.040  10.587 -0.4833  0.0384  0.2164
   33POPC    C1 4393   1.796   7.162  10.534 -0.0948  0.5867 -0.6057
   33POPC    HA 4394   1.730   7.250  10.549  1.4829  2.1935 -2.6314
   33POPC    HB 4395   1.888   7.196  10.587 -0.4934 -0.6651  0.9117
   33POPC    C2 4396   1.817   7.151  10.383  0.5106  0.8400  0.3711
   33POPC    HS 4397   1.724   7.123  10.329  0.4730  1.0452  0.3294
   33POPC   O21 4398   1.917   7.053  10.364  0.2543  0.6082 -0.0905
   33POPC   C21 4399   1.917   6.981  10.252 -0.0761 -0.3056 -0.4297
   33POPC   O22 4400   1.824   6.982  10.172  0.2185  0.6799 -0.3389
   33POPC   C22 4401   2.050   6.924  10.222 -0.6419  0.2326  0.0608
   33POPC   H2R 4402   2.069   6.850  10.302  0.1033 -1.6453 -1.7931
   33POPC   H2S 4403   2.134   6.997  10.218 -0.0892 -0.4112 -0.4740
   33POPC    C3 4404   1.841   7.291  10.309 -0.1570 -0.0821 -0.5860
   33POPC    HX 4405   1.925   7.330  10.369 -0.9654  0.6067  0.1052
   33POPC    HY 4406   1.759   7.364  10.327  0.9072  1.0119 -0.1673
   33POPC   O31 4407   1.873   7.269  10.168 -0.1563 -0.3446 -0.4619
   33POPC   C31 4408   1.773   7.274  10.084  0.4367  0.5140  0.3605
   33POPC   O32 4409   1.654   7.282  10.109 -0.2787  0.3192  0.0282
   33POPC   C32 4410   1.845   7.271   9.945 -0.2208 -0.1795  0.4038
   33POPC   H2X 4411   1.900   7.174   9.954  2.4075  1.2576  0.4014
   33POPC   H2Y 4412   1.912   7.360   9.949 -1.0041  0.4580 -0.5137
   33POPC   C23 4413   2.051   6.877  10.069  0.0747 -0.1434 -0.0970
   33POPC   H3R 4414   2.041   6.955   9.991 -0.5938 -0.3603 -0.2344
   33POPC   H3S 4415   1.968   6.803  10.064  0.2204 -0.4631  1.6270
   33POPC   C24 4416   2.190   6.809  10.036 -0.1682 -0.2607  0.9712
   33POPC   H4R 4417   2.186   6.703  10.069  0.4785 -0.1787  1.3467
   33POPC   H4S 4418   2.267   6.854  10.103 -0.7673  0.4713  1.1709
   33POPC   C25 4419   2.234   6.824   9.899  0.2937  0.0970  0.4880
   33POPC   H5R 4420   2.333   6.775   9.883  0.4566 -0.7466  3.7011
   33POPC   H5S 4421   2.251   6.929   9.868 -1.8960  0.4964  0.6227
   33POPC   C26 4422   2.135   6.758   9.803  0.3403 -0.2597 -0.3540
   33POPC   H6R 4423   2.028   6.768   9.829  0.0741 -1.6971 -0.8765
   33POPC   H6S 4424   2.165   6.651   9.807  2.7349  0.3849 -0.1150
   33POPC   C27 4425   2.166   6.775   9.657  0.0675 -0.4083 -0.3615
   33POPC   H7R 4426   2.135   6.698   9.584  2.1244 -0.3795 -1.3011
   33POPC   H7S 4427   2.276   6.779   9.646  0.2204 -2.3321  0.4352
   33POPC   C28 4428   2.110   6.916   9.600  0.1043 -0.4746  0.6139
   33POPC   H8R 4429   2.101   6.993   9.679 -2.0348 -0.8193  0.7186
   33POPC   H8S 4430   2.010   6.886   9.563  0.9599 -0.5637 -1.6890
   33POPC   C29 4431   2.193   6.960   9.482  0.5006 -0.1763 -0.4883
   33POPC   H91 4432   2.302   6.968   9.498  0.0256 -0.1525  3.0522
   33POPC  C210 4433   2.146   6.995   9.361 -0.2032  0.7136  0.3585
   33POPC  H101 4434   2.222   7.032   9.290 -1.0174  1.7576  0.0111
   33POPC  C211 4435   2.001   6.988   9.319  0.0297 -0.3224  0.4783
   33POPC  H11R 4436   1.931   7.036   9.391 -1.7467  2.3198 -2.8873
   33POPC  H11S 4437   1.964   6.887   9.291  0.1897  0.0833 -1.2816
   33POPC  C212 4438   1.975   7.052   9.180 -0.3630 -0.0711 -0.0829
   33POPC  H12R 4439   2.040   6.996   9.110  1.3105  1.0443  0.5707
   33POPC  H12S 4440   2.011   7.157   9.182  1.8540 -0.8153  0.5284
   33POPC  C213 4441   1.831   7.049   9.129 -0.1537 -0.0664  0.4724
   33POPC  H13R 4442   1.779   7.132   9.181  0.8431 -0.9485  2.9399
   33POPC  H13S 4443   1.780   6.958   9.166  0.3781  0.3435  2.2352
   33POPC  C214 4444   1.818   7.081   8.982 -0.3490 -0.0614 -0.0955
   33POPC  H14R 4445   1.827   6.988   8.920 -0.2892 -0.3648  0.3661
   33POPC  H14S 4446   1.894   7.153   8.948  0.9764 -1.3240  0.1540
   33POPC  C215 4447   1.691   7.150   8.942 -0.4127 -0.2577 -0.1177
   33POPC  H15R 4448   1.679   7.240   9.005  0.3368 -0.7679  0.7593
   33POPC  H15S 4449   1.595   7.094   8.943  0.3507 -1.5550  1.7487
   33POPC  C216 4450   1.703   7.191   8.788  0.0381 -0.7115 -0.4816
   33POPC  H16R 4451   1.689   7.112   8.711 -0.5462 -0.3278 -0.7608
   33POPC  H16S 4452   1.805   7.234   8.777 -0.4823  0.5172 -0.4913
   33POPC  C217 4453   1.600   7.302   8.759  0.0455 -0.3877  0.8384
   33POPC  H17R 4454   1.635   7.363   8.673 -2.8949  0.7515  0.4258
   33POPC  H17S 4455   1.600   7.367   8.848  0.1637 -2.0040  2.0528
   33POPC  C218 4456   1.455   7.251   8.726  0.4393  0.2882  0.9172
   33POPC  H18R 4457   1.452   7.190   8.632  1.0398 -0.6626  1.5072
   33POPC  H18S 4458   1.392   7.341   8.712  2.0638  1.7222  2.5846
   33POPC  H18T 4459   1.418   7.187   8.809 -2.1179  2.4538  1.5048
   33POPC   C33 4460   1.739   7.283   9.840 -0.4603  0.0307 -0.2238
   33POPC   H3X 4461   1.673   7.369   9.865 -1.8428 -0.1549 -3.0144
   33POPC   H3Y 4462   1.673   7.193   9.838 -0.5588  0.1052 -0.5722
   33POPC   C34 4463   1.791   7.297   9.698  0.1546  0.8169 -1.0047
   33POPC   H4X 4464   1.846   7.205   9.670 -0.7199  0.5777 -1.9454
   33POPC   H4Y 4465   1.864   7.381   9.694 -0.0949  1.1098  0.3908
   33POPC   C35 4466   1.682   7.308   9.586  0.0799 -0.4420  0.4928
   33POPC   H5X 4467   1.598   7.373   9.617 -0.4542 -1.3528  0.9821
   33POPC   H5Y 4468   1.635   7.207   9.580 -2.3402  0.7712 -2.1209
   33POPC   C36 4469   1.742   7.335   9.449  0.2645 -0.2838  0.3871
   33POPC   H6X 4470   1.804   7.251   9.412 -0.1269  1.0095 -3.4377
   33POPC   H6Y 4471   1.814   7.418   9.468  0.1539 -0.4740  1.6992
   33POPC   C37 4472   1.623   7.375   9.353 -0.3562 -0.0076 -0.2956
   33POPC   H7X 4473   1.550   7.434   9.412  1.1870  0.8485  0.7903
   33POPC   H7Y 4474   1.568   7.282   9.329  2.6092 -1.4154 -1.9639
   33POPC   C38 4475   1.675   7.445   9.232  0.0795  0.9899  0.2975
   33POPC   H8X 4476   1.741   7.374   9.177 -2.3438 -0.6877 -0.5433
   33POPC   H8Y 4477   1.732   7.535   9.264  0.5764  0.2719  1.4433
   33POPC   C39 4478   1.551   7.479   9.146 -0.6298  0.4998  0.1001
   33POPC   H9X 4479   1.477   7.535   9.207 -0.6529 -0.6875  1.1682
   33POPC   H9Y 4480   1.512   7.384   9.105  1.4942 -0.6431  0.6536
   33POPC  C310 4481   1.600   7.579   9.042 -0.2398  0.7991  0.4514
   33POPC  H10X 4482   1.525   7.575   8.960  1.9197  0.4042 -1.5482
   33POPC  H10Y 4483   1.688   7.524   9.003  0.9348  1.6117  1.9046
   33POPC  C311 4484   1.631   7.724   9.098 -0.2810  0.0598 -0.1442
   33POPC  H11X 4485   1.730   7.731   9.148 -0.8587 -0.3962  1.0840
   33POPC  H11Y 4486   1.549   7.755   9.166 -0.4647  0.7648 -0.6868
   33POPC  C312 4487   1.649   7.836   9.000  0.9848 -0.9962  0.5251
   33POPC  H12X 4488   1.716   7.800   8.919  0.6324 -1.7983  0.5880
   33POPC  H12Y 4489   1.699   7.925   9.044 -0.6820 -1.3945  3.3204
   33POPC  C313 4490   1.522   7.878   8.932 -0.3825  0.6667  0.1673
   33POPC  H13X 4491   1.459   7.936   9.003 -0.5642 -0.4641  0.9508
   33POPC  H13Y 4492   1.458   7.805   8.879 -0.5870  1.6944 -1.0180
   33POPC  C314 4493   1.568   7.979   8.825  0.1726  0.2415  0.0979
   33POPC  H14X 4494   1.678   7.981   8.813  0.4675  0.2373  2.6060
   33POPC  H14Y 4495   1.533   8.081   8.850  0.1368  0.1513  0.4133
   33POPC  C315 4496   1.513   7.936   8.685  1.0825 -0.0424 -0.6812
   33POPC  H15X 4497   1.532   8.031   8.631  0.4665  1.0710  1.0439
   33POPC  H15Y 4498   1.402   7.934   8.690  1.1311 -0.3418  0.3426
   33POPC  C316 4499   1.581   7.825   8.607 -0.5471 -0.5334 -0.2602
   33POPC  H16X 4500   1.574   7.834   8.497 -2.3895  0.6272 -0.0816
   33POPC  H16Y 4501   1.553   7.725   8.646  1.7912 -0.8752  0.5663
   33POPC  H16Z 4502   1.690   7.830   8.628 -1.1321  0.1853  2.8621
   34POPC     N 4503   1.351   0.394  10.704  0.0616  0.3136 -0.2105
   34POPC   C12 4504   1.292   0.460  10.827  0.3880  0.0596 -0.5093
   34POPC  H12A 4505   1.337   0.558  10.839  1.1037 -0.3599  0.2793
   34POPC  H12B 4506   1.340   0.406  10.907  0.2275 -3.2644 -2.5796
   34POPC   C13 4507   1.311   0.249  10.694 -0.1821  0.4093 -0.5025
   34POPC  H13A 4508   1.365   0.185  10.626  0.3724  0.4746 -0.1356
   34POPC  H13B 4509   1.312   0.213  10.796  0.8172  0.5926 -0.4356
   34POPC  H13C 4510   1.209   0.239  10.662 -1.1282 -1.1329  2.7630
   34POPC   C14 4511   1.310   0.452  10.581  0.0491  0.7530  0.1292
   34POPC  H14A 4512   1.203   0.455  10.572 -0.3413 -1.5179  3.2110
   34POPC  H14B 4513   1.349   0.553  10.584 -0.4986  1.0206 -1.3969
   34POPC  H14C 4514   1.345   0.402  10.491 -1.3513  1.1624 -0.6554
   34POPC   C15 4515   1.506   0.395  10.703 -0.1656 -0.1520 -0.4785
   34POPC  H15A 4516   1.554   0.320  10.764 -0.0167  0.5264  0.2351
   34POPC  H15B 4517   1.543   0.494  10.723 -1.4237  0.8684 -2.9902
   34POPC  H15C 4518   1.547   0.372  10.605 -0.0050  1.9386 -0.9155
   34POPC   C11 4519   1.138   0.464  10.849  0.9582 -0.1932 -0.3071
   34POPC  H11A 4520   1.136   0.519  10.945 -1.0425  1.2844 -1.1742
   34POPC  H11B 4521   1.100   0.360  10.864 -1.1574  0.4444 -1.0311
   34POPC     P 4522   1.031   0.688  10.751 -0.3501  0.4340 -0.0997
   34POPC   O13 4523   1.150   0.763  10.788 -0.2366 -1.1377 -0.4297
   34POPC   O14 4524   0.911   0.688  10.837  0.0630 -0.0455  0.8807
   34POPC   O12 4525   1.078   0.538  10.735 -0.5595 -0.2588 -1.3472
   34POPC   O11 4526   0.986   0.725  10.606 -0.7133  0.1436  0.4101
   34POPC    C1 4527   1.085   0.733  10.499 -0.1851 -0.2683 -0.0579
   34POPC    HA 4528   1.046   0.708  10.399 -3.4304 -0.8387  1.2860
   34POPC    HB 4529   1.175   0.675  10.528  0.4798  0.7153 -0.1401
   34POPC    C2 4530   1.154   0.868  10.486 -0.3893 -0.3437  0.2808
   34POPC    HS 4531   1.193   0.892  10.587  0.0644  2.2253 -0.4704
   34POPC   O21 4532   1.059   0.965  10.438 -0.3594  0.1712  0.4080
   34POPC   C21 4533   1.094   1.087  10.461 -0.3110 -0.9545 -0.0667
   34POPC   O22 4534   1.198   1.126  10.521 -0.3360 -0.5307  0.0122
   34POPC   C22 4535   1.002   1.179  10.375 -0.0439 -0.0921  0.1555
   34POPC   H2R 4536   0.932   1.232  10.444 -0.1742  0.1858 -0.1933
   34POPC   H2S 4537   0.937   1.123  10.305 -0.5760  0.9340 -0.1887
   34POPC    C3 4538   1.282   0.848  10.392  0.0981  0.1630 -0.2476
   34POPC    HX 4539   1.348   0.764  10.423  2.2252  1.5094 -0.9718
   34POPC    HY 4540   1.348   0.936  10.412  2.5264 -1.4031 -1.1094
   34POPC   O31 4541   1.255   0.857  10.248  0.0477  0.6401 -0.5589
   34POPC   C31 4542   1.238   0.737  10.195  0.0965 -0.7027 -0.0864
   34POPC   O32 4543   1.246   0.630  10.249  0.2676 -0.5963 -0.3188
   34POPC   C32 4544   1.185   0.754  10.051  0.0513  0.2027 -0.6130
   34POPC   H2X 4545   1.194   0.859  10.017  0.0478  0.7899  1.1494
   34POPC   H2Y 4546   1.077   0.729  10.049  0.1270 -0.1103 -0.7973
   34POPC   C23 4547   1.078   1.290  10.289  0.4392 -0.4262 -0.1284
   34POPC   H3R 4548   1.175   1.322  10.333 -0.2712 -0.0229  1.1801
   34POPC   H3S 4549   1.013   1.381  10.298 -0.4227 -1.1131  0.7275
   34POPC   C24 4550   1.077   1.252  10.141 -0.4278 -0.3919  0.4716
   34POPC   H4R 4551   1.102   1.341  10.080 -2.0083 -0.0381  0.3130
   34POPC   H4S 4552   0.974   1.215  10.121 -0.4574 -0.9116  1.5463
   34POPC   C25 4553   1.191   1.158  10.108  0.7002 -0.3751 -0.1202
   34POPC   H5R 4554   1.165   1.053  10.134 -0.2367 -0.5475 -1.6787
   34POPC   H5S 4555   1.276   1.190  10.171 -0.9050  2.1582  0.8298
   34POPC   C26 4556   1.232   1.162   9.958  0.3454 -0.0470  0.0074
   34POPC   H6R 4557   1.324   1.100   9.946  0.6748  0.2790  0.8148
   34POPC   H6S 4558   1.276   1.263   9.944  0.8550 -0.2994 -0.2010
   34POPC   C27 4559   1.131   1.109   9.852  0.3378 -0.0700 -0.3915
   34POPC   H7R 4560   1.043   1.174   9.873 -0.7317 -1.2434 -1.1962
   34POPC   H7S 4561   1.105   1.001   9.860 -0.1985  0.1275  0.6750
   34POPC   C28 4562   1.182   1.132   9.709  0.2363  0.4264  0.6238
   34POPC   H8R 4563   1.199   1.241   9.693  0.9428  0.3263  0.7010
   34POPC   H8S 4564   1.098   1.104   9.642  0.4219  1.7219 -0.1615
   34POPC   C29 4565   1.311   1.055   9.672  0.4384 -0.8183  0.2703
   34POPC   H91 4566   1.399   1.101   9.720 -0.2807  0.1025  0.7228
   34POPC  C210 4567   1.328   0.949   9.581 -0.2319  0.3158  0.1947
   34POPC  H101 4568   1.428   0.904   9.571 -0.5021 -0.0984 -0.7073
   34POPC  C211 4569   1.224   0.881   9.491  0.3001  0.5283  0.0407
   34POPC  H11R 4570   1.123   0.905   9.532  1.0119 -0.1994  2.2984
   34POPC  H11S 4571   1.234   0.773   9.513  0.7356  0.2045 -1.6757
   34POPC  C212 4572   1.245   0.923   9.347  0.2864 -0.2745  0.2461
   34POPC  H12R 4573   1.341   0.888   9.304  1.6715 -0.1512  3.0917
   34POPC  H12S 4574   1.249   1.033   9.331 -0.2225 -0.2620  0.1925
   34POPC  C213 4575   1.155   0.849   9.244  0.2526  0.9197  0.4670
   34POPC  H13R 4576   1.060   0.907   9.239  0.8780  1.8310 -1.2685
   34POPC  H13S 4577   1.141   0.740   9.258 -1.4262  1.0692  0.1419
   34POPC  C214 4578   1.215   0.863   9.097  0.7124  0.3703 -0.9724
   34POPC  H14R 4579   1.315   0.814   9.099  0.2107 -0.7130 -1.6982
   34POPC  H14S 4580   1.220   0.972   9.080 -1.4940  0.4942 -0.9707
   34POPC  C215 4581   1.133   0.796   8.985 -0.0008  0.7874  0.2423
   34POPC  H15R 4582   1.028   0.829   9.003 -0.5185 -0.9191  0.3672
   34POPC  H15S 4583   1.143   0.686   8.993 -2.1006  0.5115 -0.5408
   34POPC  C216 4584   1.180   0.837   8.846 -0.4908 -0.3199 -0.0097
   34POPC  H16R 4585   1.289   0.814   8.844  0.0454  2.0733 -0.3867
   34POPC  H16S 4586   1.183   0.947   8.828  0.8594  0.0034  1.9742
   34POPC  C217 4587   1.119   0.747   8.745  0.9427  0.5311  0.2319
   34POPC  H17R 4588   1.010   0.755   8.766  0.7688  0.3221 -0.5901
   34POPC  H17S 4589   1.143   0.641   8.769  1.4689  0.4467 -0.6652
   34POPC  C218 4590   1.159   0.772   8.601  0.0869  0.6852 -0.4785
   34POPC  H18R 4591   1.267   0.750   8.587 -0.0138  0.4787 -0.9285
   34POPC  H18S 4592   1.124   0.876   8.588 -1.6242  0.1765 -0.0483
   34POPC  H18T 4593   1.109   0.696   8.537  1.4418 -0.8765  0.3000
   34POPC   C33 4594   1.250   0.638   9.963 -0.8926 -1.0331 -0.6145
   34POPC   H3X 4595   1.249   0.536  10.006  1.0973 -0.7826  0.1015
   34POPC   H3Y 4596   1.358   0.665   9.958 -1.2124  0.0327 -2.2421
   34POPC   C34 4597   1.207   0.630   9.816  0.0910 -0.1169  0.0750
   34POPC   H4X 4598   1.252   0.723   9.775  1.3606 -0.9435 -0.4253
   34POPC   H4Y 4599   1.097   0.643   9.815  0.0852 -0.0689  0.9237
   34POPC   C35 4600   1.248   0.499   9.746  0.5308 -0.2114 -0.4448
   34POPC   H5X 4601   1.207   0.415   9.806 -2.3356  0.1770 -1.7813
   34POPC   H5Y 4602   1.359   0.490   9.745  0.6440  1.1103  0.1585
   34POPC   C36 4603   1.198   0.487   9.594  0.4754  0.2030 -0.2675
   34POPC   H6X 4604   1.223   0.577   9.533  1.1412 -0.4882 -1.0243
   34POPC   H6Y 4605   1.090   0.466   9.581  0.8227 -0.9452 -1.4643
   34POPC   C37 4606   1.271   0.381   9.512  0.2735  0.1064  0.1702
   34POPC   H7X 4607   1.246   0.278   9.546 -0.2376  0.4476  0.8346
   34POPC   H7Y 4608   1.378   0.398   9.533  0.4152  1.5522 -1.6132
   34POPC   C38 4609   1.244   0.391   9.364  0.1668  0.0314 -0.1995
   34POPC   H8X 4610   1.313   0.318   9.317  0.6928 -0.3424  1.1262
   34POPC   H8Y 4611   1.250   0.493   9.323 -0.9572 -0.9160 -2.8158
   34POPC   C39 4612   1.097   0.352   9.334  0.6290 -0.0310 -0.0747
   34POPC   H9X 4613   1.027   0.427   9.376  0.3301  0.5359 -1.5206
   34POPC   H9Y 4614   1.087   0.250   9.374  0.2213  0.7877  1.9687
   34POPC  C310 4615   1.068   0.356   9.182 -0.5361  0.2611  0.3871
   34POPC  H10X 4616   1.093   0.457   9.143  1.8022 -0.9347 -1.3564
   34POPC  H10Y 4617   0.966   0.319   9.158 -0.1222 -0.8146  0.2349
   34POPC  C311 4618   1.162   0.267   9.102 -0.0982 -0.1325  0.4865
   34POPC  H11X 4619   1.183   0.170   9.151 -2.1237 -1.8278 -1.9007
   34POPC  H11Y 4620   1.260   0.317   9.083 -0.2508 -0.0771 -0.1615
   34POPC  C312 4621   1.103   0.231   8.965 -0.0167 -0.0774  0.1490
   34POPC  H12X 4622   0.996   0.200   8.972 -0.2135  0.2653 -1.0787
   34POPC  H12Y 4623   1.159   0.147   8.918  0.7931  1.4257 -1.6467
   34POPC  C313 4624   1.115   0.334   8.852  0.4730 -0.2822  0.2984
   34POPC  H13X 4625   1.220   0.366   8.835  0.8268  0.0823  2.9855
   34POPC  H13Y 4626   1.071   0.431   8.883  0.3101 -0.0252 -0.7089
   34POPC  C314 4627   1.065   0.288   8.712  0.5329  0.1795  0.4286
   34POPC  H14X 4628   0.959   0.254   8.716 -0.1355  2.1275  0.0703
   34POPC  H14Y 4629   1.129   0.206   8.674  0.5787  0.6576 -0.5721
   34POPC  C315 4630   1.048   0.399   8.606 -0.0816  0.1746  0.2753
   34POPC  H15X 4631   1.146   0.439   8.572 -1.1324  1.9339 -0.7340
   34POPC  H15Y 4632   0.991   0.483   8.650 -0.7759  1.3205 -2.7040
   34POPC  C316 4633   0.971   0.365   8.482  0.0247  0.0025  0.1647
   34POPC  H16X 4634   1.005   0.270   8.435 -0.3626  1.2150 -2.6906
   34POPC  H16Y 4635   0.967   0.452   8.413  0.4656 -0.8411 -0.9503
   34POPC  H16Z 4636   0.864   0.343   8.504 -0.0887 -0.3305 -0.6941
   35POPC     N 4637   0.881   4.640  11.222 -0.2352  0.7339 -0.2565
   35POPC   C12 4638   0.792   4.729  11.139 -0.1143 -0.2510 -0.4654
   35POPC  H12A 4639   0.726   4.781  11.207 -1.2365 -0.7373 -1.1756
   35POPC  H12B 4640   0.729   4.663  11.081 -0.2351  1.4141 -2.2919
   35POPC   C13 4641   0.981   4.711  11.316  0.2243  0.1964 -0.7663
   35POPC  H13A 4642   0.931   4.764  11.396 -0.1002  1.2042 -1.6173
   35POPC  H13B 4643   1.038   4.633  11.364 -1.9468 -0.7499  0.3657
   35POPC  H13C 4644   1.030   4.792  11.264 -1.5056  1.1259 -0.9808
   35POPC   C14 4645   0.796   4.545  11.299  0.3491 -0.0499  0.7738
   35POPC  H14A 4646   0.840   4.448  11.316 -0.2640 -0.6208 -0.8223
   35POPC  H14B 4647   0.751   4.589  11.387 -0.9893  0.2206 -0.0281
   35POPC  H14C 4648   0.716   4.514  11.234  2.5534 -3.2859 -0.5255
   35POPC   C15 4649   0.980   4.572  11.124  0.2244  0.0282  0.1302
   35POPC  H15A 4650   1.054   4.640  11.086 -0.0543  0.2326 -0.0486
   35POPC  H15B 4651   0.925   4.515  11.051  1.4160 -0.5663 -0.3149
   35POPC  H15C 4652   1.025   4.497  11.187 -1.1110 -0.7306  0.2124
   35POPC   C11 4653   0.854   4.833  11.039 -0.2240 -0.8074  0.7046
   35POPC  H11A 4654   0.773   4.902  11.006  1.9294  1.1735 -0.6452
   35POPC  H11B 4655   0.890   4.765  10.958  0.2399  0.0487  0.1809
   35POPC     P 4656   1.063   4.982  10.984  0.1172  0.3865  0.3375
   35POPC   O13 4657   1.146   4.873  10.922  0.0176  0.1401 -0.2282
   35POPC   O14 4658   1.135   5.091  11.060 -1.0104 -1.1894  0.5574
   35POPC   O12 4659   0.960   4.917  11.087  0.1478  0.3839  0.1801
   35POPC   O11 4660   0.966   5.049  10.879 -0.4191  0.1108  0.1332
   35POPC    C1 4661   1.017   5.057  10.737 -0.4267  0.1696  0.2170
   35POPC    HA 4662   1.048   4.957  10.700 -0.3068 -0.5709  2.2137
   35POPC    HB 4663   1.093   5.136  10.720 -0.1427 -0.2374 -0.4224
   35POPC    C2 4664   0.894   5.095  10.649 -0.0206 -0.4745 -0.0331
   35POPC    HS 4665   0.818   5.014  10.644 -0.6109  0.0776 -0.1222
   35POPC   O21 4666   0.933   5.145  10.520 -0.2319 -0.2753  0.1500
   35POPC   C21 4667   0.970   5.057  10.429  0.5123 -0.4251  0.1144
   35POPC   O22 4668   0.966   4.935  10.446  0.0797 -0.2827  0.2531
   35POPC   C22 4669   0.986   5.120  10.288 -1.0311 -0.4044  0.0963
   35POPC   H2R 4670   1.085   5.170  10.281 -0.7542 -0.6359  1.9749
   35POPC   H2S 4671   0.902   5.190  10.266  0.1438  0.9869 -0.0543
   35POPC    C3 4672   0.806   5.212  10.712  1.8338 -0.7236 -0.4556
   35POPC    HX 4673   0.875   5.298  10.713  0.3001  0.5460  2.5621
   35POPC    HY 4674   0.770   5.188  10.814 -1.0383  1.3099 -0.9378
   35POPC   O31 4675   0.683   5.232  10.634  0.1330 -0.1750  0.2952
   35POPC   C31 4676   0.662   5.356  10.590 -0.1235  0.2604 -0.2522
   35POPC   O32 4677   0.727   5.453  10.618 -0.0631  0.3522 -0.3645
   35POPC   C32 4678   0.541   5.364  10.492 -0.1297 -0.4362  0.2692
   35POPC   H2X 4679   0.501   5.467  10.483 -1.2668 -0.9619 -0.8412
   35POPC   H2Y 4680   0.460   5.290  10.506  0.4723 -0.9817  0.9032
   35POPC   C23 4681   0.977   5.012  10.179 -1.0020 -0.8524  0.5668
   35POPC   H3R 4682   0.868   4.990  10.181 -1.9607  3.5286  0.9817
   35POPC   H3S 4683   1.039   4.923  10.202  1.2900  1.1245  2.2385
   35POPC   C24 4684   1.035   5.061  10.046 -0.0651  0.2356  0.5971
   35POPC   H4R 4685   1.142   5.074  10.073  0.5940 -3.0933 -0.1788
   35POPC   H4S 4686   0.978   5.150  10.011 -1.3271 -0.9228 -0.3939
   35POPC   C25 4687   1.021   4.964   9.926 -0.9952 -0.2296 -1.2636
   35POPC   H5R 4688   0.925   4.910   9.933 -0.3051 -1.2638  0.4740
   35POPC   H5S 4689   1.096   4.883   9.932 -1.8828 -1.0134 -0.6805
   35POPC   C26 4690   1.028   5.011   9.772  0.0918  0.2133 -0.2020
   35POPC   H6R 4691   1.123   5.069   9.763 -0.5425  1.6323  1.8255
   35POPC   H6S 4692   0.943   5.080   9.752  0.7587  0.6293 -1.6798
   35POPC   C27 4693   1.018   4.898   9.673 -0.1562 -0.3037 -0.4248
   35POPC   H7R 4694   0.917   4.851   9.678  0.2504 -1.1137  0.2465
   35POPC   H7S 4695   1.094   4.823   9.702  2.1451  1.7691 -0.9649
   35POPC   C28 4696   1.050   4.960   9.538  0.3312  0.5232  0.0923
   35POPC   H8R 4697   1.139   5.027   9.536  0.4263  0.4045  0.3017
   35POPC   H8S 4698   0.959   5.011   9.503  0.1354 -0.8121 -1.3681
   35POPC   C29 4699   1.082   4.861   9.427 -0.4820  0.0192 -0.2052
   35POPC   H91 4700   1.151   4.781   9.458 -0.7825 -0.4597 -0.7323
   35POPC  C210 4701   1.031   4.843   9.301  0.5143  0.2193 -0.6012
   35POPC  H101 4702   1.069   4.754   9.249  2.7349  1.3334 -0.9374
   35POPC  C211 4703   0.934   4.929   9.225  0.4645  0.0151 -0.1954
   35POPC  H11R 4704   0.880   4.995   9.296  0.9617 -1.2521  1.3908
   35POPC  H11S 4705   0.861   4.866   9.170 -1.1172  0.8495  0.9236
   35POPC  C212 4706   1.016   5.002   9.107 -0.0505  0.2529 -0.0184
   35POPC  H12R 4707   1.057   4.930   9.033  1.0127  1.1064 -0.2728
   35POPC  H12S 4708   1.107   5.042   9.158 -0.8900  1.6299  0.4033
   35POPC  C213 4709   0.947   5.117   9.028  0.7557 -0.4659  0.8281
   35POPC  H13R 4710   0.868   5.159   9.094 -2.1955 -0.5013 -2.5590
   35POPC  H13S 4711   0.889   5.078   8.943  0.7960 -0.2139  0.6855
   35POPC  C214 4712   1.062   5.214   8.987 -0.5410 -0.1460 -0.1721
   35POPC  H14R 4713   1.136   5.252   9.061 -2.2881 -0.5551  1.8491
   35POPC  H14S 4714   1.023   5.313   8.952  1.3289  0.1085 -1.6501
   35POPC  C215 4715   1.162   5.146   8.881  0.6010  0.1918 -0.4934
   35POPC  H15R 4716   1.104   5.089   8.806  2.2067 -2.4087  0.1667
   35POPC  H15S 4717   1.225   5.073   8.935  0.6890  0.3368 -0.3977
   35POPC  C216 4718   1.257   5.253   8.814  0.7055 -0.1221  1.1380
   35POPC  H16R 4719   1.300   5.312   8.897  0.6038  2.8339 -0.8135
   35POPC  H16S 4720   1.184   5.320   8.764  0.9248 -0.9962 -0.3814
   35POPC  C217 4721   1.356   5.205   8.713 -0.0766 -0.3449  0.5087
   35POPC  H17R 4722   1.297   5.153   8.635  1.7226 -0.2611 -0.9381
   35POPC  H17S 4723   1.424   5.127   8.756  1.4166  1.9337  2.3921
   35POPC  C218 4724   1.443   5.321   8.655  0.3576  0.4521 -0.6939
   35POPC  H18R 4725   1.540   5.280   8.619  1.1583  0.7149  1.1262
   35POPC  H18S 4726   1.468   5.391   8.737 -1.1988 -0.2769  0.4111
   35POPC  H18T 4727   1.387   5.380   8.579 -0.3886  0.9479  0.2289
   35POPC   C33 4728   0.599   5.337  10.355 -0.1017  0.5245  0.0095
   35POPC   H3X 4729   0.635   5.232  10.352 -1.4068  0.1052 -1.6388
   35POPC   H3Y 4730   0.693   5.393  10.330  0.5125  0.1180  1.4007
   35POPC   C34 4731   0.497   5.360  10.247 -0.0814 -0.5851 -0.3252
   35POPC   H4X 4732   0.463   5.465  10.237  0.8757 -0.2829 -0.3994
   35POPC   H4Y 4733   0.406   5.298  10.262  0.6064 -0.8054  3.3519
   35POPC   C35 4734   0.552   5.317  10.113  0.2609 -0.3931  0.1281
   35POPC   H5X 4735   0.561   5.209  10.139 -0.1611  0.1509  2.7326
   35POPC   H5Y 4736   0.656   5.346  10.090 -0.2233 -0.8217 -2.7869
   35POPC   C36 4737   0.462   5.349   9.986  0.0083 -0.3303 -0.1450
   35POPC   H6X 4738   0.467   5.458   9.966 -0.0906 -0.0417  1.3417
   35POPC   H6Y 4739   0.360   5.325  10.023  0.0691  0.8453  0.8135
   35POPC   C37 4740   0.506   5.281   9.858 -0.2826  0.3804  0.0364
   35POPC   H7X 4741   0.443   5.317   9.774  0.0806  1.1957  0.1187
   35POPC   H7Y 4742   0.495   5.170   9.863  3.5126 -0.1059 -1.2081
   35POPC   C38 4743   0.654   5.294   9.819 -0.9604 -0.2059 -0.2849
   35POPC   H8X 4744   0.722   5.262   9.902 -0.4129  0.1311 -0.5990
   35POPC   H8Y 4745   0.659   5.403   9.800 -0.4677 -0.4822 -1.8912
   35POPC   C39 4746   0.701   5.220   9.689  0.3227 -0.2726  0.2980
   35POPC   H9X 4747   0.704   5.111   9.710  1.1559 -0.3213 -0.0613
   35POPC   H9Y 4748   0.808   5.241   9.671 -0.3772  0.9594 -2.7623
   35POPC  C310 4749   0.616   5.246   9.567  0.6520 -0.1576 -0.6780
   35POPC  H10X 4750   0.602   5.355   9.555  0.9154  0.1008  1.1746
   35POPC  H10Y 4751   0.517   5.197   9.581  0.9557 -0.2907  1.2154
   35POPC  C311 4752   0.675   5.181   9.433  0.0789 -0.1124 -0.3289
   35POPC  H11X 4753   0.739   5.093   9.459 -0.3623  0.6809  3.6772
   35POPC  H11Y 4754   0.745   5.259   9.395 -0.7490  1.6533  1.7028
   35POPC  C312 4755   0.561   5.126   9.336 -0.0788 -0.4234 -0.6382
   35POPC  H12X 4756   0.482   5.077   9.396  0.6067 -0.5166  0.1895
   35POPC  H12Y 4757   0.614   5.049   9.276  1.7478  0.0621  0.3274
   35POPC  C313 4758   0.509   5.248   9.255 -0.4451 -0.1143  0.4492
   35POPC  H13X 4759   0.466   5.323   9.325 -0.7657  0.1229  0.0038
   35POPC  H13Y 4760   0.423   5.200   9.203 -0.5394 -0.1052  0.5960
   35POPC  C314 4761   0.599   5.310   9.147  0.2015  0.2206  0.8973
   35POPC  H14X 4762   0.623   5.225   9.080  0.6853 -0.2686  1.6726
   35POPC  H14Y 4763   0.696   5.353   9.181  0.4557  1.7882 -1.6718
   35POPC  C315 4764   0.522   5.412   9.059  0.6154  0.1554 -0.1339
   35POPC  H15X 4765   0.461   5.465   9.135 -0.3768  0.9915 -1.4902
   35POPC  H15Y 4766   0.460   5.360   8.983  1.1805 -0.5871 -0.0985
   35POPC  C316 4767   0.610   5.505   8.984 -0.7111  0.2406 -0.0552
   35POPC  H16X 4768   0.681   5.558   9.052 -1.4691  1.6252 -0.3373
   35POPC  H16Y 4769   0.549   5.579   8.928 -0.3009  0.1822 -0.5808
   35POPC  H16Z 4770   0.672   5.449   8.910 -1.4191 -0.6198  0.0068
   36POPC     N 4771   1.003   3.463  10.883 -0.2025 -0.5375 -0.1752
   36POPC   C12 4772   0.862   3.492  10.828  0.2280  0.0364 -0.6728
   36POPC  H12A 4773   0.879   3.583  10.772 -1.7870  1.2090  0.5570
   36POPC  H12B 4774   0.799   3.510  10.914  0.4484 -2.2049 -0.0074
   36POPC   C13 4775   1.008   3.349  10.973  0.2680 -0.0638  0.2502
   36POPC  H13A 4776   0.981   3.370  11.076  0.4462  0.8009  0.1290
   36POPC  H13B 4777   0.938   3.275  10.937  1.0098 -0.9911  0.6772
   36POPC  H13C 4778   1.107   3.307  10.965  0.9854  1.3747  1.3303
   36POPC   C14 4779   1.089   3.440  10.764 -0.0901 -0.4243 -0.5577
   36POPC  H14A 4780   1.080   3.336  10.735 -1.2839  0.0383 -1.9059
   36POPC  H14B 4781   1.059   3.505  10.684  0.7850  0.2906 -0.3050
   36POPC  H14C 4782   1.194   3.462  10.777 -0.1952 -0.2487  0.0166
   36POPC   C15 4783   1.054   3.585  10.948 -0.3156  0.6827 -0.2238
   36POPC  H15A 4784   1.023   3.578  11.051 -3.1098  2.1701 -0.9138
   36POPC  H15B 4785   1.012   3.669  10.896  1.6866  0.3798 -2.4015
   36POPC  H15C 4786   1.160   3.604  10.942 -0.3872  1.4589  0.8143
   36POPC   C11 4787   0.797   3.384  10.736  0.1209 -0.5081  0.2506
   36POPC  H11A 4788   0.873   3.349  10.663  0.3669  0.8815 -0.1722
   36POPC  H11B 4789   0.717   3.435  10.677 -0.2786 -0.1248  1.1161
   36POPC     P 4790   0.655   3.261  10.918 -0.4693 -0.0423  0.1773
   36POPC   O13 4791   0.703   3.342  11.032 -0.2531 -0.2983  0.2931
   36POPC   O14 4792   0.629   3.119  10.945  0.1980  0.2587  0.4681
   36POPC   O12 4793   0.757   3.270  10.799  0.0795 -0.0198  0.4917
   36POPC   O11 4794   0.534   3.330  10.843  0.5362 -1.0351  0.4421
   36POPC    C1 4795   0.412   3.367  10.909  0.2481  0.5049 -0.0913
   36POPC    HA 4796   0.425   3.430  11.000 -2.0226  1.6905 -0.5709
   36POPC    HB 4797   0.357   3.273  10.928 -0.4775  0.4731 -2.3157
   36POPC    C2 4798   0.319   3.461  10.816  0.2331 -0.1100  0.5738
   36POPC    HS 4799   0.220   3.483  10.862 -0.1628  0.9324 -0.7692
   36POPC   O21 4800   0.310   3.410  10.685 -0.2070 -0.2161 -0.4081
   36POPC   C21 4801   0.246   3.295  10.673  0.5659 -0.0579  0.2755
   36POPC   O22 4802   0.199   3.224  10.766 -0.0643 -0.1803  0.0818
   36POPC   C22 4803   0.218   3.272  10.521  0.0728 -0.1233 -0.8317
   36POPC   H2R 4804   0.113   3.241  10.501  0.0962  0.3546 -1.7310
   36POPC   H2S 4805   0.294   3.192  10.502 -0.9121 -1.3542  0.3228
   36POPC    C3 4806   0.394   3.600  10.805  0.3341  0.2713  0.4562
   36POPC    HX 4807   0.478   3.583  10.735  1.6745 -0.2718  2.1533
   36POPC    HY 4808   0.426   3.624  10.909 -2.6769  0.9535  1.2903
   36POPC   O31 4809   0.305   3.709  10.749 -0.0782  0.4957 -0.0366
   36POPC   C31 4810   0.375   3.811  10.690  0.7399 -0.1648 -0.2606
   36POPC   O32 4811   0.496   3.814  10.679 -0.2089  0.3067  0.0668
   36POPC   C32 4812   0.283   3.908  10.633 -0.0377 -0.0146  0.6273
   36POPC   H2X 4813   0.351   3.990  10.602  0.9646 -1.1024 -0.0695
   36POPC   H2Y 4814   0.215   3.950  10.710  0.1279  0.5240  0.4864
   36POPC   C23 4815   0.231   3.392  10.422 -0.5967  0.0988  0.5143
   36POPC   H3R 4816   0.330   3.442  10.434  0.9035 -2.6861  0.3682
   36POPC   H3S 4817   0.155   3.470  10.443 -1.1315 -0.3080  0.0912
   36POPC   C24 4818   0.229   3.341  10.276 -0.5332 -0.2754 -0.1111
   36POPC   H4R 4819   0.214   3.428  10.209 -0.1489 -1.4202 -1.7180
   36POPC   H4S 4820   0.147   3.267  10.267 -0.3410 -0.6086  0.8876
   36POPC   C25 4821   0.363   3.264  10.225 -0.0144 -0.3652 -0.2933
   36POPC   H5R 4822   0.371   3.162  10.268 -3.2358 -2.2550 -3.8515
   36POPC   H5S 4823   0.447   3.320  10.272 -0.3383  0.6561 -0.9228
   36POPC   C26 4824   0.386   3.280  10.071  0.9766 -0.0829  0.3568
   36POPC   H6R 4825   0.492   3.252  10.052  1.3080  1.0405  0.5236
   36POPC   H6S 4826   0.376   3.389  10.055  0.4472 -0.5954 -3.3702
   36POPC   C27 4827   0.274   3.207   9.981 -0.5306  0.2652 -0.3730
   36POPC   H7R 4828   0.176   3.244  10.018 -0.2660  0.6731 -0.0742
   36POPC   H7S 4829   0.268   3.096   9.988 -0.6298  0.2781 -0.2502
   36POPC   C28 4830   0.287   3.255   9.837  0.2288  0.4349 -0.1191
   36POPC   H8R 4831   0.283   3.366   9.835 -1.3675  0.3665 -3.0192
   36POPC   H8S 4832   0.199   3.222   9.778  0.0571  0.3458  0.1875
   36POPC   C29 4833   0.413   3.205   9.773 -0.7528 -0.8718  0.2733
   36POPC   H91 4834   0.482   3.149   9.837  0.6473 -2.3387 -2.4460
   36POPC  C210 4835   0.437   3.211   9.639  0.2507  0.2767 -0.4445
   36POPC  H101 4836   0.526   3.166   9.591 -0.9510 -0.9327 -1.5774
   36POPC  C211 4837   0.348   3.271   9.536  0.5564 -0.3610  0.7169
   36POPC  H11R 4838   0.400   3.358   9.489  0.8539  0.1417  1.9652
   36POPC  H11S 4839   0.252   3.306   9.578  0.7251 -0.3725  1.1132
   36POPC  C212 4840   0.330   3.175   9.410  0.3584  0.0436 -0.6231
   36POPC  H12R 4841   0.240   3.210   9.355  1.2042 -1.8049 -3.2902
   36POPC  H12S 4842   0.305   3.074   9.447  0.7530 -0.2926 -1.2760
   36POPC  C213 4843   0.448   3.182   9.310 -0.4446 -0.8916  0.0739
   36POPC  H13R 4844   0.542   3.134   9.344  0.2973  1.0978  0.8949
   36POPC  H13S 4845   0.466   3.292   9.307  0.7780 -1.1252 -1.5576
   36POPC  C214 4846   0.399   3.138   9.164  0.0152 -0.0855 -0.0061
   36POPC  H14R 4847   0.484   3.149   9.093 -1.3137 -0.4338 -1.6803
   36POPC  H14S 4848   0.315   3.206   9.138  0.3154  0.4806  0.4837
   36POPC  C215 4849   0.360   2.986   9.165 -0.9285  0.3691  0.0012
   36POPC  H15R 4850   0.275   2.977   9.236 -0.0733  0.8353  1.0991
   36POPC  H15S 4851   0.449   2.940   9.214  0.6107  2.0862 -1.0907
   36POPC  C216 4852   0.331   2.923   9.030  0.1895  0.4732  0.1618
   36POPC  H16R 4853   0.245   2.974   8.981  1.0061  2.6393  0.9160
   36POPC  H16S 4854   0.293   2.822   9.056  0.4049  1.1242  3.2757
   36POPC  C217 4855   0.459   2.906   8.943  0.4997  0.1688 -0.7559
   36POPC  H17R 4856   0.546   2.864   8.999  1.9286  1.9826 -1.5398
   36POPC  H17S 4857   0.503   3.006   8.922 -0.6875  0.6223 -1.1149
   36POPC  C218 4858   0.440   2.850   8.805 -0.8861 -0.6192  0.1529
   36POPC  H18R 4859   0.528   2.869   8.739 -0.5554  1.2268  1.0856
   36POPC  H18S 4860   0.356   2.901   8.753  0.3118  1.6536  0.3824
   36POPC  H18T 4861   0.410   2.743   8.811  1.7924 -1.3238  1.8945
   36POPC   C33 4862   0.204   3.856  10.508 -0.0066  0.0703  0.4763
   36POPC   H3X 4863   0.126   3.928  10.475 -0.0144 -0.5230 -0.8412
   36POPC   H3Y 4864   0.152   3.758  10.520 -1.1066  0.2487 -2.5094
   36POPC   C34 4865   0.306   3.858  10.388 -0.1974  0.1056 -0.1372
   36POPC   H4X 4866   0.320   3.751  10.362  0.3568  0.4415 -1.2516
   36POPC   H4Y 4867   0.404   3.890  10.428 -0.0782  1.4608 -1.4756
   36POPC   C35 4868   0.265   3.925  10.257 -0.2488 -0.4935 -0.1091
   36POPC   H5X 4869   0.181   3.862  10.221 -0.0866 -0.2032 -1.0158
   36POPC   H5Y 4870   0.344   3.916  10.178 -0.6248 -0.5907 -0.4728
   36POPC   C36 4871   0.217   4.072  10.252  0.4738  0.3882 -0.8259
   36POPC   H6X 4872   0.301   4.144  10.246 -1.4216  2.8142  0.5427
   36POPC   H6Y 4873   0.167   4.098  10.348  0.3250 -1.6703 -0.3314
   36POPC   C37 4874   0.117   4.090  10.131  0.2254  0.1697 -1.0795
   36POPC   H7X 4875   0.085   4.196  10.123  2.3368  0.7923 -1.6551
   36POPC   H7Y 4876   0.032   4.021  10.144  2.6504 -2.6140  0.6103
   36POPC   C38 4877   0.175   4.048   9.993  0.1086  0.0246 -0.2587
   36POPC   H8X 4878   0.220   3.947   9.988  1.3003  0.5803 -1.2176
   36POPC   H8Y 4879   0.255   4.116   9.955 -0.9211  2.3739  1.6402
   36POPC   C39 4880   0.065   4.042   9.886 -0.3477 -0.6907 -0.9681
   36POPC   H9X 4881   0.009   4.136   9.906  2.2636  0.8265 -0.5720
   36POPC   H9Y 4882  -0.003   3.958   9.912 -2.5085  1.1758 -0.3979
   36POPC  C310 4883   0.112   4.026   9.745 -0.1786 -0.6597  0.4228
   36POPC  H10X 4884   0.193   3.954   9.725  1.5615  1.7223 -1.4573
   36POPC  H10Y 4885   0.166   4.121   9.724 -0.5963 -0.5475 -0.1559
   36POPC  C311 4886  -0.001   4.010   9.643 -0.3519 -0.1463  0.6090
   36POPC  H11X 4887  -0.081   4.086   9.663 -0.1322 -0.2830  2.0803
   36POPC  H11Y 4888  -0.048   3.911   9.660 -0.4823 -0.2723 -0.4896
   36POPC  C312 4889   0.052   4.024   9.506  0.8132  0.0977  0.6573
   36POPC  H12X 4890   0.152   3.978   9.491  1.1074  1.0519 -0.3903
   36POPC  H12Y 4891   0.080   4.130   9.485  2.1208 -0.3401  0.1248
   36POPC  C313 4892  -0.044   3.962   9.405  0.0087  0.0743 -0.1602
   36POPC  H13X 4893  -0.141   4.016   9.411 -0.3226 -0.3192 -1.6263
   36POPC  H13Y 4894  -0.053   3.856   9.436 -1.3135  0.1740 -0.1780
   36POPC  C314 4895   0.019   3.947   9.257 -0.3567  0.7004  0.3460
   36POPC  H14X 4896  -0.050   3.889   9.192  1.8534 -0.7163 -0.7812
   36POPC  H14Y 4897   0.121   3.904   9.263 -0.2979  0.3769 -2.2692
   36POPC  C315 4898   0.027   4.094   9.204 -0.2574 -0.3735 -0.1760
   36POPC  H15X 4899   0.088   4.163   9.266 -0.6396  0.2268 -0.4730
   36POPC  H15Y 4900  -0.070   4.147   9.200  0.0145  0.3020  1.6828
   36POPC  C316 4901   0.084   4.101   9.059 -0.7726 -0.1815 -0.5287
   36POPC  H16X 4902   0.012   4.061   8.985 -0.4790  0.2545 -1.0478
   36POPC  H16Y 4903   0.177   4.041   9.048 -0.4431  0.7614 -3.1800
   36POPC  H16Z 4904   0.099   4.199   9.008  0.6576  0.4975  1.1149
   37POPC     N 4905   6.791   5.170   6.155  0.5142 -0.2254 -0.0158
   37POPC   C12 4906   6.876   5.188   6.279  0.3106  0.1161  0.4755
   37POPC  H12A 4907   6.826   5.251   6.351 -1.3670 -2.8427  1.9870
   37POPC  H12B 4908   6.969   5.241   6.262  1.1667 -1.9534 -1.5867
   37POPC   C13 4909   6.862   5.075   6.055  0.0708 -0.7860  0.5660
   37POPC  H13A 4910   6.797   5.039   5.977 -0.5430  1.4658  0.0283
   37POPC  H13B 4911   6.947   5.131   6.020 -0.5245  0.9294  1.8042
   37POPC  H13C 4912   6.890   4.981   6.101 -0.3037 -1.2112 -0.0630
   37POPC   C14 4913   6.656   5.121   6.193  0.0366  0.6532  0.6275
   37POPC  H14A 4914   6.663   5.022   6.236 -1.2860 -0.2154 -1.1086
   37POPC  H14B 4915   6.610   5.191   6.260 -0.4222  0.1003  0.8975
   37POPC  H14C 4916   6.586   5.113   6.111 -2.8693  0.1652  3.0630
   37POPC   C15 4917   6.787   5.308   6.093  0.2565 -0.3559 -0.5120
   37POPC  H15A 4918   6.811   5.383   6.167  0.5418 -1.8291  0.9154
   37POPC  H15B 4919   6.685   5.326   6.061  0.8585  1.7940 -1.3475
   37POPC  H15C 4920   6.855   5.336   6.014  1.4012 -0.4642  0.4390
   37POPC   C11 4921   6.911   5.060   6.357 -0.1846  0.3548  0.7669
   37POPC  H11A 4922   6.977   4.996   6.295 -3.7932 -1.9780 -0.8442
   37POPC  H11B 4923   6.825   5.000   6.393 -0.3195  0.6110  0.8748
   37POPC     P 4924   6.947   5.197   6.584  0.3476  0.1339 -0.0884
   37POPC   O13 4925   6.814   5.251   6.554 -0.1866 -0.1603 -0.4915
   37POPC   O14 4926   7.062   5.292   6.603  0.3869  0.4144  0.2696
   37POPC   O12 4927   6.985   5.090   6.478  0.2166  0.4811 -0.1591
   37POPC   O11 4928   6.930   5.104   6.709  0.1462 -0.2989 -0.0085
   37POPC    C1 4929   6.994   5.120   6.834  0.4125 -0.2474 -0.2542
   37POPC    HA 4930   7.097   5.160   6.821  0.6598 -0.7038  0.2694
   37POPC    HB 4931   7.003   5.022   6.886  0.4669 -0.3846 -0.5232
   37POPC    C2 4932   6.922   5.201   6.938 -0.6221 -0.0553 -0.5595
   37POPC    HS 4933   6.926   5.310   6.919 -0.4938  0.1729  0.7621
   37POPC   O21 4934   6.960   5.165   7.064  0.1244 -0.5810 -0.0866
   37POPC   C21 4935   7.075   5.216   7.107 -0.7496  0.6971  0.2460
   37POPC   O22 4936   7.150   5.288   7.037 -0.0017  0.5307 -0.2637
   37POPC   C22 4937   7.119   5.168   7.246  0.0927 -0.9611 -0.0953
   37POPC   H2R 4938   7.230   5.160   7.253  0.0574 -1.5578 -0.1818
   37POPC   H2S 4939   7.079   5.066   7.262 -0.0994 -0.7572  0.7756
   37POPC    C3 4940   6.772   5.166   6.931 -0.2241 -0.0102 -0.0867
   37POPC    HX 4941   6.757   5.057   6.948  0.0648  0.0448  0.5435
   37POPC    HY 4942   6.730   5.182   6.829  0.9484 -0.3445 -0.6233
   37POPC   O31 4943   6.702   5.239   7.038  0.5452 -0.1540  0.2700
   37POPC   C31 4944   6.688   5.369   7.025 -0.2337  0.6444  0.2136
   37POPC   O32 4945   6.702   5.431   6.918  0.3406 -0.4777  0.4172
   37POPC   C32 4946   6.652   5.433   7.158  0.7012 -0.6852  0.0743
   37POPC   H2X 4947   6.543   5.439   7.175  0.8979 -2.8440  2.2620
   37POPC   H2Y 4948   6.695   5.535   7.147  0.7672 -0.4265  2.3920
   37POPC   C23 4949   7.062   5.242   7.377 -0.2210  0.0958 -0.1353
   37POPC   H3R 4950   6.953   5.233   7.399 -0.2620 -0.9519 -0.7153
   37POPC   H3S 4951   7.092   5.349   7.377  2.2736 -0.5793 -1.6613
   37POPC   C24 4952   7.123   5.181   7.503  0.8023 -0.1938  0.1032
   37POPC   H4R 4953   7.234   5.173   7.499  0.9441 -0.2448  3.0040
   37POPC   H4S 4954   7.088   5.076   7.513 -0.2080 -0.1893 -2.9752
   37POPC   C25 4955   7.092   5.271   7.626 -0.0106 -0.0759  0.3236
   37POPC   H5R 4956   6.982   5.284   7.633  0.0054  1.1492 -1.2725
   37POPC   H5S 4957   7.140   5.369   7.606  0.2098 -0.5330 -1.4789
   37POPC   C26 4958   7.142   5.206   7.749 -0.1502  0.5214 -0.3402
   37POPC   H6R 4959   7.252   5.221   7.757  0.4065 -1.6082 -3.3547
   37POPC   H6S 4960   7.125   5.096   7.746  0.7295  0.3644  0.2262
   37POPC   C27 4961   7.078   5.256   7.879 -0.5356  0.6571 -0.5315
   37POPC   H7R 4962   6.969   5.268   7.865 -0.3577  0.5767 -2.1874
   37POPC   H7S 4963   7.104   5.363   7.895  0.2500  0.1207  2.0119
   37POPC   C28 4964   7.111   5.167   8.002  0.8463  0.1383  0.5802
   37POPC   H8R 4965   7.064   5.067   7.998 -1.3443  1.1726 -0.7069
   37POPC   H8S 4966   7.054   5.212   8.086 -1.6253  0.0444 -0.9830
   37POPC   C29 4967   7.256   5.139   8.022 -0.2466  0.5979 -0.6095
   37POPC   H91 4968   7.319   5.068   7.966 -0.4059 -0.3354  0.3722
   37POPC  C210 4969   7.321   5.175   8.135  0.0058  0.2851 -0.5017
   37POPC  H101 4970   7.424   5.138   8.139  0.5111  1.8173  1.0904
   37POPC  C211 4971   7.283   5.259   8.260 -0.3360 -1.1445 -0.3029
   37POPC  H11R 4972   7.254   5.188   8.340  0.9588 -1.0556  0.2633
   37POPC  H11S 4973   7.192   5.319   8.240 -0.0666 -0.9718 -1.0447
   37POPC  C212 4974   7.405   5.349   8.288  0.3330  0.4766 -0.3746
   37POPC  H12R 4975   7.370   5.436   8.348 -0.4626 -0.2257  0.1955
   37POPC  H12S 4976   7.437   5.388   8.190 -0.8604  0.6853 -0.6870
   37POPC  C213 4977   7.509   5.274   8.364  0.1030 -0.4593 -0.9027
   37POPC  H13R 4978   7.572   5.232   8.282  1.2312 -0.9139  0.1930
   37POPC  H13S 4979   7.477   5.198   8.439 -0.4760  1.7846  1.1644
   37POPC  C214 4980   7.597   5.368   8.443  0.3726 -0.1546 -0.3088
   37POPC  H14R 4981   7.546   5.414   8.530 -0.1720  0.8633 -1.1559
   37POPC  H14S 4982   7.625   5.450   8.374  3.7336 -0.1757  0.9125
   37POPC  C215 4983   7.720   5.295   8.485 -0.5300  0.5940  0.3553
   37POPC  H15R 4984   7.776   5.260   8.395 -1.4056  0.4924 -0.1589
   37POPC  H15S 4985   7.688   5.209   8.547  0.7873 -2.1653 -2.6133
   37POPC  C216 4986   7.824   5.384   8.569  1.0619  0.1050  1.5457
   37POPC  H16R 4987   7.919   5.327   8.571 -0.1565 -2.0070  0.8622
   37POPC  H16S 4988   7.777   5.386   8.670  0.7269 -0.1262  1.3970
   37POPC  C217 4989   7.846   5.524   8.510  0.2403 -0.4044  0.0007
   37POPC  H17R 4990   7.743   5.553   8.479 -0.2482 -0.2797  1.7138
   37POPC  H17S 4991   7.916   5.521   8.424 -0.1762  1.3016 -0.4223
   37POPC  C218 4992   7.900   5.620   8.618  0.7403  0.6976  0.4173
   37POPC  H18R 4993   7.892   5.728   8.590 -2.1166  0.2674 -0.6100
   37POPC  H18S 4994   8.004   5.587   8.639  0.5772  0.1987  0.4474
   37POPC  H18T 4995   7.846   5.606   8.714  2.3498 -1.2440  1.0783
   37POPC   C33 4996   6.721   5.379   7.285 -0.1795 -0.8443 -0.7493
   37POPC   H3X 4997   6.831   5.379   7.272 -0.2075  0.7060 -0.9993
   37POPC   H3Y 4998   6.688   5.278   7.319 -0.6446 -0.2503  0.6312
   37POPC   C34 4999   6.682   5.483   7.395 -0.0923  0.3164 -0.3411
   37POPC   H4X 5000   6.572   5.474   7.406 -0.0458  3.0958  3.0826
   37POPC   H4Y 5001   6.712   5.586   7.366 -1.0152  1.0792  1.3538
   37POPC   C35 5002   6.755   5.442   7.521  0.5187 -0.0288  0.0937
   37POPC   H5X 5003   6.865   5.446   7.508  0.3042 -0.4753 -1.9125
   37POPC   H5Y 5004   6.736   5.340   7.560  1.1533  0.3168  1.3300
   37POPC   C36 5005   6.712   5.527   7.640 -0.2133 -0.1645  0.2230
   37POPC   H6X 5006   6.605   5.499   7.654 -0.8032  2.2126  0.7486
   37POPC   H6Y 5007   6.734   5.632   7.612 -1.4484 -0.2257 -1.0302
   37POPC   C37 5008   6.786   5.494   7.774 -0.2846  0.0478  0.1711
   37POPC   H7X 5009   6.890   5.533   7.775  0.9816 -3.1355  1.9390
   37POPC   H7Y 5010   6.789   5.384   7.790  0.5027  0.2715  1.6447
   37POPC   C38 5011   6.722   5.570   7.896 -0.3796  0.2408 -0.7399
   37POPC   H8X 5012   6.622   5.529   7.924  0.7837 -1.5359  0.9203
   37POPC   H8Y 5013   6.709   5.676   7.869 -2.2782  0.0603 -0.5975
   37POPC   C39 5014   6.815   5.569   8.025  0.2071 -0.7801 -0.8551
   37POPC   H9X 5015   6.773   5.647   8.093  2.8931 -0.9268  1.0248
   37POPC   H9Y 5016   6.919   5.595   7.997 -0.7435  4.0430 -0.5210
   37POPC  C310 5017   6.808   5.436   8.097  0.4296  0.1109 -0.6975
   37POPC  H10X 5018   6.864   5.354   8.048  0.1298 -2.6235  3.2430
   37POPC  H10Y 5019   6.702   5.404   8.109  0.0815  1.0129 -1.3103
   37POPC  C311 5020   6.842   5.438   8.251 -0.3481  0.3716 -0.3142
   37POPC  H11X 5021   6.839   5.332   8.284  1.5934  0.6631  0.9216
   37POPC  H11Y 5022   6.758   5.481   8.309 -2.0030 -0.3743 -2.1189
   37POPC  C312 5023   6.973   5.512   8.285  0.1600 -0.1750  0.4970
   37POPC  H12X 5024   6.952   5.621   8.277  1.8764  0.1487  0.2143
   37POPC  H12Y 5025   7.058   5.490   8.217  0.6972  1.8006  0.4892
   37POPC  C313 5026   7.038   5.495   8.426 -1.2878 -0.8986  0.0025
   37POPC  H13X 5027   7.140   5.540   8.435 -1.7595  0.7377 -2.4143
   37POPC  H13Y 5028   7.047   5.386   8.446 -2.3964 -0.9421  0.2944
   37POPC  C314 5029   6.953   5.553   8.546 -0.5633 -0.5977 -0.6236
   37POPC  H14X 5030   6.855   5.503   8.561 -1.6244  1.1570 -1.5684
   37POPC  H14Y 5031   6.918   5.657   8.525 -0.0461 -0.7880 -2.5836
   37POPC  C315 5032   7.028   5.551   8.679  0.3838 -0.2543 -0.2461
   37POPC  H15X 5033   7.127   5.600   8.675  0.2248  0.1155  0.2225
   37POPC  H15Y 5034   7.053   5.444   8.694  0.8132  0.0455  1.2306
   37POPC  C316 5035   6.946   5.596   8.798 -0.0253  0.7954 -0.6759
   37POPC  H16X 5036   7.010   5.573   8.886 -2.2188 -0.5428  0.6035
   37POPC  H16Y 5037   6.854   5.534   8.787  0.1994  0.7157 -2.3176
   37POPC  H16Z 5038   6.924   5.705   8.794 -2.2302  0.5294  2.7665
   38POPC     N 5039   1.715   1.753   6.263 -0.8508  0.3286  0.7591
   38POPC   C12 5040   1.682   1.752   6.411  0.2230 -0.3188  0.0982
   38POPC  H12A 5041   1.769   1.787   6.464 -0.0057  0.5755 -0.1162
   38POPC  H12B 5042   1.676   1.648   6.442 -0.2577 -0.3441 -0.0808
   38POPC   C13 5043   1.733   1.891   6.204 -0.5216  0.0985 -0.0579
   38POPC  H13A 5044   1.756   1.883   6.099  0.5264  2.9103 -0.0849
   38POPC  H13B 5045   1.644   1.950   6.217 -1.0700 -0.6083 -0.6399
   38POPC  H13C 5046   1.813   1.944   6.254  0.2068  0.1897 -1.3001
   38POPC   C14 5047   1.846   1.680   6.250 -0.3692 -0.1722  0.3138
   38POPC  H14A 5048   1.920   1.744   6.297 -0.3043 -0.1237  0.1445
   38POPC  H14B 5049   1.840   1.581   6.293 -2.0910 -1.5755 -2.9836
   38POPC  H14C 5050   1.884   1.663   6.150  1.7574  2.0966  0.6956
   38POPC   C15 5051   1.612   1.690   6.178 -0.1449 -0.4322 -0.6039
   38POPC  H15A 5052   1.640   1.678   6.075  0.5376 -1.7951 -0.2683
   38POPC  H15B 5053   1.518   1.743   6.179 -0.7008 -1.3883  1.5772
   38POPC  H15C 5054   1.603   1.586   6.207 -0.9873 -0.6578 -1.6833
   38POPC   C11 5055   1.557   1.836   6.471  0.3356  0.2924  0.4524
   38POPC  H11A 5056   1.581   1.944   6.460 -2.5877  0.8330 -1.0052
   38POPC  H11B 5057   1.553   1.817   6.581 -1.3893 -0.9368  0.1857
   38POPC     P 5058   1.316   1.889   6.388  0.1512  0.1139 -0.2079
   38POPC   O13 5059   1.202   1.817   6.343  0.2372  0.2481 -0.0838
   38POPC   O14 5060   1.365   2.006   6.311 -0.3339 -0.0957  0.5413
   38POPC   O12 5061   1.434   1.793   6.413 -0.3058 -0.0162  0.1914
   38POPC   O11 5062   1.292   1.930   6.542  0.2127  0.2605 -0.6054
   38POPC    C1 5063   1.236   1.840   6.635  0.1713 -0.4014 -0.1649
   38POPC    HA 5064   1.285   1.839   6.735 -1.3716  1.0666  0.6394
   38POPC    HB 5065   1.241   1.735   6.600 -1.2610  0.7378 -3.9195
   38POPC    C2 5066   1.093   1.884   6.681 -0.1120  0.1947  0.1941
   38POPC    HS 5067   1.032   1.912   6.593 -1.2878  1.8366  1.5040
   38POPC   O21 5068   1.111   1.997   6.766 -0.7579 -0.4803  0.1987
   38POPC   C21 5069   1.007   2.070   6.795 -0.1140  0.4327  0.5642
   38POPC   O22 5070   0.895   2.053   6.747 -0.4410 -0.8474 -0.1877
   38POPC   C22 5071   1.051   2.183   6.886 -0.7872  0.2601  0.8538
   38POPC   H2R 5072   1.005   2.275   6.846 -0.0393  0.2012 -0.1783
   38POPC   H2S 5073   1.161   2.194   6.900 -0.5241 -2.5514  1.2955
   38POPC    C3 5074   1.028   1.768   6.767  0.0826 -0.4300  0.1140
   38POPC    HX 5075   1.023   1.679   6.700  0.9132 -0.4929  0.1289
   38POPC    HY 5076   0.922   1.800   6.779 -0.6773 -3.0522  0.9446
   38POPC   O31 5077   1.094   1.732   6.890  0.8603  0.3809 -0.1564
   38POPC   C31 5078   1.049   1.782   7.001  0.6754 -0.2326 -0.5165
   38POPC   O32 5079   0.960   1.863   7.004  0.1354 -0.6268  0.0769
   38POPC   C32 5080   1.114   1.720   7.116 -0.0571 -0.2275 -0.4127
   38POPC   H2X 5081   1.222   1.740   7.104  0.2246 -0.4984  1.4381
   38POPC   H2Y 5082   1.107   1.610   7.103 -2.3072 -0.0881 -0.6121
   38POPC   C23 5083   0.984   2.181   7.022  0.2722  0.6705  0.0447
   38POPC   H3R 5084   1.027   2.096   7.080  0.7754  0.2136 -0.9812
   38POPC   H3S 5085   0.877   2.151   7.017  0.7612 -1.3943  1.2435
   38POPC   C24 5086   0.998   2.306   7.106 -0.9647 -1.3898  0.6451
   38POPC   H4R 5087   0.937   2.386   7.057  0.2002 -1.3374 -0.7429
   38POPC   H4S 5088   1.097   2.355   7.101 -1.5033 -0.4138 -1.1696
   38POPC   C25 5089   0.951   2.292   7.253  0.1678 -0.2095 -0.1061
   38POPC   H5R 5090   0.849   2.250   7.243  0.2615 -0.3008 -0.6949
   38POPC   H5S 5091   0.947   2.386   7.312  1.0726 -1.0199  1.2811
   38POPC   C26 5092   1.043   2.203   7.343 -0.8710 -0.1502 -0.9292
   38POPC   H6R 5093   1.136   2.260   7.362 -1.5148  0.2238  1.2858
   38POPC   H6S 5094   1.064   2.104   7.298  0.6062 -0.0841 -0.3960
   38POPC   C27 5095   0.983   2.181   7.474 -0.3426  0.2227 -0.3312
   38POPC   H7R 5096   0.899   2.110   7.487  1.4294 -1.6187  1.4009
   38POPC   H7S 5097   0.943   2.280   7.504  2.0041  1.1780 -0.2778
   38POPC   C28 5098   1.085   2.152   7.584  0.1052  0.5188 -0.7315
   38POPC   H8R 5099   1.152   2.068   7.555 -2.1518 -1.0021 -1.6900
   38POPC   H8S 5100   1.015   2.112   7.660  1.5513 -1.3439 -0.3347
   38POPC   C29 5101   1.171   2.259   7.650  0.2869  0.2046  0.7691
   38POPC   H91 5102   1.266   2.276   7.597 -0.2991 -1.4672 -0.8671
   38POPC  C210 5103   1.136   2.341   7.752  0.2836 -0.0350 -0.3255
   38POPC  H101 5104   1.216   2.400   7.801  1.1969 -2.2658  0.9370
   38POPC  C211 5105   1.012   2.331   7.831 -0.2597  0.0979 -0.1653
   38POPC  H11R 5106   0.956   2.235   7.827  3.1987 -2.1134  1.3932
   38POPC  H11S 5107   0.945   2.417   7.811 -0.0160  0.2929 -0.1527
   38POPC  C212 5108   1.045   2.347   7.980  0.2403 -0.4502 -0.0278
   38POPC  H12R 5109   0.967   2.403   8.036  0.2668 -1.4857  1.0771
   38POPC  H12S 5110   1.128   2.418   8.003  0.6893 -1.0755  0.3003
   38POPC  C213 5111   1.086   2.217   8.041  0.2945  0.3415  0.9134
   38POPC  H13R 5112   1.175   2.178   7.987 -1.6634 -1.3050 -1.2690
   38POPC  H13S 5113   1.010   2.139   8.017  1.2761 -0.1544 -0.6949
   38POPC  C214 5114   1.108   2.227   8.189  1.0858 -0.2588 -0.5473
   38POPC  H14R 5115   1.108   2.122   8.224 -1.9992 -1.1289 -2.9555
   38POPC  H14S 5116   1.026   2.274   8.247  0.6600 -1.7037  0.0154
   38POPC  C215 5117   1.247   2.292   8.219 -0.0746  0.4517 -0.0568
   38POPC  H15R 5118   1.234   2.397   8.186  0.1823  0.8868  1.1870
   38POPC  H15S 5119   1.324   2.234   8.164 -0.2711 -0.0807  0.2287
   38POPC  C216 5120   1.280   2.298   8.369 -0.1063 -0.4112 -0.2363
   38POPC  H16R 5121   1.289   2.195   8.408  1.8237 -0.1872 -0.0802
   38POPC  H16S 5122   1.194   2.340   8.427 -0.5924  0.7132 -1.7410
   38POPC  C217 5123   1.399   2.373   8.426  0.1963 -0.2370  0.0577
   38POPC  H17R 5124   1.398   2.357   8.535 -0.3183  1.7219  0.3591
   38POPC  H17S 5125   1.376   2.480   8.409 -0.2675 -0.3227  0.1678
   38POPC  C218 5126   1.526   2.325   8.366 -0.3142  0.8528 -0.3181
   38POPC  H18R 5127   1.610   2.395   8.385  0.5915 -0.5026  0.6768
   38POPC  H18S 5128   1.520   2.318   8.255 -0.8140 -2.0613 -0.1410
   38POPC  H18T 5129   1.551   2.219   8.387 -3.5264  0.2822  0.9058
   38POPC   C33 5130   1.067   1.783   7.246 -0.2513  0.2503 -0.2079
   38POPC   H3X 5131   0.957   1.771   7.255  0.0606 -1.9763  1.1440
   38POPC   H3Y 5132   1.086   1.892   7.250 -0.3522  0.2642 -0.1083
   38POPC   C34 5133   1.132   1.719   7.365  0.0213 -0.5702  0.3622
   38POPC   H4X 5134   1.238   1.739   7.343 -0.5790  2.5801  0.2083
   38POPC   H4Y 5135   1.119   1.608   7.369 -1.1293 -0.4988 -0.9754
   38POPC   C35 5136   1.095   1.766   7.506  0.0227  0.1661 -0.2157
   38POPC   H5X 5137   0.985   1.784   7.511 -0.1706 -1.4592  1.9656
   38POPC   H5Y 5138   1.144   1.866   7.513 -0.6301  0.5391 -0.9259
   38POPC   C36 5139   1.153   1.662   7.606 -0.5894  0.2028 -0.1158
   38POPC   H6X 5140   1.248   1.628   7.562 -1.6959 -0.2484 -2.2238
   38POPC   H6Y 5141   1.091   1.570   7.615  0.5649 -0.7726 -1.9308
   38POPC   C37 5142   1.187   1.719   7.742  0.6446  0.4409 -0.6810
   38POPC   H7X 5143   1.256   1.803   7.719  2.2675 -1.3422 -2.4209
   38POPC   H7Y 5144   1.240   1.638   7.797  0.8567  0.6102 -0.6357
   38POPC   C38 5145   1.063   1.779   7.816 -0.6233 -0.3161  0.4636
   38POPC   H8X 5146   0.988   1.698   7.829 -0.3327 -0.6613 -0.0255
   38POPC   H8Y 5147   1.008   1.863   7.770 -1.2152 -0.7288  0.4150
   38POPC   C39 5148   1.091   1.815   7.964  0.0886 -0.3279  0.8129
   38POPC   H9X 5149   0.996   1.867   7.991  0.2000  2.1354 -3.1249
   38POPC   H9Y 5150   1.169   1.893   7.968 -0.5750  0.7135 -3.4217
   38POPC  C310 5151   1.131   1.697   8.053  0.3146  0.0959  0.1435
   38POPC  H10X 5152   1.227   1.657   8.013  0.5134 -0.4960  1.1912
   38POPC  H10Y 5153   1.055   1.618   8.070 -0.1651  0.6746  0.6555
   38POPC  C311 5154   1.150   1.752   8.203 -0.7866 -0.0320  1.2128
   38POPC  H11X 5155   1.050   1.782   8.240 -0.6207  2.3450 -0.1831
   38POPC  H11Y 5156   1.217   1.841   8.197  1.1143 -1.5999 -2.2670
   38POPC  C312 5157   1.206   1.641   8.289  0.2238  0.6833  0.5234
   38POPC  H12X 5158   1.300   1.605   8.242 -0.3367  0.3696 -0.3607
   38POPC  H12Y 5159   1.132   1.560   8.279 -0.3614  1.4164 -1.2112
   38POPC  C313 5160   1.221   1.669   8.439  0.4405 -0.3022  1.1314
   38POPC  H13X 5161   1.250   1.568   8.477  2.9728 -0.1731 -0.3619
   38POPC  H13Y 5162   1.121   1.699   8.477 -0.6080 -0.3205 -1.4986
   38POPC  C314 5163   1.336   1.770   8.460  0.3427  0.5367 -0.6225
   38POPC  H14X 5164   1.315   1.869   8.413  1.1796  1.1097  0.1874
   38POPC  H14Y 5165   1.426   1.731   8.408 -2.3516 -4.0007 -2.0914
   38POPC  C315 5166   1.369   1.787   8.609 -0.1581 -0.0213 -0.0708
   38POPC  H15X 5167   1.475   1.820   8.617 -0.0729 -0.1827 -0.5137
   38POPC  H15Y 5168   1.351   1.690   8.660 -1.7434  0.4534  0.2972
   38POPC  C316 5169   1.275   1.886   8.667 -0.1766 -0.1482  0.0863
   38POPC  H16X 5170   1.181   1.891   8.608 -0.6793  1.7395  0.9977
   38POPC  H16Y 5171   1.325   1.986   8.670  1.0513 -0.7307 -0.8220
   38POPC  H16Z 5172   1.241   1.855   8.768  0.3942  1.3972  0.7742
   39POPC     N 5173   5.343   6.508   5.947 -0.2429 -0.1162  0.2587
   39POPC   C12 5174   5.310   6.527   6.093 -0.5935  0.2192 -0.2319
   39POPC  H12A 5175   5.236   6.459   6.132 -0.4819 -0.1099 -0.5908
   39POPC  H12B 5176   5.281   6.630   6.106  0.6248  0.3850  1.2754
   39POPC   C13 5177   5.218   6.491   5.873 -0.9218 -0.2135 -0.2320
   39POPC  H13A 5178   5.230   6.482   5.766  0.3549 -0.4882 -0.0759
   39POPC  H13B 5179   5.175   6.395   5.899  2.2458 -1.9629 -1.2084
   39POPC  H13C 5180   5.144   6.569   5.885 -1.0389 -0.3819  0.1441
   39POPC   C14 5181   5.412   6.630   5.881  0.0709  0.7639 -0.1111
   39POPC  H14A 5182   5.434   6.619   5.776 -2.5720  1.8903 -0.8222
   39POPC  H14B 5183   5.347   6.716   5.896  0.2865  0.7986  0.6697
   39POPC  H14C 5184   5.499   6.641   5.944 -0.2225 -0.6162  0.5440
   39POPC   C15 5185   5.436   6.388   5.918 -0.1325  0.2414  0.7342
   39POPC  H15A 5186   5.381   6.297   5.933 -1.2898  0.8769  0.4432
   39POPC  H15B 5187   5.519   6.383   5.987  2.9446  0.5327 -2.7461
   39POPC  H15C 5188   5.477   6.391   5.818 -1.4310 -1.0954  0.1448
   39POPC   C11 5189   5.438   6.515   6.183  0.3590 -1.0794  0.7101
   39POPC  H11A 5190   5.433   6.570   6.279  0.4790  2.5914 -1.3063
   39POPC  H11B 5191   5.521   6.562   6.126 -0.4033 -0.7613 -0.1538
   39POPC     P 5192   5.390   6.278   6.292  0.1670 -0.3233  0.0485
   39POPC   O13 5193   5.466   6.152   6.277 -0.4235 -0.0505  0.3210
   39POPC   O14 5194   5.248   6.275   6.253  0.1999  0.0443  0.4502
   39POPC   O12 5195   5.471   6.381   6.200 -0.1902  0.0888 -0.5907
   39POPC   O11 5196   5.403   6.336   6.440  0.6709  0.2122  0.7350
   39POPC    C1 5197   5.524   6.334   6.512 -0.4492  0.0735  0.3907
   39POPC    HA 5198   5.560   6.439   6.516 -1.8123  0.5427  0.7187
   39POPC    HB 5199   5.600   6.268   6.465 -1.9282 -4.1907  3.6226
   39POPC    C2 5200   5.503   6.284   6.653  0.5305  1.1071 -0.1116
   39POPC    HS 5201   5.453   6.187   6.633 -0.8148  2.1501 -1.9249
   39POPC   O21 5202   5.420   6.378   6.717  0.8423  0.2070 -0.1444
   39POPC   C21 5203   5.327   6.332   6.801 -0.4289 -0.3778 -0.2215
   39POPC   O22 5204   5.302   6.217   6.828 -0.2526  0.6697  0.0896
   39POPC   C22 5205   5.256   6.456   6.864 -0.7552  0.2881 -0.2957
   39POPC   H2R 5206   5.228   6.524   6.780  0.0753  2.6665  1.3134
   39POPC   H2S 5207   5.332   6.510   6.923  0.5756 -2.0605  0.1891
   39POPC    C3 5208   5.638   6.271   6.739  0.5620 -0.2040 -0.1760
   39POPC    HX 5209   5.682   6.372   6.744  0.1269 -0.1125  2.9221
   39POPC    HY 5210   5.713   6.210   6.684  2.0795 -1.0594  2.7383
   39POPC   O31 5211   5.617   6.222   6.873  0.2120  0.5860  0.3483
   39POPC   C31 5212   5.606   6.101   6.896 -1.1417 -0.1328 -0.6289
   39POPC   O32 5213   5.636   6.013   6.812 -0.3286 -0.2940  0.0833
   39POPC   C32 5214   5.557   6.077   7.045 -0.6941  0.0310  0.1938
   39POPC   H2X 5215   5.640   6.092   7.117 -0.9872 -0.2964  0.6023
   39POPC   H2Y 5216   5.484   6.160   7.059  0.1633  1.3123 -2.4444
   39POPC   C23 5217   5.125   6.432   6.945  0.2669  0.0427  0.2985
   39POPC   H3R 5218   5.132   6.353   7.024 -0.2026 -0.0576  0.2441
   39POPC   H3S 5219   5.043   6.401   6.877 -1.3359  0.6182  1.9323
   39POPC   C24 5220   5.063   6.563   7.003  0.1859 -0.7167 -0.2174
   39POPC   H4R 5221   5.031   6.612   6.909 -0.4627  0.3467  0.5400
   39POPC   H4S 5222   5.141   6.617   7.060 -0.0319 -0.2908 -0.3181
   39POPC   C25 5223   4.937   6.539   7.093 -0.3871 -0.5286 -0.9716
   39POPC   H5R 5224   4.948   6.460   7.170  2.2461  2.5451  2.0184
   39POPC   H5S 5225   4.840   6.532   7.040 -2.0732  2.7911  1.4845
   39POPC   C26 5226   4.914   6.661   7.189  0.1109  0.8740 -0.2326
   39POPC   H6R 5227   4.942   6.753   7.132  1.3903 -0.0488 -1.1329
   39POPC   H6S 5228   4.995   6.667   7.265  1.0906 -1.9490 -1.0076
   39POPC   C27 5229   4.772   6.688   7.241 -0.5244  0.4682  0.6307
   39POPC   H7R 5230   4.765   6.605   7.314 -0.5240  2.4589  2.9789
   39POPC   H7S 5231   4.701   6.674   7.157  2.2397 -1.9130 -1.4260
   39POPC   C28 5232   4.757   6.825   7.317  0.5577 -0.6284 -0.8519
   39POPC   H8R 5233   4.647   6.835   7.330  0.7417  2.7719 -1.5371
   39POPC   H8S 5234   4.773   6.904   7.241  0.1396  0.1138 -0.1709
   39POPC   C29 5235   4.845   6.839   7.439 -0.0699  0.1016 -0.0012
   39POPC   H91 5236   4.943   6.885   7.424 -0.6190  1.1292 -0.4558
   39POPC  C210 5237   4.810   6.829   7.568  0.1284  0.3200  0.1656
   39POPC  H101 5238   4.890   6.850   7.641  0.9450 -0.4707 -0.5022
   39POPC  C211 5239   4.673   6.782   7.618 -1.1213 -0.3505  0.1773
   39POPC  H11R 5240   4.682   6.686   7.672  1.5462 -1.6095 -2.3901
   39POPC  H11S 5241   4.609   6.759   7.530 -2.1950  1.1987  0.5324
   39POPC  C212 5242   4.608   6.887   7.699  0.3683  0.5174 -0.1997
   39POPC  H12R 5243   4.514   6.843   7.740  0.2828  0.9419  0.0609
   39POPC  H12S 5244   4.594   6.977   7.636  2.6148  0.9721 -0.0914
   39POPC  C213 5245   4.680   6.923   7.834 -0.1921 -0.2447  0.0016
   39POPC  H13R 5246   4.608   6.995   7.879 -1.4147 -0.9574 -0.7681
   39POPC  H13S 5247   4.780   6.963   7.809  0.6668 -1.7559  0.9309
   39POPC  C214 5248   4.700   6.808   7.931  0.4140 -0.4867  0.0686
   39POPC  H14R 5249   4.771   6.732   7.893  0.2367 -1.9305  2.4967
   39POPC  H14S 5250   4.607   6.758   7.966  1.6368 -1.1831  2.4585
   39POPC  C215 5251   4.758   6.860   8.069  0.0746 -0.2535  0.5237
   39POPC  H15R 5252   4.676   6.929   8.097 -0.3872  0.2509 -1.9420
   39POPC  H15S 5253   4.858   6.907   8.060 -0.1102  0.3037  1.3481
   39POPC  C216 5254   4.757   6.751   8.182  0.6598  0.2147  0.6837
   39POPC  H16R 5255   4.827   6.672   8.146 -0.1531 -0.0014 -0.4829
   39POPC  H16S 5256   4.663   6.692   8.173  2.5069 -2.5908 -1.3242
   39POPC  C217 5257   4.787   6.809   8.319  0.4453  0.6040  0.3063
   39POPC  H17R 5258   4.709   6.887   8.336 -0.8221 -0.0722 -2.1798
   39POPC  H17S 5259   4.888   6.855   8.320  0.8636 -0.2965 -0.1433
   39POPC  C218 5260   4.765   6.702   8.425 -0.1296  0.1007 -0.0820
   39POPC  H18R 5261   4.660   6.666   8.422 -1.0330  2.6902 -1.2359
   39POPC  H18S 5262   4.785   6.742   8.527  1.0418 -0.0538 -0.2471
   39POPC  H18T 5263   4.830   6.615   8.407  0.0182 -0.0469  1.1384
   39POPC   C33 5264   5.492   5.937   7.067 -0.2476 -0.0259  0.2417
   39POPC   H3X 5265   5.560   5.861   7.024 -0.2591  1.1502 -1.9268
   39POPC   H3Y 5266   5.399   5.930   7.007  0.3260  1.1427 -0.8003
   39POPC   C34 5267   5.458   5.921   7.213  0.0125  0.5719 -0.4100
   39POPC   H4X 5268   5.399   6.005   7.257 -1.5440 -0.2120 -0.9642
   39POPC   H4Y 5269   5.552   5.926   7.272  0.4775 -0.6749 -1.0530
   39POPC   C35 5270   5.395   5.786   7.244  0.4675  0.4234 -0.1297
   39POPC   H5X 5271   5.460   5.710   7.196  1.2274  2.9317 -3.3143
   39POPC   H5Y 5272   5.296   5.781   7.193 -0.3374 -1.2000  1.5557
   39POPC   C36 5273   5.360   5.761   7.389 -0.1921 -0.7733  0.2821
   39POPC   H6X 5274   5.327   5.859   7.429 -0.2558 -1.0146  0.8152
   39POPC   H6Y 5275   5.460   5.743   7.434 -0.3136  0.7519  1.1896
   39POPC   C37 5276   5.272   5.632   7.409 -0.0583 -1.2063 -0.0680
   39POPC   H7X 5277   5.326   5.544   7.365  2.8417 -0.3971  1.7332
   39POPC   H7Y 5278   5.177   5.651   7.355  0.9930 -1.0492 -1.9058
   39POPC   C38 5279   5.224   5.593   7.554 -0.4975 -0.0088 -0.4365
   39POPC   H8X 5280   5.148   5.513   7.540  0.9636 -1.5707  0.3134
   39POPC   H8Y 5281   5.167   5.674   7.604 -0.5322  0.6784 -1.5780
   39POPC   C39 5282   5.340   5.554   7.647  0.4772  0.3529 -0.8579
   39POPC   H9X 5283   5.427   5.624   7.647  1.2127 -0.5370  0.7571
   39POPC   H9Y 5284   5.384   5.459   7.611 -0.6572 -0.5010  0.0001
   39POPC  C310 5285   5.294   5.543   7.798 -0.5455 -0.0606  0.0753
   39POPC  H10X 5286   5.185   5.524   7.807 -0.2053 -2.3963 -0.4475
   39POPC  H10Y 5287   5.313   5.636   7.855  0.6316 -0.4831  0.3869
   39POPC  C311 5288   5.362   5.428   7.886 -0.6853 -0.4170  1.0252
   39POPC  H11X 5289   5.343   5.330   7.836  0.6642 -0.9476  1.5183
   39POPC  H11Y 5290   5.318   5.410   7.987 -0.1671 -0.9898  1.1525
   39POPC  C312 5291   5.509   5.451   7.912 -0.1901  0.8295  0.8923
   39POPC  H12X 5292   5.527   5.556   7.942  1.6897  0.5522  0.7447
   39POPC  H12Y 5293   5.558   5.428   7.816 -1.0286  0.5385  0.5272
   39POPC  C313 5294   5.564   5.356   8.021  0.2874 -0.3440 -0.1367
   39POPC  H13X 5295   5.675   5.349   8.018  0.3405  0.4336 -0.0578
   39POPC  H13Y 5296   5.527   5.251   8.012  2.5895 -1.1307 -0.7079
   39POPC  C314 5297   5.531   5.407   8.162  0.3745  0.6551 -0.5616
   39POPC  H14X 5298   5.429   5.371   8.187  0.3262  1.7331  0.8542
   39POPC  H14Y 5299   5.522   5.518   8.161 -2.9953  0.4389  0.6728
   39POPC  C315 5300   5.628   5.349   8.272  0.5099  0.5080 -0.6839
   39POPC  H15X 5301   5.725   5.402   8.260  0.9127  0.0553  0.4684
   39POPC  H15Y 5302   5.640   5.239   8.260  0.1049  0.2309  1.2645
   39POPC  C316 5303   5.576   5.376   8.414  0.0573 -0.1317  0.4049
   39POPC  H16X 5304   5.540   5.481   8.416  0.9433  0.1515  1.5672
   39POPC  H16Y 5305   5.659   5.361   8.486  1.2409 -1.1405 -1.1365
   39POPC  H16Z 5306   5.495   5.305   8.441  1.3731 -1.4074  1.0589
   40POPC     N 5307   3.609   3.872   5.944  0.8263  0.1295  0.1976
   40POPC   C12 5308   3.729   3.948   6.004  0.2793  0.0001  0.1206
   40POPC  H12A 5309   3.689   4.037   6.051 -0.0527  1.1702 -2.2997
   40POPC  H12B 5310   3.793   3.990   5.928 -2.4988 -0.2908 -2.4752
   40POPC   C13 5311   3.647   3.746   5.877 -0.5478  0.3204 -0.2580
   40POPC  H13A 5312   3.708   3.754   5.788  0.1953  1.9122  0.3645
   40POPC  H13B 5313   3.697   3.681   5.946 -1.2167 -0.4919 -0.5384
   40POPC  H13C 5314   3.561   3.689   5.846 -0.7383  0.6265 -0.2958
   40POPC   C14 5315   3.505   3.849   6.046 -0.6352 -0.2157  0.1230
   40POPC  H14A 5316   3.540   3.790   6.129  1.0969 -0.4158 -0.7210
   40POPC  H14B 5317   3.478   3.943   6.090 -2.5754 -1.1414  0.9846
   40POPC  H14C 5318   3.415   3.803   6.006 -0.2738 -0.5228 -0.3389
   40POPC   C15 5319   3.546   3.967   5.837  0.4504  0.7474 -0.3832
   40POPC  H15A 5320   3.457   3.920   5.797  0.1228  2.4462 -1.6887
   40POPC  H15B 5321   3.619   3.985   5.759  0.3838 -1.8583 -1.1228
   40POPC  H15C 5322   3.518   4.061   5.882 -1.0206  0.5775 -0.9388
   40POPC   C11 5323   3.821   3.879   6.105 -0.4908 -0.0587 -0.0426
   40POPC  H11A 5324   3.913   3.938   6.125 -0.9253  0.3199  0.8631
   40POPC  H11B 5325   3.842   3.780   6.060  0.8501  0.5418 -0.7441
   40POPC     P 5326   3.740   3.969   6.332 -0.3573 -0.3889  0.3211
   40POPC   O13 5327   3.687   3.914   6.459 -0.0851 -0.1417  0.2471
   40POPC   O14 5328   3.662   4.078   6.267 -0.1161 -0.1264  0.3598
   40POPC   O12 5329   3.752   3.852   6.224  0.1555  0.4229  0.2273
   40POPC   O11 5330   3.890   4.010   6.350 -0.2949  0.1291  0.3786
   40POPC    C1 5331   3.941   4.129   6.410  0.3713 -0.5780 -0.6449
   40POPC    HA 5332   3.863   4.207   6.411  0.6259 -0.3071  1.5318
   40POPC    HB 5333   4.009   4.174   6.336 -1.7871 -0.0137 -2.3402
   40POPC    C2 5334   4.000   4.113   6.554 -0.0863 -0.5365  0.6444
   40POPC    HS 5335   4.083   4.039   6.547 -1.3049 -1.6062 -4.3083
   40POPC   O21 5336   3.892   4.072   6.649 -0.0208 -0.0395 -0.0405
   40POPC   C21 5337   3.884   3.945   6.674 -0.2380 -0.4481  0.0880
   40POPC   O22 5338   3.960   3.864   6.617  0.2220  0.0336  0.2528
   40POPC   C22 5339   3.785   3.912   6.782 -0.3349  0.7087  0.4262
   40POPC   H2R 5340   3.705   3.858   6.727  0.6391  1.1470 -1.4623
   40POPC   H2S 5341   3.749   4.011   6.819  2.3453  1.5378  0.9208
   40POPC    C3 5342   4.070   4.242   6.606 -0.0962  0.4341  0.0856
   40POPC    HX 5343   3.988   4.318   6.613 -1.7264 -1.1153 -1.4120
   40POPC    HY 5344   4.148   4.281   6.537  0.9661 -1.4788  0.1766
   40POPC   O31 5345   4.134   4.215   6.732 -0.6338 -0.6760 -0.0318
   40POPC   C31 5346   4.193   4.322   6.779 -0.1682  0.2680 -1.2504
   40POPC   O32 5347   4.184   4.435   6.738  0.4820 -0.5236  0.0682
   40POPC   C32 5348   4.300   4.270   6.873 -0.2314 -0.2067 -0.0755
   40POPC   H2X 5349   4.389   4.233   6.817 -0.2527  1.3628 -1.1839
   40POPC   H2Y 5350   4.257   4.179   6.920  0.9340 -1.4187 -1.3076
   40POPC   C23 5351   3.853   3.828   6.895 -0.1806 -0.2832  0.1897
   40POPC   H3R 5352   3.946   3.882   6.926 -0.4050  3.3419 -4.8582
   40POPC   H3S 5353   3.895   3.738   6.845 -0.0256  0.3037 -0.7536
   40POPC   C24 5354   3.765   3.791   7.011 -0.0758  0.6564 -0.1056
   40POPC   H4R 5355   3.701   3.707   6.976 -1.2505  1.7291 -0.5722
   40POPC   H4S 5356   3.705   3.879   7.042 -1.1067 -0.5499  1.4094
   40POPC   C25 5357   3.839   3.743   7.135  0.8251  0.0459 -0.3114
   40POPC   H5R 5358   3.775   3.735   7.225  1.8851  2.2382  0.6676
   40POPC   H5S 5359   3.911   3.822   7.165 -0.5344  0.7526  1.1329
   40POPC   C26 5360   3.916   3.613   7.119 -0.6990  0.8333  1.0550
   40POPC   H6R 5361   4.011   3.626   7.063 -2.2164  0.7270 -1.5949
   40POPC   H6S 5362   3.859   3.546   7.051  1.0101 -0.1573  0.5621
   40POPC   C27 5363   3.941   3.523   7.246  0.2985 -0.9468 -0.8164
   40POPC   H7R 5364   3.843   3.512   7.298 -0.0054  2.1951 -0.6205
   40POPC   H7S 5365   4.019   3.576   7.304 -2.4768  1.7688  0.5819
   40POPC   C28 5366   3.992   3.376   7.221 -0.2390 -0.0489 -0.1321
   40POPC   H8R 5367   4.075   3.368   7.148 -1.0471 -0.3880 -1.0309
   40POPC   H8S 5368   3.908   3.323   7.169  1.1073 -3.0021  0.6143
   40POPC   C29 5369   4.022   3.297   7.346 -0.1849 -0.1442  0.1932
   40POPC   H91 5370   3.937   3.269   7.410  0.0093 -0.1440  0.4516
   40POPC  C210 5371   4.143   3.277   7.391 -0.2418  0.1271 -0.5348
   40POPC  H101 5372   4.165   3.220   7.483  0.2980 -0.6090 -1.1149
   40POPC  C211 5373   4.268   3.326   7.339  0.0401 -0.2581  0.0223
   40POPC  H11R 5374   4.272   3.324   7.228 -1.8590  1.9158 -0.1385
   40POPC  H11S 5375   4.356   3.262   7.360 -0.4225 -0.5259  1.1859
   40POPC  C212 5376   4.302   3.474   7.388 -0.5743  0.2523  0.7721
   40POPC  H12R 5377   4.319   3.459   7.497 -0.0298  1.8994  0.9212
   40POPC  H12S 5378   4.212   3.538   7.377 -1.2620 -1.1844 -2.4081
   40POPC  C213 5379   4.438   3.529   7.343  0.8328  0.0831  0.1522
   40POPC  H13R 5380   4.521   3.481   7.399 -0.3634 -1.4449  0.6523
   40POPC  H13S 5381   4.446   3.637   7.368 -0.3301  0.0312  0.7735
   40POPC  C214 5382   4.469   3.511   7.186  0.0352 -0.5971  0.5830
   40POPC  H14R 5383   4.389   3.559   7.126  1.3104  0.6784 -0.1501
   40POPC  H14S 5384   4.462   3.405   7.153 -0.5301  0.1315 -1.7885
   40POPC  C215 5385   4.602   3.578   7.153  0.1875  0.1376  0.0458
   40POPC  H15R 5386   4.621   3.669   7.214 -1.3916 -0.0940  0.9048
   40POPC  H15S 5387   4.610   3.614   7.048 -1.0453 -1.6209 -0.6923
   40POPC  C216 5388   4.716   3.490   7.192 -0.5578 -0.9209 -0.7163
   40POPC  H16R 5389   4.699   3.388   7.153 -0.6205 -0.4715 -1.8810
   40POPC  H16S 5390   4.725   3.488   7.303 -0.7123  0.8806 -0.6560
   40POPC  C217 5391   4.840   3.546   7.121  0.3924 -0.3165  0.4741
   40POPC  H17R 5392   4.857   3.642   7.174  0.5510  1.4139 -2.5752
   40POPC  H17S 5393   4.813   3.582   7.019 -1.5293 -0.3981  0.9463
   40POPC  C218 5394   4.969   3.451   7.125  0.3434 -0.1959 -0.2546
   40POPC  H18R 5395   4.935   3.359   7.073  0.1014 -0.6882  0.7712
   40POPC  H18S 5396   5.013   3.443   7.227  0.6564  0.4662 -0.3297
   40POPC  H18T 5397   5.048   3.508   7.071 -0.5064  3.3186  2.0353
   40POPC   C33 5398   4.340   4.376   6.981  0.4531 -0.2450  0.1107
   40POPC   H3X 5399   4.370   4.475   6.942  1.0388 -0.9580 -1.3069
   40POPC   H3Y 5400   4.424   4.332   7.039  0.4355 -2.6529 -1.5985
   40POPC   C34 5401   4.224   4.375   7.080 -0.2835  0.3996  0.5602
   40POPC   H4X 5402   4.193   4.271   7.103 -0.5409 -0.1505 -2.0496
   40POPC   H4Y 5403   4.136   4.424   7.032 -0.2493 -0.7297 -0.6868
   40POPC   C35 5404   4.259   4.444   7.214 -0.1367 -0.5880  0.6835
   40POPC   H5X 5405   4.238   4.553   7.200 -1.0661 -0.7028  1.1229
   40POPC   H5Y 5406   4.367   4.427   7.232 -0.3311 -0.6321  1.8414
   40POPC   C36 5407   4.181   4.396   7.339 -0.6195 -0.7539  0.4304
   40POPC   H6X 5408   4.194   4.286   7.333 -0.5966 -0.6725 -1.1044
   40POPC   H6Y 5409   4.073   4.415   7.325 -0.5036  0.6568  1.3085
   40POPC   C37 5410   4.222   4.441   7.472  0.1425  0.3707 -0.2354
   40POPC   H7X 5411   4.241   4.549   7.484  3.1827  0.1622 -2.5329
   40POPC   H7Y 5412   4.321   4.393   7.487 -0.9415 -2.4428 -1.5661
   40POPC   C38 5413   4.125   4.379   7.577 -0.1320 -0.1146 -0.4266
   40POPC   H8X 5414   4.107   4.272   7.557 -3.7414  0.3707 -0.0900
   40POPC   H8Y 5415   4.025   4.422   7.557  0.8072  2.1983 -0.4025
   40POPC   C39 5416   4.175   4.410   7.714  0.8802 -0.0180 -0.3238
   40POPC   H9X 5417   4.161   4.517   7.737 -0.6403 -0.2522 -0.0624
   40POPC   H9Y 5418   4.282   4.381   7.721  0.8843  0.1028  0.1145
   40POPC  C310 5419   4.104   4.347   7.833  0.2554 -0.1897 -0.0321
   40POPC  H10X 5420   3.995   4.340   7.813  0.3240  0.9296 -0.8647
   40POPC  H10Y 5421   4.116   4.405   7.927  0.4225 -1.3351  0.6526
   40POPC  C311 5422   4.149   4.199   7.844 -0.1189 -0.0997 -0.5391
   40POPC  H11X 5423   4.260   4.196   7.853 -0.2792 -1.3956  1.3711
   40POPC  H11Y 5424   4.111   4.152   7.751 -1.7281  0.2828 -0.0874
   40POPC  C312 5425   4.091   4.131   7.984 -1.0147 -0.1109  0.3542
   40POPC  H12X 5426   4.106   4.022   7.972  2.2482  0.1585  1.5499
   40POPC  H12Y 5427   3.982   4.153   7.985 -1.6138 -2.8172 -1.0473
   40POPC  C313 5428   4.154   4.178   8.124  1.2943  0.0481  0.4293
   40POPC  H13X 5429   4.070   4.181   8.197  2.6883  1.3759  2.0313
   40POPC  H13Y 5430   4.186   4.284   8.118  0.3948  0.3248  0.3570
   40POPC  C314 5431   4.260   4.087   8.182  0.9709 -0.5450  0.7664
   40POPC  H14X 5432   4.322   4.139   8.258  2.0976  0.5845 -0.8707
   40POPC  H14Y 5433   4.337   4.063   8.106  1.2096  0.5051  0.6572
   40POPC  C315 5434   4.208   3.950   8.232 -0.2237  0.3054 -0.0141
   40POPC  H15X 5435   4.155   3.896   8.150  1.7149 -0.4212 -0.8290
   40POPC  H15Y 5436   4.129   3.962   8.309  0.6455  0.6512  0.8258
   40POPC  C316 5437   4.323   3.870   8.287  0.0228  0.0681 -0.1084
   40POPC  H16X 5438   4.374   3.922   8.371  0.9252  0.5346 -0.9243
   40POPC  H16Y 5439   4.392   3.829   8.210  0.3259 -2.5021  1.4673
   40POPC  H16Z 5440   4.292   3.775   8.334  1.1637  0.9355  2.5375
   41CHL1    C3 5441   2.591   0.930  10.026  0.1046 -0.7191  0.5008
   41CHL1    H3 5442   2.651   0.844   9.990 -1.5010 -1.7062  0.1782
   41CHL1    O3 5443   2.580   0.933  10.168  0.1792 -0.4110 -0.4112
   41CHL1   H3' 5444   2.521   0.866  10.202 -1.0338  0.5525 -0.5852
   41CHL1    C4 5445   2.645   1.069   9.983 -0.9180  0.0167 -0.2878
   41CHL1   H4A 5446   2.584   1.143  10.040 -1.4936 -0.7195  0.0699
   41CHL1   H4B 5447   2.745   1.065  10.032 -1.6075  1.7751  1.3486
   41CHL1    C5 5448   2.656   1.104   9.836 -0.0918 -0.1347 -0.2669
   41CHL1    C6 5449   2.775   1.139   9.775  0.1417 -0.1343 -0.1876
   41CHL1    H6 5450   2.863   1.149   9.840  0.3232  2.3516 -0.7579
   41CHL1    C7 5451   2.782   1.167   9.635  0.2959 -0.0646  0.3691
   41CHL1   H7A 5452   2.849   1.249   9.601 -0.4519 -0.3800 -2.0008
   41CHL1   H7B 5453   2.821   1.079   9.579 -1.9200 -2.0247  1.7836
   41CHL1    C8 5454   2.643   1.172   9.563 -0.4499 -0.4758 -0.1336
   41CHL1    H8 5455   2.593   1.264   9.599 -0.9055 -0.7652 -0.0262
   41CHL1   C14 5456   2.657   1.180   9.413  0.5513  0.0597  0.8288
   41CHL1   H14 5457   2.690   1.077   9.386  1.9641  0.7219 -0.0635
   41CHL1   C15 5458   2.762   1.279   9.348 -0.4217  0.2210  0.2153
   41CHL1  H15A 5459   2.767   1.384   9.383  1.0072  0.8134 -1.6865
   41CHL1  H15B 5460   2.863   1.233   9.355 -0.6834 -0.1983  1.4154
   41CHL1   C16 5461   2.715   1.300   9.199  0.0845 -0.0574  0.6017
   41CHL1  H16A 5462   2.695   1.408   9.185  4.8087  0.6990 -1.3834
   41CHL1  H16B 5463   2.791   1.265   9.126 -0.7863 -3.1487  1.0851
   41CHL1   C17 5464   2.591   1.207   9.191 -0.3457 -0.2257  0.3329
   41CHL1   H17 5465   2.629   1.103   9.177 -1.5783 -0.5349 -0.8278
   41CHL1   C13 5466   2.532   1.197   9.329 -0.5934  0.6590 -0.3599
   41CHL1   C18 5467   2.457   1.325   9.375 -0.1009 -1.2178  0.4120
   41CHL1  H18A 5468   2.374   1.355   9.308 -1.4046 -1.3187  1.9486
   41CHL1  H18B 5469   2.407   1.320   9.474  2.1607 -1.0035  1.6055
   41CHL1  H18C 5470   2.523   1.415   9.376  0.2096 -1.4474  1.9279
   41CHL1   C12 5471   2.440   1.071   9.359  0.3535  0.6861 -0.1009
   41CHL1  H12A 5472   2.342   1.086   9.309 -2.5456 -0.7198  4.7753
   41CHL1  H12B 5473   2.473   0.976   9.313 -1.1670  0.7139 -1.3051
   41CHL1   C11 5474   2.422   1.056   9.514 -0.1037  0.8046 -0.3760
   41CHL1  H11A 5475   2.352   1.135   9.545 -1.2186 -1.5161  3.3795
   41CHL1  H11B 5476   2.375   0.959   9.543  1.8792 -0.5292 -1.4959
   41CHL1    C9 5477   2.554   1.058   9.601 -0.1487 -0.3660 -0.7017
   41CHL1    H9 5478   2.610   0.962   9.599 -0.4231 -0.5314 -0.5678
   41CHL1   C10 5479   2.523   1.068   9.757 -0.1756  0.3497  0.5480
   41CHL1   C19 5480   2.428   1.188   9.785  0.2761  0.0416  0.8312
   41CHL1  H19A 5481   2.471   1.287   9.759 -1.2654 -0.2663 -3.2219
   41CHL1  H19B 5482   2.332   1.175   9.730  1.1281  2.3053 -1.2703
   41CHL1  H19C 5483   2.412   1.192   9.895  1.4925 -0.9082  1.0556
   41CHL1    C1 5484   2.459   0.934   9.803  0.1670 -0.6322  0.5682
   41CHL1   H1A 5485   2.353   0.925   9.771 -0.3523  1.4096  1.6071
   41CHL1   H1B 5486   2.526   0.861   9.753  0.5030 -0.3111  0.5479
   41CHL1    C2 5487   2.455   0.909   9.960 -0.2876 -0.5925 -0.0976
   41CHL1   H2A 5488   2.422   0.805   9.979  1.0752 -0.9327  0.4838
   41CHL1   H2B 5489   2.383   0.980  10.006  0.4417  0.2578 -0.2477
   41CHL1   C20 5490   2.498   1.252   9.069 -0.6460 -0.2372 -0.6984
   41CHL1   H20 5491   2.437   1.340   9.097 -1.1520 -0.4920 -0.9881
   41CHL1   C21 5492   2.395   1.147   9.032 -0.6880 -0.5152 -0.4979
   41CHL1  H21A 5493   2.310   1.140   9.104  0.5943 -1.0210  0.9862
   41CHL1  H21B 5494   2.439   1.047   9.012  2.8032  1.0347 -0.8239
   41CHL1  H21C 5495   2.344   1.175   8.937 -0.7091 -2.0355 -0.9447
   41CHL1   C22 5496   2.586   1.274   8.941  0.6839 -0.0022  0.2395
   41CHL1  H22A 5497   2.671   1.342   8.959 -0.3155  1.2201  0.4367
   41CHL1  H22B 5498   2.624   1.177   8.903 -0.8552 -0.5266 -0.0124
   41CHL1   C23 5499   2.510   1.342   8.824 -0.2332  0.5370  0.1258
   41CHL1  H23A 5500   2.449   1.259   8.782 -0.9285  1.4908 -0.7734
   41CHL1  H23B 5501   2.433   1.418   8.848  0.4099  1.5596 -1.0061
   41CHL1   C24 5502   2.602   1.399   8.711 -0.3282  0.6809  0.0610
   41CHL1  H24A 5503   2.638   1.497   8.749 -2.9553  1.9437 -0.6125
   41CHL1  H24B 5504   2.695   1.338   8.698  1.0448  3.0697 -1.7096
   41CHL1   C25 5505   2.528   1.415   8.580 -0.3769 -0.2646  0.4398
   41CHL1   H25 5506   2.433   1.469   8.601 -1.1602 -1.6119  0.4530
   41CHL1   C26 5507   2.614   1.500   8.485  0.1955 -1.0731 -0.2275
   41CHL1  H26A 5508   2.646   1.597   8.530 -2.7007 -1.0910  2.0608
   41CHL1  H26B 5509   2.706   1.444   8.458 -0.7064 -1.6121 -2.2456
   41CHL1  H26C 5510   2.554   1.513   8.392  0.2183 -1.4622 -0.2954
   41CHL1   C27 5511   2.501   1.279   8.511  0.1144  0.4073 -0.1498
   41CHL1  H27A 5512   2.436   1.214   8.573  1.1159  0.5528  1.0742
   41CHL1  H27B 5513   2.441   1.296   8.419 -0.2613 -1.0182 -0.1854
   41CHL1  H27C 5514   2.592   1.218   8.495 -0.5707 -1.2706  2.0361
   42CHL1    C3 5515   2.380   0.411   9.921  0.9379  0.5845 -0.3264
   42CHL1    H3 5516   2.415   0.311   9.886 -0.2352  0.3354 -0.8568
   42CHL1    O3 5517   2.397   0.401  10.063  0.2979 -0.1630  0.3212
   42CHL1   H3' 5518   2.355   0.478  10.103 -1.3308  0.1758 -1.9705
   42CHL1    C4 5519   2.462   0.531   9.867  0.3664 -0.0639 -0.3056
   42CHL1   H4A 5520   2.446   0.617   9.936  4.6885  0.3274  0.3330
   42CHL1   H4B 5521   2.569   0.500   9.871  0.7505  1.1807 -0.6736
   42CHL1    C5 5522   2.420   0.554   9.722 -0.6759 -0.1543  0.3337
   42CHL1    C6 5523   2.512   0.565   9.628  0.5408  0.3791  0.0560
   42CHL1    H6 5524   2.616   0.559   9.662  0.7885  1.4036 -0.5140
   42CHL1    C7 5525   2.493   0.578   9.483  0.4939 -0.0987  0.1276
   42CHL1   H7A 5526   2.568   0.650   9.443  1.0729 -0.3467  0.7643
   42CHL1   H7B 5527   2.499   0.476   9.440 -1.6711 -0.6384  1.0632
   42CHL1    C8 5528   2.350   0.633   9.448  0.3217  0.5981 -0.2029
   42CHL1    H8 5529   2.352   0.744   9.456  0.1840  0.5739  0.1645
   42CHL1   C14 5530   2.321   0.606   9.300 -0.3474 -0.4534  0.0517
   42CHL1   H14 5531   2.306   0.496   9.296 -0.1983 -0.6776  4.1369
   42CHL1   C15 5532   2.427   0.645   9.195  0.2577 -0.2538 -0.1063
   42CHL1  H15A 5533   2.474   0.745   9.206  0.7181 -0.7218  2.6122
   42CHL1  H15B 5534   2.506   0.568   9.207 -1.1026 -1.8142 -0.9471
   42CHL1   C16 5535   2.355   0.642   9.062 -0.2655 -0.5793  0.5066
   42CHL1  H16A 5536   2.381   0.733   9.003  0.4631 -0.4169  1.0670
   42CHL1  H16B 5537   2.405   0.560   9.007  0.8182  0.8179 -0.6600
   42CHL1   C17 5538   2.202   0.636   9.094 -0.6354  0.9607 -0.2179
   42CHL1   H17 5539   2.182   0.528   9.080 -0.5417  0.9713 -0.4400
   42CHL1   C13 5540   2.196   0.663   9.247 -0.4265 -0.3014  0.4805
   42CHL1   C18 5541   2.193   0.806   9.271 -0.0706 -0.2037  0.1240
   42CHL1  H18A 5542   2.190   0.839   9.377 -0.0217 -1.6082  0.5714
   42CHL1  H18B 5543   2.274   0.869   9.227  0.9101 -1.3384  0.2824
   42CHL1  H18C 5544   2.103   0.847   9.221 -0.2166 -1.3376 -0.5336
   42CHL1   C12 5545   2.086   0.601   9.328 -0.3759 -0.3618 -1.1150
   42CHL1  H12A 5546   1.985   0.642   9.310  1.0916  3.3166 -1.2885
   42CHL1  H12B 5547   2.071   0.493   9.306 -0.2259 -0.1435 -2.3244
   42CHL1   C11 5548   2.106   0.612   9.484  0.1102  0.3566  0.1095
   42CHL1  H11A 5549   2.088   0.720   9.502 -2.2864 -0.1166  0.7351
   42CHL1  H11B 5550   2.028   0.554   9.539  0.9026 -0.5907  0.2667
   42CHL1    C9 5551   2.243   0.563   9.533  0.6206 -0.5034  0.5120
   42CHL1    H9 5552   2.247   0.455   9.505 -0.2739 -0.9511  2.0471
   42CHL1   C10 5553   2.273   0.566   9.685 -0.5466 -0.0790 -0.0605
   42CHL1   C19 5554   2.210   0.698   9.737  0.6643  0.3238  0.6673
   42CHL1  H19A 5555   2.233   0.726   9.842 -0.6657 -0.6553  1.2273
   42CHL1  H19B 5556   2.237   0.785   9.673  0.6109 -0.0271  0.1718
   42CHL1  H19C 5557   2.100   0.687   9.737  0.5809  0.8100 -2.5007
   42CHL1    C1 5558   2.193   0.444   9.745 -0.8441 -0.5256  0.2236
   42CHL1   H1A 5559   2.083   0.446   9.732 -1.0168  2.1657  1.7683
   42CHL1   H1B 5560   2.240   0.355   9.698  2.1612  0.2677  1.6072
   42CHL1    C2 5561   2.225   0.428   9.895  0.2311  0.4747 -0.7114
   42CHL1   H2A 5562   2.189   0.332   9.938  0.0714  0.2517 -1.3323
   42CHL1   H2B 5563   2.174   0.514   9.943 -0.0770 -0.4670  0.6815
   42CHL1   C20 5564   2.118   0.721   8.998 -1.2911 -0.2040 -0.1076
   42CHL1   H20 5565   2.145   0.826   9.019  3.3725 -1.3149  0.0262
   42CHL1   C21 5566   1.966   0.703   9.027  0.2968  0.1170  0.0478
   42CHL1  H21A 5567   1.937   0.734   9.130 -0.3280  2.1289 -0.7035
   42CHL1  H21B 5568   1.939   0.600   8.996  4.5721 -1.5412  1.5028
   42CHL1  H21C 5569   1.918   0.776   8.957  1.7233  0.8724 -0.1593
   42CHL1   C22 5570   2.134   0.670   8.847 -0.1929  0.7876  0.9086
   42CHL1  H22A 5571   2.241   0.645   8.837 -0.5177 -1.5131  2.7867
   42CHL1  H22B 5572   2.077   0.575   8.833 -1.0968  1.1950  1.7182
   42CHL1   C23 5573   2.099   0.777   8.745 -0.9493 -0.3206  0.9775
   42CHL1  H23A 5574   1.990   0.793   8.737 -0.8826 -1.2080 -3.0923
   42CHL1  H23B 5575   2.145   0.873   8.775  1.2998 -0.8483 -0.6196
   42CHL1   C24 5576   2.161   0.732   8.606  0.1414 -0.5132 -0.2064
   42CHL1  H24A 5577   2.267   0.714   8.631  0.2349 -0.0183 -0.2347
   42CHL1  H24B 5578   2.109   0.640   8.572 -2.0521  0.1243  1.2582
   42CHL1   C25 5579   2.155   0.849   8.507  0.1843 -0.2142  0.0386
   42CHL1   H25 5580   2.203   0.939   8.550 -0.8667  0.6176 -0.5080
   42CHL1   C26 5581   2.223   0.802   8.376 -0.0181 -0.4810 -0.1070
   42CHL1  H26A 5582   2.176   0.719   8.319 -0.3733  0.6055 -1.4488
   42CHL1  H26B 5583   2.221   0.890   8.308  2.2067  0.6786  1.2825
   42CHL1  H26C 5584   2.329   0.777   8.393  0.6714  3.4004  1.9243
   42CHL1   C27 5585   2.006   0.867   8.466 -0.3486  0.5431  0.0057
   42CHL1  H27A 5586   1.982   0.957   8.406  0.4321  0.8138  0.1009
   42CHL1  H27B 5587   1.942   0.784   8.429  0.1084  0.7960 -1.3595
   42CHL1  H27C 5588   1.950   0.888   8.560 -1.3529  0.6036 -0.5996
   43CHL1    C3 5589   2.661   0.103   9.986 -0.0089 -0.4915 -0.5879
   43CHL1    H3 5590   2.551   0.109   9.973 -0.2154 -1.0820  0.8646
   43CHL1    O3 5591   2.702   0.105  10.123 -0.3023 -0.3439 -0.4790
   43CHL1   H3' 5592   2.797   0.120  10.131 -0.3699 -0.8535  1.6343
   43CHL1    C4 5593   2.709  -0.031   9.927  0.4602 -0.3648  0.8864
   43CHL1   H4A 5594   2.820  -0.029   9.927  0.5067  0.2230 -2.5691
   43CHL1   H4B 5595   2.664  -0.117   9.981 -2.2155  0.5307  0.1928
   43CHL1    C5 5596   2.667  -0.038   9.780 -0.1755  0.6693  0.3748
   43CHL1    C6 5597   2.604  -0.142   9.734  0.3859  0.1415  0.0370
   43CHL1    H6 5598   2.581  -0.224   9.804 -2.2682  0.3719 -0.4955
   43CHL1    C7 5599   2.570  -0.163   9.582  0.1154  0.6289 -0.1463
   43CHL1   H7A 5600   2.618  -0.256   9.547 -2.5074 -1.0466  0.5331
   43CHL1   H7B 5601   2.459  -0.173   9.577  0.3978 -3.0273 -0.3737
   43CHL1    C8 5602   2.631  -0.053   9.492 -0.0627  0.2657  0.7610
   43CHL1    H8 5603   2.736  -0.075   9.463 -0.9916 -3.0855 -0.2185
   43CHL1   C14 5604   2.538  -0.039   9.362  0.8179 -0.4707  0.5442
   43CHL1   H14 5605   2.437  -0.012   9.401  0.1225 -0.4728 -1.2393
   43CHL1   C15 5606   2.513  -0.162   9.276 -0.0262 -0.2718 -0.2615
   43CHL1  H15A 5607   2.607  -0.206   9.237 -1.7081 -2.2850 -2.2269
   43CHL1  H15B 5608   2.443  -0.233   9.325 -0.1778 -0.5716 -0.9038
   43CHL1   C16 5609   2.429  -0.108   9.158 -0.2031 -0.4502 -0.6448
   43CHL1  H16A 5610   2.459  -0.164   9.066  0.8124 -0.3748 -0.3644
   43CHL1  H16B 5611   2.320  -0.116   9.176  0.1307 -1.8561  0.8041
   43CHL1   C17 5612   2.457   0.041   9.152 -0.0825 -0.1745  0.6458
   43CHL1   H17 5613   2.370   0.084   9.206 -0.5559 -1.6612  1.0792
   43CHL1   C13 5614   2.574   0.070   9.254  0.2023  0.4761  0.2608
   43CHL1   C18 5615   2.715   0.048   9.196 -0.2766  0.7004  0.1970
   43CHL1  H18A 5616   2.719  -0.040   9.129 -4.4045  0.6916 -0.1472
   43CHL1  H18B 5617   2.741   0.138   9.136 -2.9351  1.3734  0.0174
   43CHL1  H18C 5618   2.781   0.045   9.285 -1.8450 -0.8898  1.3257
   43CHL1   C12 5619   2.565   0.203   9.335  0.4892  0.6923  0.6850
   43CHL1  H12A 5620   2.605   0.282   9.268  0.6862  0.0365  0.0330
   43CHL1  H12B 5621   2.462   0.204   9.377  0.5314 -0.1889  0.8214
   43CHL1   C11 5622   2.660   0.200   9.461  0.2395 -0.7394  0.4830
   43CHL1  H11A 5623   2.764   0.194   9.422  0.0356 -0.3062 -0.1335
   43CHL1  H11B 5624   2.656   0.297   9.513 -0.3085 -0.6854  0.3370
   43CHL1    C9 5625   2.634   0.087   9.563  0.4637 -0.7313 -0.3541
   43CHL1    H9 5626   2.530   0.107   9.596  0.2705 -0.7147 -0.9729
   43CHL1   C10 5627   2.715   0.083   9.693  0.6975  0.3745 -0.1834
   43CHL1   C19 5628   2.868   0.065   9.665  0.5140  0.2697 -0.3584
   43CHL1  H19A 5629   2.895   0.143   9.591  0.4751  0.0642 -0.5881
   43CHL1  H19B 5630   2.926   0.078   9.759 -0.6451  3.4271 -0.0139
   43CHL1  H19C 5631   2.901  -0.035   9.630  2.1273  0.9816 -0.9177
   43CHL1    C1 5632   2.689   0.216   9.765  0.2483  0.2091 -0.5053
   43CHL1   H1A 5633   2.762   0.289   9.724 -0.2845  1.0470  0.0312
   43CHL1   H1B 5634   2.583   0.248   9.757  0.3356  0.1501 -2.0187
   43CHL1    C2 5635   2.725   0.219   9.918 -0.2052 -0.2873  0.0907
   43CHL1   H2A 5636   2.704   0.321   9.956 -1.0041  1.1081 -3.7821
   43CHL1   H2B 5637   2.836   0.209   9.925 -0.1589 -0.0992 -0.3629
   43CHL1   C20 5638   2.478   0.098   9.013 -0.2424  0.8281  0.1987
   43CHL1   H20 5639   2.575   0.057   8.980  1.2880  2.5057  2.4450
   43CHL1   C21 5640   2.482   0.249   9.009  0.5730  0.0742  0.3776
   43CHL1  H21A 5641   2.574   0.294   9.053 -0.5555  2.9623 -0.0914
   43CHL1  H21B 5642   2.399   0.292   9.068  2.5424  3.0917  1.1020
   43CHL1  H21C 5643   2.471   0.294   8.908 -0.9743  1.3273  1.0963
   43CHL1   C22 5644   2.366   0.065   8.915 -0.2830  0.2410 -0.4307
   43CHL1  H22A 5645   2.389   0.105   8.814  0.0358 -2.1673 -1.3506
   43CHL1  H22B 5646   2.357  -0.046   8.913  0.1631  0.2064 -0.6920
   43CHL1   C23 5647   2.221   0.123   8.943 -0.6314  0.2526  0.5931
   43CHL1  H23A 5648   2.199   0.071   9.039  1.1504  0.4194  1.1165
   43CHL1  H23B 5649   2.226   0.233   8.959  2.5373  0.2941 -0.2192
   43CHL1   C24 5650   2.116   0.071   8.838  1.1320  0.0367  0.4843
   43CHL1  H24A 5651   2.120  -0.040   8.835  0.0394  0.0258 -4.0451
   43CHL1  H24B 5652   2.017   0.105   8.875  2.1377  0.5739  2.7687
   43CHL1   C25 5653   2.127   0.141   8.705 -0.3714  0.0109 -0.4964
   43CHL1   H25 5654   2.231   0.125   8.670 -0.0341  1.1651 -0.0506
   43CHL1   C26 5655   2.037   0.076   8.601  0.4029  0.7616  0.3919
   43CHL1  H26A 5656   2.071  -0.028   8.583 -2.0968 -0.3109  1.6345
   43CHL1  H26B 5657   1.938   0.069   8.651  0.7932  0.0721  1.0757
   43CHL1  H26C 5658   2.021   0.148   8.517 -0.1824  0.2990  0.1017
   43CHL1   C27 5659   2.100   0.294   8.727 -0.9438 -0.2232  0.9657
   43CHL1  H27A 5660   2.126   0.347   8.633  0.8319  0.0411  1.6048
   43CHL1  H27B 5661   1.992   0.310   8.749 -1.6134 -1.1384 -1.3863
   43CHL1  H27C 5662   2.157   0.336   8.811 -1.8085  1.7727  0.5879
   44CHL1    C3 5663   3.090   0.774  10.068  0.3772  0.1165 -0.3237
   44CHL1    H3 5664   2.985   0.803  10.087  0.0315 -1.1915 -0.1889
   44CHL1    O3 5665   3.152   0.750  10.191 -0.4370 -0.1443  0.0292
   44CHL1   H3' 5666   3.137   0.831  10.241  0.4595  0.4504 -0.6500
   44CHL1    C4 5667   3.092   0.650   9.972  0.1791 -0.0368  0.3788
   44CHL1   H4A 5668   3.200   0.624   9.980  0.9130  3.1066  1.3821
   44CHL1   H4B 5669   3.038   0.565  10.018  3.3699 -2.9928 -1.1053
   44CHL1    C5 5670   3.050   0.677   9.829  0.4129  0.2948  0.3531
   44CHL1    C6 5671   2.953   0.613   9.768 -0.2608  0.3290  0.6036
   44CHL1    H6 5672   2.898   0.530   9.813 -4.1769  2.2263 -0.4372
   44CHL1    C7 5673   2.905   0.638   9.631 -0.0447  1.0114 -0.4799
   44CHL1   H7A 5674   2.905   0.543   9.574 -0.2355 -0.9855  2.6978
   44CHL1   H7B 5675   2.803   0.683   9.628 -0.8007 -0.4858  1.4075
   44CHL1    C8 5676   3.000   0.724   9.537 -0.0848 -0.0632  0.0070
   44CHL1    H8 5677   3.086   0.658   9.514 -0.5543 -0.9730  0.8392
   44CHL1   C14 5678   2.936   0.771   9.413 -0.2512  0.2714 -0.5947
   44CHL1   H14 5679   2.865   0.854   9.434  0.8474  0.9502  0.4368
   44CHL1   C15 5680   2.864   0.664   9.331  0.0529 -0.0944 -0.3584
   44CHL1  H15A 5681   2.939   0.583   9.318  1.3404  0.4558  3.2073
   44CHL1  H15B 5682   2.775   0.625   9.383  1.1774  1.4308  2.8418
   44CHL1   C16 5683   2.848   0.733   9.193  1.1373  0.5587  0.2398
   44CHL1  H16A 5684   2.885   0.665   9.114 -0.5782 -1.4648  1.1318
   44CHL1  H16B 5685   2.747   0.767   9.162  1.6648  0.0178 -2.1614
   44CHL1   C17 5686   2.937   0.859   9.196 -0.1187  0.0369  0.0903
   44CHL1   H17 5687   2.865   0.938   9.226 -3.4666 -2.9218  0.1526
   44CHL1   C13 5688   3.035   0.834   9.311 -0.3742  0.4865  0.0609
   44CHL1   C18 5689   3.159   0.749   9.270 -0.1013  0.0827  0.1344
   44CHL1  H18A 5690   3.214   0.722   9.362  1.5463 -0.7026 -1.0599
   44CHL1  H18B 5691   3.114   0.661   9.218  1.5179 -0.4498 -0.3935
   44CHL1  H18C 5692   3.233   0.789   9.197  0.5434 -2.2492 -0.5588
   44CHL1   C12 5693   3.076   0.961   9.388  0.2540  0.1114 -0.6217
   44CHL1  H12A 5694   3.157   1.008   9.328  0.0642 -0.6291 -1.4767
   44CHL1  H12B 5695   2.991   1.033   9.390  1.5624  1.6502  3.0344
   44CHL1   C11 5696   3.136   0.928   9.523  0.3664 -0.3564  0.0722
   44CHL1  H11A 5697   3.237   0.884   9.508  0.2235 -0.5891 -0.1955
   44CHL1  H11B 5698   3.168   1.016   9.582  0.5758 -1.2622  1.3432
   44CHL1    C9 5699   3.052   0.839   9.619  0.1101  0.0885  0.2257
   44CHL1    H9 5700   2.957   0.889   9.644  1.0596  1.4156  1.2839
   44CHL1   C10 5701   3.115   0.800   9.758  0.0612 -0.0050  0.0889
   44CHL1   C19 5702   3.260   0.765   9.726  0.9208 -0.0509  0.5144
   44CHL1  H19A 5703   3.318   0.859   9.712 -0.1220  0.5877  0.4489
   44CHL1  H19B 5704   3.315   0.711   9.806 -0.0780 -1.6177  0.1628
   44CHL1  H19C 5705   3.263   0.701   9.635 -2.1029  3.4537 -2.2110
   44CHL1    C1 5706   3.100   0.924   9.856  0.7743 -0.4235  0.2827
   44CHL1   H1A 5707   3.155   1.006   9.805  0.3972 -0.0916  0.4025
   44CHL1   H1B 5708   2.996   0.962   9.857 -0.0873 -2.6127 -1.8079
   44CHL1    C2 5709   3.155   0.904  10.002 -0.2613 -0.5758 -0.8283
   44CHL1   H2A 5710   3.125   0.988  10.068  2.2050 -0.4396  0.2084
   44CHL1   H2B 5711   3.266   0.898  10.011 -0.3493  1.2843  1.9686
   44CHL1   C20 5712   2.997   0.899   9.057 -0.0360 -0.2540  0.5247
   44CHL1   H20 5713   3.060   0.811   9.035  1.2621  0.8915 -0.4501
   44CHL1   C21 5714   3.081   1.026   9.051  0.2123  0.1091 -0.0178
   44CHL1  H21A 5715   3.021   1.111   9.090  3.3455  1.4970  1.9488
   44CHL1  H21B 5716   3.108   1.033   8.944 -0.6340  0.8998 -0.1877
   44CHL1  H21C 5717   3.167   1.012   9.120 -1.0046  1.0490  1.7406
   44CHL1   C22 5718   2.883   0.915   8.948 -0.8340 -0.2690 -0.6412
   44CHL1  H22A 5719   2.814   0.829   8.961 -0.8040  0.0455  2.0283
   44CHL1  H22B 5720   2.819   1.000   8.980 -2.5454 -1.8183  0.1482
   44CHL1   C23 5721   2.923   0.933   8.808  0.7764  0.4119  0.0261
   44CHL1  H23A 5722   2.953   1.040   8.805  3.8857 -0.4328 -0.9848
   44CHL1  H23B 5723   3.013   0.874   8.780 -0.6738 -0.8371 -2.1235
   44CHL1   C24 5724   2.818   0.908   8.698 -0.0314 -0.6187 -0.6524
   44CHL1  H24A 5725   2.735   0.980   8.713 -0.6798 -1.4970  0.1014
   44CHL1  H24B 5726   2.860   0.915   8.596 -1.0630  1.4474 -0.9640
   44CHL1   C25 5727   2.751   0.765   8.702  0.2976  0.3893  0.0298
   44CHL1   H25 5728   2.733   0.736   8.808  1.8594 -4.0618 -0.8234
   44CHL1   C26 5729   2.624   0.745   8.622 -0.3245  0.5195  0.2510
   44CHL1  H26A 5730   2.602   0.636   8.619 -0.5312  0.5259  1.2199
   44CHL1  H26B 5731   2.532   0.793   8.664 -0.7851 -0.1348  0.0010
   44CHL1  H26C 5732   2.647   0.788   8.523 -0.4158 -0.2567 -0.1144
   44CHL1   C27 5733   2.860   0.661   8.652  0.4501  0.2740 -0.5314
   44CHL1  H27A 5734   2.889   0.685   8.548 -3.4809  1.4339 -1.4714
   44CHL1  H27B 5735   2.939   0.667   8.730  1.1060 -3.7992 -0.8203
   44CHL1  H27C 5736   2.807   0.563   8.648  3.3706 -1.3652  0.1020
   45CHL1    C3 5737   0.101   6.297  10.312 -0.1306  0.7390 -0.0282
   45CHL1    H3 5738  -0.007   6.288  10.338 -0.1598  0.2063 -0.3255
   45CHL1    O3 5739   0.171   6.303  10.433  0.1654  0.0606 -0.8761
   45CHL1   H3' 5740   0.263   6.313  10.408  0.6449 -0.6453  0.5159
   45CHL1    C4 5741   0.144   6.183  10.213  0.0077  0.1857  0.1799
   45CHL1   H4A 5742   0.252   6.194  10.188 -0.6725  0.2514 -2.9540
   45CHL1   H4B 5743   0.124   6.088  10.267  0.7865 -0.4972 -0.7263
   45CHL1    C5 5744   0.060   6.186  10.081  1.4080  0.7350  0.3229
   45CHL1    C6 5745  -0.023   6.080  10.047  0.6718 -0.6155  0.2908
   45CHL1    H6 5746  -0.027   5.980  10.095  1.1852 -0.1912  1.2337
   45CHL1    C7 5747  -0.100   6.081   9.919  0.2872 -0.0683 -0.1673
   45CHL1   H7A 5748  -0.104   5.979   9.875  2.2900 -0.8415  1.3623
   45CHL1   H7B 5749  -0.200   6.115   9.953  0.1314 -1.6634  1.0398
   45CHL1    C8 5750  -0.061   6.185   9.809  0.1883 -0.1636 -0.2732
   45CHL1    H8 5751  -0.153   6.193   9.747  0.2725  0.4873 -0.3183
   45CHL1   C14 5752   0.045   6.142   9.710  0.0671  0.1740 -0.3711
   45CHL1   H14 5753   0.132   6.100   9.765  0.0130  1.1268  0.4503
   45CHL1   C15 5754  -0.031   6.027   9.632 -0.4958 -0.6866 -0.6068
   45CHL1  H15A 5755   0.028   5.932   9.634  0.7946  0.0882 -1.1957
   45CHL1  H15B 5756  -0.134   5.999   9.664 -0.2037 -0.4298  0.5980
   45CHL1   C16 5757  -0.039   6.077   9.489  0.6271 -0.3938  0.9165
   45CHL1  H16A 5758   0.041   6.036   9.423 -1.1630  0.2957 -1.7758
   45CHL1  H16B 5759  -0.132   6.049   9.434  0.2957  0.1861  1.1787
   45CHL1   C17 5760  -0.017   6.230   9.502  0.2160 -0.0418  0.1972
   45CHL1   H17 5761  -0.108   6.275   9.548  0.3426  2.2558 -1.7122
   45CHL1   C13 5762   0.084   6.249   9.614 -0.3383  0.0083 -0.1152
   45CHL1   C18 5763   0.232   6.220   9.569  0.2073 -0.0630 -0.6759
   45CHL1  H18A 5764   0.309   6.227   9.648  0.3097 -1.6372 -0.6195
   45CHL1  H18B 5765   0.243   6.119   9.524  1.9812  0.5480 -1.7020
   45CHL1  H18C 5766   0.263   6.287   9.485  0.5143  0.0242 -0.4926
   45CHL1   C12 5767   0.084   6.397   9.669  0.1536 -0.2552 -0.6975
   45CHL1  H12A 5768   0.184   6.416   9.714  0.3100 -1.7077 -0.4369
   45CHL1  H12B 5769   0.073   6.475   9.590 -1.2120 -0.1376 -0.3973
   45CHL1   C11 5770  -0.019   6.428   9.778  0.0906  0.2503  0.1831
   45CHL1  H11A 5771   0.024   6.518   9.827 -0.8863 -0.9506  3.4383
   45CHL1  H11B 5772  -0.118   6.448   9.731  0.7243  1.9426 -0.4620
   45CHL1    C9 5773  -0.030   6.314   9.884 -0.1168  0.1412 -0.5029
   45CHL1    H9 5774  -0.130   6.335   9.928  0.1753  1.2958 -0.3764
   45CHL1   C10 5775   0.072   6.310   9.999 -0.1769 -0.2849  0.4078
   45CHL1   C19 5776   0.221   6.309   9.947 -0.4409  0.0687 -0.5403
   45CHL1  H19A 5777   0.247   6.221   9.884 -2.7382  0.3767 -1.9971
   45CHL1  H19B 5778   0.249   6.407   9.902 -2.7058  1.0108  0.0556
   45CHL1  H19C 5779   0.298   6.307  10.027  1.0318  1.5343 -1.8719
   45CHL1    C1 5780   0.038   6.433  10.099 -0.3062 -0.7344 -0.1178
   45CHL1   H1A 5781   0.061   6.536  10.064  2.8162 -1.3174  0.0848
   45CHL1   H1B 5782  -0.069   6.429  10.130 -0.6765  1.4866 -0.9791
   45CHL1    C2 5783   0.112   6.436  10.235  0.5795  0.2788  0.1981
   45CHL1   H2A 5784   0.057   6.501  10.306 -1.9423 -0.0586 -1.3825
   45CHL1   H2B 5785   0.219   6.466  10.228  1.2018 -1.6087  1.3291
   45CHL1   C20 5786  -0.007   6.313   9.377  0.4232 -0.2646  0.0131
   45CHL1   H20 5787   0.053   6.405   9.391 -0.9271  0.6130  0.0892
   45CHL1   C21 5788  -0.145   6.354   9.336  0.4713 -0.2495  0.2961
   45CHL1  H21A 5789  -0.144   6.434   9.259 -0.2433 -0.7934 -0.2876
   45CHL1  H21B 5790  -0.200   6.393   9.425  0.2893  0.1211  0.0269
   45CHL1  H21C 5791  -0.208   6.268   9.306 -1.8620  0.2092  3.5756
   45CHL1   C22 5792   0.068   6.231   9.263  0.7124  0.1172 -0.4675
   45CHL1  H22A 5793   0.159   6.179   9.300  1.4390  0.7359 -1.3540
   45CHL1  H22B 5794  -0.005   6.152   9.234  1.5571 -0.1339 -1.9614
   45CHL1   C23 5795   0.111   6.307   9.140  0.0089 -0.0755 -0.4783
   45CHL1  H23A 5796   0.151   6.231   9.069 -1.7376  0.7997 -2.4577
   45CHL1  H23B 5797   0.014   6.341   9.097 -0.3232  0.8548  0.9673
   45CHL1   C24 5798   0.225   6.408   9.166 -0.8785 -0.4507  0.0396
   45CHL1  H24A 5799   0.185   6.486   9.235 -0.9971 -0.0143 -0.5194
   45CHL1  H24B 5800   0.314   6.353   9.202 -1.8472  0.3070  3.8785
   45CHL1   C25 5801   0.274   6.484   9.046  0.7718 -0.7907 -0.1698
   45CHL1   H25 5802   0.320   6.421   8.968  1.3155 -0.4751 -0.1052
   45CHL1   C26 5803   0.154   6.560   8.979  0.7258 -0.3858 -0.1519
   45CHL1  H26A 5804   0.178   6.605   8.880  1.5065  0.0917  0.2475
   45CHL1  H26B 5805   0.066   6.499   8.950  0.6552  0.5070 -1.9581
   45CHL1  H26C 5806   0.124   6.644   9.045 -0.3842 -0.5032 -0.4954
   45CHL1   C27 5807   0.370   6.594   9.089  0.4986 -0.3394 -0.2788
   45CHL1  H27A 5808   0.314   6.682   9.129  2.3318  1.5198 -1.6526
   45CHL1  H27B 5809   0.446   6.559   9.162  0.8340 -0.7567 -0.8289
   45CHL1  H27C 5810   0.415   6.643   9.000  0.2389  2.9625  1.3291
   46CHL1    C3 5811   2.826   3.338  10.284  0.5282 -0.0306  0.2764
   46CHL1    H3 5812   2.824   3.446  10.308  1.0009  0.0486 -0.0309
   46CHL1    O3 5813   2.826   3.275  10.412  0.4464  0.4691 -0.0176
   46CHL1   H3' 5814   2.817   3.183  10.386  0.3891  0.6261 -0.5622
   46CHL1    C4 5815   2.693   3.307  10.209  0.4390  0.3631 -0.3924
   46CHL1   H4A 5816   2.676   3.199  10.190  0.1510  0.6243 -1.6505
   46CHL1   H4B 5817   2.624   3.355  10.282 -0.5463 -2.5177  0.6642
   46CHL1    C5 5818   2.698   3.379  10.075  0.3975 -0.0320  0.2485
   46CHL1    C6 5819   2.609   3.463  10.038 -0.0811  0.4135 -0.0511
   46CHL1    H6 5820   2.525   3.490  10.104 -1.8030 -3.3196 -0.6103
   46CHL1    C7 5821   2.620   3.530   9.903  0.4266 -0.3188 -0.7366
   46CHL1   H7A 5822   2.520   3.552   9.860  1.1761  2.0792 -1.3720
   46CHL1   H7B 5823   2.673   3.627   9.914  1.4279 -1.0425  0.9654
   46CHL1    C8 5824   2.704   3.450   9.795  0.1895  0.5083 -0.7972
   46CHL1    H8 5825   2.641   3.361   9.772  0.4977 -0.5681  2.2987
   46CHL1   C14 5826   2.726   3.517   9.663  0.2729 -0.5662 -0.1583
   46CHL1   H14 5827   2.779   3.613   9.681 -0.7037  0.4330 -2.3637
   46CHL1   C15 5828   2.597   3.555   9.586 -0.4490 -0.2664  0.0091
   46CHL1  H15A 5829   2.529   3.467   9.582 -0.6291 -0.0918 -1.0840
   46CHL1  H15B 5830   2.544   3.632   9.646 -2.3089 -1.2230 -0.3631
   46CHL1   C16 5831   2.652   3.597   9.455 -0.5946  0.1367 -0.1474
   46CHL1  H16A 5832   2.597   3.551   9.370  2.1395 -1.5821 -1.0758
   46CHL1  H16B 5833   2.638   3.706   9.438  1.9205  0.9936  2.7988
   46CHL1   C17 5834   2.803   3.545   9.444  0.5225 -0.0272 -0.5541
   46CHL1   H17 5835   2.874   3.625   9.472 -0.8224  1.9287 -2.5422
   46CHL1   C13 5836   2.810   3.440   9.557 -0.0136 -0.6402  0.2708
   46CHL1   C18 5837   2.757   3.306   9.509 -0.4158  0.1848  1.1050
   46CHL1  H18A 5838   2.833   3.254   9.448 -1.5595 -2.2587  1.7057
   46CHL1  H18B 5839   2.726   3.235   9.588 -0.2759  2.1768  3.0178
   46CHL1  H18C 5840   2.668   3.317   9.442  2.1037  0.6045 -2.3464
   46CHL1   C12 5841   2.948   3.421   9.614 -0.1527 -0.3191 -0.0064
   46CHL1  H12A 5842   3.008   3.351   9.552  1.1868  0.0201  0.8945
   46CHL1  H12B 5843   3.002   3.518   9.624 -0.7524  0.0986 -0.7733
   46CHL1   C11 5844   2.941   3.351   9.751  0.0192 -0.3606  0.6265
   46CHL1  H11A 5845   2.910   3.247   9.728  1.4076 -0.8825  1.0721
   46CHL1  H11B 5846   3.047   3.354   9.787  0.2631  1.3383 -0.1849
   46CHL1    C9 5847   2.843   3.412   9.855  0.1791  0.1366 -0.5595
   46CHL1    H9 5848   2.880   3.513   9.884  0.4103 -0.2663  0.5678
   46CHL1   C10 5849   2.818   3.334   9.986 -1.4398  0.0488  0.2221
   46CHL1   C19 5850   2.807   3.186   9.959  0.0369  0.1343 -0.2837
   46CHL1  H19A 5851   2.722   3.173   9.888 -1.7754  1.0465  1.6608
   46CHL1  H19B 5852   2.892   3.138   9.907 -0.2709 -0.4956 -0.2179
   46CHL1  H19C 5853   2.785   3.127  10.051  0.0057 -0.2476 -0.5355
   46CHL1    C1 5854   2.956   3.356  10.074  0.1187  0.6955 -0.2028
   46CHL1   H1A 5855   3.040   3.297  10.031 -0.5494 -2.3744  2.4490
   46CHL1   H1B 5856   2.990   3.461  10.066  0.8969  0.3703 -1.2233
   46CHL1    C2 5857   2.951   3.299  10.211 -0.1582  0.5406 -0.1081
   46CHL1   H2A 5858   3.037   3.314  10.280 -0.8113  2.4379  0.3200
   46CHL1   H2B 5859   2.938   3.189  10.201 -1.3905  0.6256  0.4569
   46CHL1   C20 5860   2.849   3.501   9.300 -0.1931  0.4095 -0.4505
   46CHL1   H20 5861   2.830   3.392   9.292  1.4940  0.1226 -0.8341
   46CHL1   C21 5862   3.004   3.508   9.288 -0.2472 -0.2990 -0.4438
   46CHL1  H21A 5863   3.028   3.449   9.197 -0.1496 -2.0210  0.6827
   46CHL1  H21B 5864   3.056   3.469   9.378 -2.9606 -0.9926  0.8990
   46CHL1  H21C 5865   3.026   3.615   9.266  2.5777 -1.1528 -1.9138
   46CHL1   C22 5866   2.771   3.561   9.175  0.0131 -0.2203 -0.2081
   46CHL1  H22A 5867   2.816   3.511   9.086  0.4306 -0.7993  0.3214
   46CHL1  H22B 5868   2.665   3.530   9.175 -0.3322  0.9033  1.5589
   46CHL1   C23 5869   2.794   3.719   9.155  0.2164  0.4229 -0.1076
   46CHL1  H23A 5870   2.774   3.772   9.251  1.5898 -0.4194  0.6635
   46CHL1  H23B 5871   2.897   3.735   9.116  0.3950 -0.7573 -0.1416
   46CHL1   C24 5872   2.714   3.786   9.040  0.3750  0.2176 -0.4253
   46CHL1  H24A 5873   2.735   3.895   9.037 -0.1437  0.3937  1.2963
   46CHL1  H24B 5874   2.758   3.751   8.944  0.4788 -1.8604  0.3537
   46CHL1   C25 5875   2.562   3.771   9.032 -0.2931  0.2140 -0.2715
   46CHL1   H25 5876   2.533   3.664   9.037 -3.7847  1.1944  1.7198
   46CHL1   C26 5877   2.497   3.843   9.155  0.4409 -0.4363  0.4180
   46CHL1  H26A 5878   2.545   3.803   9.247  0.7440  0.5260  0.6833
   46CHL1  H26B 5879   2.510   3.954   9.152  2.7566 -0.6235  1.8189
   46CHL1  H26C 5880   2.389   3.817   9.155 -0.0419  1.2713  3.9328
   46CHL1   C27 5881   2.498   3.827   8.901 -0.1430  0.1736 -0.4540
   46CHL1  H27A 5882   2.535   3.778   8.808 -3.0674 -1.6920 -0.7071
   46CHL1  H27B 5883   2.388   3.820   8.914 -0.2322  0.9855 -0.7337
   46CHL1  H27C 5884   2.523   3.935   8.898 -1.2212  0.4855  1.2332
   47CHL1    C3 5885   3.609   0.363  10.256  0.7252  1.0205 -0.1611
   47CHL1    H3 5886   3.657   0.263  10.253  0.1865  0.6307  2.8369
   47CHL1    O3 5887   3.536   0.380  10.373 -0.1299  0.0815  0.2503
   47CHL1   H3' 5888   3.466   0.441  10.349 -1.8603 -1.4102  1.3767
   47CHL1    C4 5889   3.725   0.462  10.255 -0.6883 -0.0406  0.4256
   47CHL1   H4A 5890   3.684   0.561  10.282 -2.2887 -0.9719  1.4785
   47CHL1   H4B 5891   3.800   0.449  10.336 -0.5137 -0.4099  0.2082
   47CHL1    C5 5892   3.784   0.469  10.118  0.1532 -1.0192  0.0902
   47CHL1    C6 5893   3.910   0.436  10.099  0.4862  0.3027 -0.3751
   47CHL1    H6 5894   3.984   0.410  10.176  0.2152 -0.3639 -0.3431
   47CHL1    C7 5895   3.976   0.437   9.965  0.1270  0.3972 -0.0232
   47CHL1   H7A 5896   4.076   0.484   9.973  2.1540 -3.8134  0.4123
   47CHL1   H7B 5897   3.995   0.332   9.933  0.8661  1.4349 -3.1925
   47CHL1    C8 5898   3.896   0.528   9.864  0.1909  0.3612 -0.1796
   47CHL1    H8 5899   3.900   0.636   9.892 -0.3359  0.1472  0.7319
   47CHL1   C14 5900   3.946   0.505   9.719  0.8759  0.1911 -0.3037
   47CHL1   H14 5901   3.935   0.396   9.701 -0.1058  0.0348  1.1412
   47CHL1   C15 5902   4.096   0.524   9.693  0.1259 -0.5648 -0.9839
   47CHL1  H15A 5903   4.131   0.626   9.722  2.0232 -1.2392 -0.8213
   47CHL1  H15B 5904   4.152   0.452   9.756 -1.7164 -1.9886 -0.9523
   47CHL1   C16 5905   4.111   0.518   9.540 -0.2461  0.3401  0.2191
   47CHL1  H16A 5906   4.166   0.610   9.512  0.7132 -0.1658  0.4429
   47CHL1  H16B 5907   4.173   0.441   9.490 -0.8224 -0.2371  0.3873
   47CHL1   C17 5908   3.960   0.525   9.478 -0.8899  0.3480  0.6768
   47CHL1   H17 5909   3.925   0.420   9.462 -1.2147  0.9560 -3.1677
   47CHL1   C13 5910   3.874   0.569   9.603 -0.2719  0.6733 -0.3788
   47CHL1   C18 5911   3.878   0.722   9.619  0.1019 -0.1658  0.3150
   47CHL1  H18A 5912   3.804   0.772   9.553  1.0769 -2.8079 -2.9071
   47CHL1  H18B 5913   3.861   0.749   9.726 -0.9892 -0.6239  0.2654
   47CHL1  H18C 5914   3.974   0.770   9.591  0.1971 -1.3382 -1.4469
   47CHL1   C12 5915   3.737   0.515   9.609  1.1333  0.5885  0.1055
   47CHL1  H12A 5916   3.677   0.555   9.524 -0.6235  0.0460  1.0553
   47CHL1  H12B 5917   3.737   0.407   9.584  0.5546  1.0597 -2.0515
   47CHL1   C11 5918   3.670   0.544   9.740 -0.0604 -0.4933  0.4458
   47CHL1  H11A 5919   3.666   0.655   9.751  0.1227 -0.1236 -2.7802
   47CHL1  H11B 5920   3.570   0.496   9.736 -0.4000  0.1272  1.2388
   47CHL1    C9 5921   3.751   0.488   9.865 -1.0168 -0.0357 -0.3449
   47CHL1    H9 5922   3.755   0.380   9.842  0.7176 -0.2281  0.7373
   47CHL1   C10 5923   3.691   0.496  10.006  0.3982  0.3577 -0.1810
   47CHL1   C19 5924   3.638   0.645  10.018 -0.2299 -0.0592 -0.2219
   47CHL1  H19A 5925   3.600   0.668  10.120 -1.1288 -4.9676  0.6774
   47CHL1  H19B 5926   3.725   0.711   9.997 -0.1799  0.9756  3.0610
   47CHL1  H19C 5927   3.557   0.667   9.944  0.3807 -1.8290 -1.4475
   47CHL1    C1 5928   3.566   0.403  10.005 -0.3870  0.5369 -0.1800
   47CHL1   H1A 5929   3.490   0.426   9.928 -0.6337  0.3629  0.0121
   47CHL1   H1B 5930   3.593   0.297   9.982  0.0655  0.3569  1.1467
   47CHL1    C2 5931   3.505   0.386  10.139  0.4088  0.7040  0.8066
   47CHL1   H2A 5932   3.434   0.301  10.129  1.6418  0.0112 -2.5007
   47CHL1   H2B 5933   3.444   0.473  10.173  2.1570  1.9285  0.8866
   47CHL1   C20 5934   3.946   0.598   9.338 -0.1930 -0.1745  0.2703
   47CHL1   H20 5935   3.976   0.702   9.361 -1.2687  0.3646 -0.7329
   47CHL1   C21 5936   3.799   0.588   9.282  0.0027  0.1894  0.4289
   47CHL1  H21A 5937   3.783   0.481   9.257  1.4412 -0.0534  0.5242
   47CHL1  H21B 5938   3.795   0.646   9.187  0.5537  3.2444  2.1702
   47CHL1  H21C 5939   3.716   0.636   9.338 -1.0759  0.6936 -1.5686
   47CHL1   C22 5940   4.050   0.554   9.234 -0.0662  0.0550  0.2241
   47CHL1  H22A 5941   4.148   0.562   9.286  0.4895  1.9773 -1.0914
   47CHL1  H22B 5942   4.015   0.448   9.224  1.5764 -0.7747  2.8224
   47CHL1   C23 5943   4.075   0.630   9.104  0.0306 -0.2553  0.3751
   47CHL1  H23A 5944   3.984   0.605   9.045 -0.4720  1.7573  0.2381
   47CHL1  H23B 5945   4.066   0.741   9.105 -0.9724 -0.3064 -1.1133
   47CHL1   C24 5946   4.208   0.591   9.037  0.0172  0.1594  0.2697
   47CHL1  H24A 5947   4.281   0.670   9.065 -2.4320  2.3549  0.6230
   47CHL1  H24B 5948   4.244   0.489   9.058  0.8227  0.3422 -0.2168
   47CHL1   C25 5949   4.214   0.608   8.882 -0.4600  0.3143 -0.5325
   47CHL1   H25 5950   4.138   0.539   8.839 -0.5484  1.2371 -1.8595
   47CHL1   C26 5951   4.176   0.748   8.835  0.6270  0.0303 -0.1743
   47CHL1  H26A 5952   4.245   0.821   8.882  0.0964  0.5653 -0.2085
   47CHL1  H26B 5953   4.067   0.770   8.843  0.4727 -0.6991 -0.2731
   47CHL1  H26C 5954   4.199   0.770   8.728  2.1258 -2.6574 -0.4252
   47CHL1   C27 5955   4.350   0.565   8.823 -0.9678 -0.3044  0.5849
   47CHL1  H27A 5956   4.374   0.457   8.835  1.0142  0.1201  0.5883
   47CHL1  H27B 5957   4.346   0.576   8.713 -0.0048  0.4394  0.6154
   47CHL1  H27C 5958   4.437   0.624   8.859 -0.7007 -0.2469 -0.1425
   48CHL1    C3 5959   4.886   0.891  10.154  0.3100 -0.3699 -0.0263
   48CHL1    H3 5960   4.941   0.795  10.167  1.1694  0.0732 -0.3460
   48CHL1    O3 5961   4.864   0.945  10.282 -0.0033 -0.0243  0.1645
   48CHL1   H3' 5962   4.771   0.968  10.282  0.1435  0.6090 -0.7936
   48CHL1    C4 5963   4.962   0.992  10.063  0.3337 -0.1446 -0.0768
   48CHL1   H4A 5964   4.916   1.090  10.091 -0.3394  0.6162 -3.5838
   48CHL1   H4B 5965   5.066   1.005  10.100  0.5127 -0.2903 -0.5316
   48CHL1    C5 5966   4.955   0.963   9.917  0.9105 -0.4141  0.4701
   48CHL1    C6 5967   5.064   0.956   9.846 -0.2971 -0.1820  0.3312
   48CHL1    H6 5968   5.156   0.986   9.899 -0.0532  0.6484 -0.5638
   48CHL1    C7 5969   5.066   0.934   9.696  0.1696  0.5974  0.0598
   48CHL1   H7A 5970   5.140   0.995   9.640  2.3727 -2.2699 -0.2796
   48CHL1   H7B 5971   5.086   0.827   9.671 -2.1426  0.1523 -0.0644
   48CHL1    C8 5972   4.924   0.961   9.632 -0.3490  0.2952  0.2972
   48CHL1    H8 5973   4.909   1.070   9.625 -1.2990  0.4023  3.3272
   48CHL1   C14 5974   4.918   0.902   9.493 -0.0300  0.1130  0.2039
   48CHL1   H14 5975   4.926   0.792   9.498  3.6548  0.1577 -2.5799
   48CHL1   C15 5976   5.025   0.953   9.393 -0.3390  0.9699 -0.1200
   48CHL1  H15A 5977   5.041   1.062   9.406 -0.4026  1.0272 -0.4971
   48CHL1  H15B 5978   5.121   0.900   9.415 -0.9774 -0.1316  0.0231
   48CHL1   C16 5979   4.971   0.911   9.253 -0.1288 -0.0658 -0.1489
   48CHL1  H16A 5980   4.977   1.001   9.188  0.2826  0.2422  0.3073
   48CHL1  H16B 5981   5.031   0.823   9.222 -0.8281  0.0099 -1.7398
   48CHL1   C17 5982   4.821   0.872   9.278 -0.1222 -0.3344  0.8236
   48CHL1   H17 5983   4.809   0.763   9.298  0.3482 -0.6420 -0.5416
   48CHL1   C13 5984   4.784   0.932   9.418 -0.5653  0.5646 -0.2441
   48CHL1   C18 5985   4.766   1.089   9.400 -0.5644  0.4956  0.3667
   48CHL1  H18A 5986   4.764   1.143   9.497 -1.3082  0.4719  0.3722
   48CHL1  H18B 5987   4.851   1.128   9.340 -1.1915  2.1553  0.5477
   48CHL1  H18C 5988   4.674   1.116   9.344 -0.8944  1.9824  1.5922
   48CHL1   C12 5989   4.671   0.873   9.493  0.0674  0.7189  0.5914
   48CHL1  H12A 5990   4.576   0.909   9.449  0.7708  1.2929 -0.4613
   48CHL1  H12B 5991   4.682   0.764   9.477 -0.5831  0.4473  1.8780
   48CHL1   C11 5992   4.677   0.910   9.638 -0.5836 -0.5032  0.9044
   48CHL1  H11A 5993   4.629   1.010   9.646  1.6597  0.3375  5.0797
   48CHL1  H11B 5994   4.617   0.833   9.690  0.4202 -0.6503  1.8666
   48CHL1    C9 5995   4.813   0.895   9.716 -0.2463 -0.7351  0.5161
   48CHL1    H9 5996   4.843   0.788   9.708  2.3486  0.0385 -0.7300
   48CHL1   C10 5997   4.807   0.941   9.862 -0.4456 -0.0602 -0.8697
   48CHL1   C19 5998   4.736   1.081   9.874 -0.4470 -0.3971  0.4757
   48CHL1  H19A 5999   4.785   1.152   9.804 -2.6787  1.0517  0.3511
   48CHL1  H19B 6000   4.631   1.061   9.844 -0.4362 -1.0665  0.8806
   48CHL1  H19C 6001   4.743   1.115   9.980  0.6756  0.4928  0.1277
   48CHL1    C1 6002   4.732   0.836   9.952 -0.0671 -0.2658  0.3687
   48CHL1   H1A 6003   4.625   0.814   9.929 -0.2928 -0.6049  1.6919
   48CHL1   H1B 6004   4.778   0.737   9.935 -0.7385 -0.3635 -0.8999
   48CHL1    C2 6005   4.742   0.865  10.103  0.2946  0.2785 -0.7624
   48CHL1   H2A 6006   4.701   0.776  10.156  1.9186 -1.2175 -1.9743
   48CHL1   H2B 6007   4.689   0.962  10.115 -1.2217 -0.9700  3.2720
   48CHL1   C20 6008   4.737   0.910   9.159  0.1404 -0.5264 -0.1003
   48CHL1   H20 6009   4.749   1.020   9.145 -0.8655 -0.1552  1.8098
   48CHL1   C21 6010   4.593   0.874   9.173 -0.5070  0.2684  0.1854
   48CHL1  H21A 6011   4.545   0.954   9.233 -2.9085 -1.4648  0.6481
   48CHL1  H21B 6012   4.576   0.774   9.217 -0.7485  1.1148  2.0442
   48CHL1  H21C 6013   4.539   0.887   9.077  0.1913  0.6186 -0.1692
   48CHL1   C22 6014   4.791   0.832   9.029 -0.6055  0.1852  0.2319
   48CHL1  H22A 6015   4.901   0.847   9.027 -0.1060 -3.0303 -0.5974
   48CHL1  H22B 6016   4.765   0.724   9.035  0.9242 -0.2087  0.1189
   48CHL1   C23 6017   4.735   0.902   8.902 -0.8405  0.0690 -0.1870
   48CHL1  H23A 6018   4.627   0.888   8.879 -1.3003 -1.0630  2.4992
   48CHL1  H23B 6019   4.759   1.010   8.917  0.1103 -0.0043 -1.0815
   48CHL1   C24 6020   4.811   0.837   8.785  0.2207  0.2490  0.9315
   48CHL1  H24A 6021   4.920   0.836   8.809  0.1729  0.6857  1.1677
   48CHL1  H24B 6022   4.775   0.735   8.759 -0.8037  0.9014 -0.2327
   48CHL1   C25 6023   4.796   0.915   8.647 -0.5350  0.3395 -0.4838
   48CHL1   H25 6024   4.692   0.908   8.609 -0.0693  0.7297 -1.8765
   48CHL1   C26 6025   4.818   1.071   8.655  0.4079  0.2496  0.7025
   48CHL1  H26A 6026   4.730   1.119   8.702 -0.0611  1.2733 -1.1622
   48CHL1  H26B 6027   4.910   1.088   8.716  2.1238 -2.6413 -0.9579
   48CHL1  H26C 6028   4.828   1.124   8.557 -0.6232 -1.1341 -0.1595
   48CHL1   C27 6029   4.892   0.859   8.541  0.2971 -0.2339  0.1228
   48CHL1  H27A 6030   4.998   0.878   8.570  0.2690  0.2285 -0.0772
   48CHL1  H27B 6031   4.889   0.748   8.544  1.9951 -0.2612  2.6206
   48CHL1  H27C 6032   4.866   0.892   8.438  1.1289  2.2862  0.6761
   49CHL1    C3 6033   2.196   3.190  10.255 -0.7990  1.0583  0.7390
   49CHL1    H3 6034   2.180   3.080  10.255  0.2955  0.8913  0.4204
   49CHL1    O3 6035   2.208   3.230  10.388  0.0250 -0.3134  0.0225
   49CHL1   H3' 6036   2.264   3.307  10.395  1.5228 -1.4060  0.2673
   49CHL1    C4 6037   2.334   3.229  10.193 -0.0906 -0.2072 -0.0132
   49CHL1   H4A 6038   2.366   3.331  10.221  0.1823  0.1380 -1.5897
   49CHL1   H4B 6039   2.400   3.156  10.246 -1.4872 -2.1189 -0.8497
   49CHL1    C5 6040   2.332   3.201  10.043 -0.6925  0.4883 -0.8340
   49CHL1    C6 6041   2.435   3.127   9.990 -0.4337 -0.3687  0.5976
   49CHL1    H6 6042   2.519   3.089  10.051 -0.6075  0.2256  1.2096
   49CHL1    C7 6043   2.436   3.098   9.842 -0.2140  0.2017 -0.5327
   49CHL1   H7A 6044   2.538   3.113   9.801  0.1495  0.1117  0.3107
   49CHL1   H7B 6045   2.414   2.990   9.830 -1.1124  0.2316  0.7077
   49CHL1    C8 6046   2.338   3.179   9.756 -0.2156 -0.0615 -0.5533
   49CHL1    H8 6047   2.387   3.278   9.744 -1.0440  0.8349  3.0766
   49CHL1   C14 6048   2.322   3.109   9.620  0.3635  0.1073 -0.0697
   49CHL1   H14 6049   2.263   3.016   9.637 -1.3857  1.3219  0.7087
   49CHL1   C15 6050   2.448   3.071   9.535  0.4144 -0.0003  0.4117
   49CHL1  H15A 6051   2.533   3.143   9.543  0.7466 -0.3669  0.2022
   49CHL1  H15B 6052   2.486   2.972   9.567  2.0728  0.2708 -0.6486
   49CHL1   C16 6053   2.400   3.061   9.388  0.3103 -0.1207  0.5078
   49CHL1  H16A 6054   2.466   3.133   9.334 -0.5362  0.5665  0.3653
   49CHL1  H16B 6055   2.413   2.958   9.351 -1.6499 -0.1049 -0.2943
   49CHL1   C17 6056   2.251   3.098   9.389 -0.4410 -0.2723  0.5523
   49CHL1   H17 6057   2.193   3.006   9.412 -1.5777  1.0080  3.0409
   49CHL1   C13 6058   2.233   3.182   9.517  0.0482 -0.5921  0.8252
   49CHL1   C18 6059   2.288   3.329   9.494  0.3898 -0.2006  0.8159
   49CHL1  H18A 6060   2.233   3.377   9.410  0.5036 -1.3896  0.0420
   49CHL1  H18B 6061   2.264   3.387   9.586  1.1729  0.1730  0.7853
   49CHL1  H18C 6062   2.396   3.324   9.470  0.3593  2.1757  0.0484
   49CHL1   C12 6063   2.095   3.192   9.585 -0.9065  0.4156  0.6185
   49CHL1  H12A 6064   2.025   3.259   9.531 -0.4185 -2.1269 -3.3938
   49CHL1  H12B 6065   2.051   3.090   9.583 -0.8103  0.3535  1.5705
   49CHL1   C11 6066   2.097   3.249   9.727  0.1100  0.0718  0.0383
   49CHL1  H11A 6067   2.118   3.358   9.725  2.2126 -0.3340 -0.3094
   49CHL1  H11B 6068   1.994   3.242   9.770  0.8264  0.1316  1.8202
   49CHL1    C9 6069   2.203   3.197   9.826  0.3605  1.0138  0.0401
   49CHL1    H9 6070   2.169   3.094   9.849 -2.0917  2.0204  1.1455
   49CHL1   C10 6071   2.209   3.262   9.967  0.0366  0.8637 -0.1934
   49CHL1   C19 6072   2.233   3.411   9.954  0.2198  0.5706  0.1344
   49CHL1  H19A 6073   2.318   3.430   9.886  0.2232  0.3062  0.0656
   49CHL1  H19B 6074   2.144   3.457   9.905 -1.5362 -0.4070  2.3480
   49CHL1  H19C 6075   2.237   3.463  10.052  1.0316  1.3978 -0.3315
   49CHL1    C1 6076   2.076   3.229  10.043  0.1776 -0.1575 -0.2385
   49CHL1   H1A 6077   1.990   3.284   9.998 -0.7821 -0.1457  1.5951
   49CHL1   H1B 6078   2.045   3.122  10.036  0.3254 -0.2316  0.3037
   49CHL1    C2 6079   2.078   3.266  10.187 -0.4911 -0.0808 -0.0362
   49CHL1   H2A 6080   1.989   3.227  10.241 -0.3746 -0.9627 -0.4724
   49CHL1   H2B 6081   2.103   3.373  10.205  0.4267 -0.2163 -0.4610
   49CHL1   C20 6082   2.212   3.150   9.253  0.4049 -0.5046 -0.4871
   49CHL1   H20 6083   2.272   3.238   9.224  0.6557  0.1608  1.9768
   49CHL1   C21 6084   2.060   3.184   9.240  0.7322  0.6185  0.0091
   49CHL1  H21A 6085   2.027   3.254   9.320  0.6938  0.2279  0.3383
   49CHL1  H21B 6086   2.006   3.090   9.267  0.4128  0.2624 -1.7870
   49CHL1  H21C 6087   2.030   3.221   9.139  0.2865  0.7004  0.1696
   49CHL1   C22 6088   2.248   3.054   9.131  0.3140 -0.1959  0.5190
   49CHL1  H22A 6089   2.356   3.029   9.127  0.0173 -1.2545 -1.9775
   49CHL1  H22B 6090   2.191   2.960   9.141  0.7041 -0.6554 -1.3702
   49CHL1   C23 6091   2.227   3.120   8.992  0.8522 -0.0319  0.3125
   49CHL1  H23A 6092   2.127   3.164   8.968  2.5242  4.0969  0.5320
   49CHL1  H23B 6093   2.286   3.214   8.994  0.6370  0.1144 -0.1700
   49CHL1   C24 6094   2.286   3.041   8.875  0.2070  0.6323  0.5121
   49CHL1  H24A 6095   2.395   3.027   8.895 -0.2375 -1.1802  1.7347
   49CHL1  H24B 6096   2.242   2.940   8.870  0.6065  0.4167  1.2649
   49CHL1   C25 6097   2.275   3.101   8.730 -0.6656 -0.7578 -0.6278
   49CHL1   H25 6098   2.324   3.201   8.735  1.1153 -1.7044  2.2874
   49CHL1   C26 6099   2.357   3.014   8.633  0.1596  1.2036  0.3509
   49CHL1  H26A 6100   2.463   3.005   8.666  0.6522  0.2329 -1.4176
   49CHL1  H26B 6101   2.314   2.912   8.632 -1.8623  2.0247 -0.2943
   49CHL1  H26C 6102   2.345   3.046   8.528  1.2263  0.1726 -0.0880
   49CHL1   C27 6103   2.128   3.117   8.688  0.2377 -0.3248 -0.5583
   49CHL1  H27A 6104   2.079   3.017   8.693  0.0817 -0.1618  1.4289
   49CHL1  H27B 6105   2.078   3.184   8.761 -1.5810 -2.3846  0.1343
   49CHL1  H27C 6106   2.110   3.163   8.589  1.7004  0.3379 -0.5371
   50CHL1    C3 6107   5.801   5.463  10.347 -0.2183  0.6870 -0.8175
   50CHL1    H3 6108   5.709   5.405  10.322 -0.1452  0.3996 -0.4254
   50CHL1    O3 6109   5.803   5.497  10.481 -0.0877  0.3960 -0.6426
   50CHL1   H3' 6110   5.859   5.575  10.482 -1.0522  1.1025  0.9802
   50CHL1    C4 6111   5.928   5.379  10.311  0.4660  0.3794 -0.2831
   50CHL1   H4A 6112   6.013   5.427  10.364  1.6125 -1.2424 -0.6301
   50CHL1   H4B 6113   5.926   5.277  10.355 -2.8125  0.3106 -0.4817
   50CHL1    C5 6114   5.942   5.356  10.161 -0.3243 -0.0102  0.8419
   50CHL1    C6 6115   5.960   5.233  10.106 -0.5109  0.4806 -0.1997
   50CHL1    H6 6116   5.959   5.139  10.163 -1.4692  1.4544  1.4232
   50CHL1    C7 6117   6.004   5.218   9.962  0.4657  0.0911  0.1871
   50CHL1   H7A 6118   6.093   5.152   9.969 -0.3505 -1.0698 -0.2003
   50CHL1   H7B 6119   5.919   5.158   9.921  1.1145 -0.6891 -0.0251
   50CHL1    C8 6120   6.034   5.349   9.887 -0.5487 -0.1638 -0.1853
   50CHL1    H8 6121   6.133   5.386   9.921 -0.4763 -0.4398 -0.0955
   50CHL1   C14 6122   6.046   5.322   9.736  0.5410  0.0539  0.0688
   50CHL1   H14 6123   5.944   5.291   9.705  0.9019  0.8774 -2.0249
   50CHL1   C15 6124   6.139   5.217   9.682 -0.3187 -0.1989  0.5508
   50CHL1  H15A 6125   6.242   5.235   9.719 -1.5056  2.3336  2.8183
   50CHL1  H15B 6126   6.111   5.113   9.706  1.3812 -0.7221  0.3273
   50CHL1   C16 6127   6.140   5.247   9.533 -0.2246 -0.0082 -0.4102
   50CHL1  H16A 6128   6.247   5.239   9.506  0.4176 -1.5285  2.4198
   50CHL1  H16B 6129   6.083   5.172   9.475 -1.8466 -0.5575  1.7979
   50CHL1   C17 6130   6.068   5.390   9.520 -0.3135 -0.1729 -0.0942
   50CHL1   H17 6131   5.959   5.378   9.507 -0.5715  1.4851  0.3765
   50CHL1   C13 6132   6.078   5.451   9.661  0.1786  0.5409  0.2030
   50CHL1   C18 6133   6.219   5.508   9.695 -0.6541 -0.4987 -0.7306
   50CHL1  H18A 6134   6.235   5.601   9.636 -0.9821  0.9980  1.4709
   50CHL1  H18B 6135   6.233   5.524   9.804 -1.7758 -1.9527 -0.3619
   50CHL1  H18C 6136   6.285   5.425   9.662 -0.6337 -0.6727 -0.2560
   50CHL1   C12 6137   5.970   5.557   9.692  0.4065 -0.2304 -0.5520
   50CHL1  H12A 6138   5.993   5.657   9.652 -3.0550 -0.0230 -2.1289
   50CHL1  H12B 6139   5.873   5.524   9.650 -0.7941  1.8739  0.5298
   50CHL1   C11 6140   5.961   5.585   9.847  0.6566  0.2933 -0.4484
   50CHL1  H11A 6141   6.059   5.626   9.878  1.5139 -0.9034 -1.5281
   50CHL1  H11B 6142   5.877   5.658   9.856 -0.1213 -0.5853 -0.3884
   50CHL1    C9 6143   5.937   5.464   9.930  1.0925  0.0038  0.8719
   50CHL1    H9 6144   5.839   5.420   9.901  2.4861 -1.6699 -1.4929
   50CHL1   C10 6145   5.942   5.488  10.077 -0.0905 -0.1608 -0.2984
   50CHL1   C19 6146   6.065   5.565  10.133 -0.5910  0.0341  0.6602
   50CHL1  H19A 6147   6.053   5.601  10.237 -0.5154 -2.2515  1.4868
   50CHL1  H19B 6148   6.165   5.517  10.125  1.4411  4.1481 -0.1863
   50CHL1  H19C 6149   6.078   5.666  10.088 -1.4867 -0.3167 -0.3980
   50CHL1    C1 6150   5.819   5.571  10.115 -0.7333 -0.4094 -0.7982
   50CHL1   H1A 6151   5.818   5.671  10.068  0.0125 -0.1271 -0.2410
   50CHL1   H1B 6152   5.721   5.535  10.077 -1.8924 -0.4666  2.0666
   50CHL1    C2 6153   5.794   5.596  10.271  0.2056 -0.3523 -0.3864
   50CHL1   H2A 6154   5.698   5.650  10.287  0.3447  0.0772 -0.9862
   50CHL1   H2B 6155   5.871   5.665  10.313 -0.7017 -1.4345  3.2633
   50CHL1   C20 6156   6.119   5.478   9.403 -1.1393  0.2710  0.2671
   50CHL1   H20 6157   6.213   5.529   9.435  0.0158 -1.4883 -0.2344
   50CHL1   C21 6158   6.032   5.598   9.365 -0.1913 -0.3487  0.4814
   50CHL1  H21A 6159   5.927   5.567   9.347  0.4337 -1.4785 -1.3334
   50CHL1  H21B 6160   6.076   5.633   9.269 -1.8924 -1.3401 -0.6752
   50CHL1  H21C 6161   6.035   5.680   9.440 -0.7500 -0.3760  0.5321
   50CHL1   C22 6162   6.156   5.401   9.274  1.3081 -0.2748 -0.0964
   50CHL1  H22A 6163   6.182   5.474   9.194  1.1202  1.8093  1.6892
   50CHL1  H22B 6164   6.249   5.343   9.292  1.5812  0.3723  0.5711
   50CHL1   C23 6165   6.038   5.329   9.206 -0.3997  0.4098  0.2230
   50CHL1  H23A 6166   5.983   5.279   9.288  0.9245 -2.0570 -0.3211
   50CHL1  H23B 6167   5.966   5.387   9.144 -2.2746 -0.3553  1.6625
   50CHL1   C24 6168   6.083   5.211   9.109  0.1540 -0.4032  0.0639
   50CHL1  H24A 6169   6.149   5.152   9.176 -0.6095 -0.5408  0.7070
   50CHL1  H24B 6170   5.997   5.145   9.082  0.5459 -1.2265  0.7821
   50CHL1   C25 6171   6.161   5.256   8.982  0.2146  0.1651 -0.4226
   50CHL1   H25 6172   6.259   5.301   9.009  1.1513 -2.0645  0.0118
   50CHL1   C26 6173   6.193   5.124   8.908 -0.3351  0.7575  0.2008
   50CHL1  H26A 6174   6.249   5.047   8.966  1.2591  1.8803  0.1865
   50CHL1  H26B 6175   6.102   5.076   8.866  0.2291  0.2878 -0.4975
   50CHL1  H26C 6176   6.258   5.144   8.820 -1.2229  2.0603 -0.1733
   50CHL1   C27 6177   6.086   5.353   8.893 -0.7213 -0.2604  0.5379
   50CHL1  H27A 6178   5.988   5.308   8.869  0.5683 -2.5702 -0.6064
   50CHL1  H27B 6179   6.067   5.455   8.932  1.3790  0.4983 -0.3643
   50CHL1  H27C 6180   6.138   5.368   8.796 -1.2532 -0.8802  0.1498
   51CHL1    C3 6181   0.100   0.966  10.094  0.7229  0.1314 -0.8510
   51CHL1    H3 6182   0.152   1.057  10.055 -1.6758  0.8501 -2.4790
   51CHL1    O3 6183   0.080   0.969  10.231 -0.1661  0.1208  0.0478
   51CHL1   H3' 6184  -0.001   0.920  10.242  0.6290 -0.8564  1.7710
   51CHL1    C4 6185  -0.042   0.945  10.033 -0.2056  0.6680 -0.2556
   51CHL1   H4A 6186  -0.083   0.849  10.070 -0.0291  0.7995  0.2773
   51CHL1   H4B 6187  -0.114   1.022  10.068  0.2580  1.2701 -0.6084
   51CHL1    C5 6188  -0.031   0.924   9.882  0.1148 -0.2303 -0.6276
   51CHL1    C6 6189  -0.099   1.005   9.798 -0.4549  0.4408 -0.3256
   51CHL1    H6 6190  -0.165   1.087   9.829  0.7587  1.6778 -0.9644
   51CHL1    C7 6191  -0.080   0.995   9.649 -0.2329  0.2409  0.5976
   51CHL1   H7A 6192  -0.181   1.013   9.607 -1.3206 -0.0705  3.0082
   51CHL1   H7B 6193  -0.013   1.073   9.607  0.4706 -1.7250 -2.0914
   51CHL1    C8 6194  -0.022   0.861   9.596 -0.7461  0.4070  0.5669
   51CHL1    H8 6195  -0.110   0.794   9.602  0.1670 -0.7197  1.6881
   51CHL1   C14 6196   0.018   0.864   9.453  0.2161 -0.1441 -0.0008
   51CHL1   H14 6197   0.107   0.930   9.458  0.7768 -0.7713 -1.4461
   51CHL1   C15 6198  -0.080   0.920   9.341  0.2426  0.1549 -0.2848
   51CHL1  H15A 6199  -0.184   0.891   9.369  1.0023  0.2264  2.8510
   51CHL1  H15B 6200  -0.076   1.030   9.358 -0.9763  0.2712 -0.6729
   51CHL1   C16 6201  -0.018   0.863   9.212 -0.3027 -0.2658 -0.4747
   51CHL1  H16A 6202  -0.096   0.809   9.154 -2.3219  1.6984  0.3299
   51CHL1  H16B 6203   0.025   0.945   9.152  1.0745  0.0419  0.9022
   51CHL1   C17 6204   0.094   0.765   9.255 -0.0004  0.7193  0.4618
   51CHL1   H17 6205   0.186   0.826   9.261  0.9149 -0.7733  2.2024
   51CHL1   C13 6206   0.073   0.739   9.403  0.4216  0.2286  0.2688
   51CHL1   C18 6207  -0.024   0.620   9.417  0.5228  0.2089  0.2579
   51CHL1  H18A 6208  -0.107   0.641   9.345 -0.1741  0.0043  0.9962
   51CHL1  H18B 6209   0.016   0.528   9.370 -0.5879 -1.3984  2.3719
   51CHL1  H18C 6210  -0.061   0.602   9.520 -0.2387 -1.7143 -0.3386
   51CHL1   C12 6211   0.210   0.715   9.474  0.4469  0.4340  0.0707
   51CHL1  H12A 6212   0.267   0.625   9.442 -1.6497  0.1130 -2.9131
   51CHL1  H12B 6213   0.274   0.805   9.462  0.4281  0.6296  1.3156
   51CHL1   C11 6214   0.175   0.703   9.629 -0.2320 -0.5857 -0.1092
   51CHL1  H11A 6215   0.128   0.605   9.652  0.8917 -0.6844  1.8993
   51CHL1  H11B 6216   0.273   0.702   9.680  0.3662 -2.2298 -1.2235
   51CHL1    C9 6217   0.091   0.818   9.688 -0.6297 -0.6961  0.2247
   51CHL1    H9 6218   0.155   0.908   9.680  0.9284 -1.9000 -1.2969
   51CHL1   C10 6219   0.067   0.813   9.830  0.7993  0.2209 -0.2469
   51CHL1   C19 6220  -0.010   0.685   9.879  0.5636  0.1876 -0.0811
   51CHL1  H19A 6221  -0.117   0.681   9.850  0.2085 -1.5165  1.4025
   51CHL1  H19B 6222   0.044   0.596   9.841 -1.0322  0.3656 -2.9946
   51CHL1  H19C 6223  -0.019   0.683   9.989 -0.2076  0.3297 -0.1395
   51CHL1    C1 6224   0.205   0.823   9.909  0.8039  0.3350 -0.2392
   51CHL1   H1A 6225   0.256   0.728   9.884 -0.0230 -0.1679 -0.0203
   51CHL1   H1B 6226   0.278   0.895   9.864  1.5615  2.3611  3.9414
   51CHL1    C2 6227   0.195   0.852  10.063 -0.1219  0.3258 -1.0138
   51CHL1   H2A 6228   0.296   0.873  10.104 -0.5658  2.7979 -1.1011
   51CHL1   H2B 6229   0.150   0.762  10.110 -1.9650  2.1086  0.7703
   51CHL1   C20 6230   0.116   0.640   9.159 -1.0747  0.3145  0.1582
   51CHL1   H20 6231   0.157   0.561   9.226  3.6202  2.4396 -0.0261
   51CHL1   C21 6232   0.232   0.669   9.062 -0.6923 -0.2054 -0.9204
   51CHL1  H21A 6233   0.301   0.743   9.109  1.1299 -3.3766  1.6572
   51CHL1  H21B 6234   0.189   0.713   8.970 -1.3146 -1.8884 -1.4469
   51CHL1  H21C 6235   0.281   0.572   9.039 -0.1147 -0.1836  0.1539
   51CHL1   C22 6236  -0.013   0.582   9.085 -0.5749  0.6373 -0.3249
   51CHL1  H22A 6237  -0.096   0.576   9.159  0.8938 -0.6960  1.2578
   51CHL1  H22B 6238  -0.035   0.663   9.012 -1.8420 -0.6206 -1.3330
   51CHL1   C23 6239  -0.015   0.452   9.018  0.3723 -0.0631  0.0065
   51CHL1  H23A 6240   0.070   0.457   8.946  0.7661  2.7634  0.6163
   51CHL1  H23B 6241   0.012   0.375   9.094  3.6441  0.5643 -0.4560
   51CHL1   C24 6242  -0.147   0.414   8.945 -0.5440 -0.2821 -0.4727
   51CHL1  H24A 6243  -0.232   0.428   9.015 -0.3066 -0.2931 -0.1803
   51CHL1  H24B 6244  -0.147   0.479   8.855  0.9899 -0.2232 -0.4421
   51CHL1   C25 6245  -0.181   0.274   8.900  0.2414 -0.8118 -0.7143
   51CHL1   H25 6246  -0.216   0.209   8.983  1.0322 -0.5649 -0.1848
   51CHL1   C26 6247  -0.287   0.273   8.786  0.6751 -0.1887  0.1868
   51CHL1  H26A 6248  -0.239   0.325   8.701  1.9067 -1.9480 -0.2220
   51CHL1  H26B 6249  -0.331   0.178   8.747  0.3683  0.5854 -1.3859
   51CHL1  H26C 6250  -0.380   0.330   8.809  0.0863 -1.0925  0.0835
   51CHL1   C27 6251  -0.046   0.202   8.850  0.6843 -0.0439 -0.6462
   51CHL1  H27A 6252   0.032   0.193   8.928  0.2034 -0.9436 -0.2616
   51CHL1  H27B 6253  -0.063   0.097   8.818  0.4977 -0.4679  0.8188
   51CHL1  H27C 6254  -0.006   0.267   8.770 -0.4579  2.2490  0.5969
   52CHL1    C3 6255   3.758   6.811  10.038 -0.3565 -0.0496 -0.5232
   52CHL1    H3 6256   3.772   6.921  10.042  3.1533 -0.4965  1.5682
   52CHL1    O3 6257   3.728   6.755  10.164  0.4390 -0.2930 -0.2483
   52CHL1   H3' 6258   3.632   6.763  10.172  0.5679  0.6486  0.3134
   52CHL1    C4 6259   3.655   6.755   9.949  0.4927  0.4956 -0.0275
   52CHL1   H4A 6260   3.660   6.644   9.953  1.0710  0.5478  0.8004
   52CHL1   H4B 6261   3.556   6.778   9.995 -0.0096  1.3390 -1.4989
   52CHL1    C5 6262   3.668   6.817   9.814 -0.3799 -0.1539 -0.4623
   52CHL1    C6 6263   3.576   6.907   9.766 -0.3588 -0.4986 -0.2340
   52CHL1    H6 6264   3.483   6.929   9.821 -0.1272  0.0081 -0.0401
   52CHL1    C7 6265   3.579   6.955   9.627  0.2902 -0.5421  0.4497
   52CHL1   H7A 6266   3.479   6.934   9.584 -0.0363  0.7693  0.5442
   52CHL1   H7B 6267   3.581   7.066   9.632 -2.0143 -0.4723  0.3470
   52CHL1    C8 6268   3.687   6.892   9.532 -0.0219  0.1278 -0.5235
   52CHL1    H8 6269   3.654   6.791   9.501  1.8411 -0.0535 -2.0120
   52CHL1   C14 6270   3.717   6.975   9.405  0.0167  0.5027  0.1094
   52CHL1   H14 6271   3.740   7.075   9.448  1.1847 -0.1454  1.0319
   52CHL1   C15 6272   3.597   6.990   9.308  0.5357  0.5772 -0.0165
   52CHL1  H15A 6273   3.549   6.893   9.285  3.0222 -0.9536  1.0481
   52CHL1  H15B 6274   3.525   7.063   9.351  0.8961  0.2924  1.1079
   52CHL1   C16 6275   3.656   7.042   9.177  0.5395  0.5728  0.0709
   52CHL1  H16A 6276   3.631   6.982   9.087  0.5472 -0.7510  0.9453
   52CHL1  H16B 6277   3.629   7.146   9.146 -0.3406  0.8985  1.8953
   52CHL1   C17 6278   3.812   7.025   9.195 -0.9887 -0.5442  0.3391
   52CHL1   H17 6279   3.842   7.122   9.241  0.4375 -0.9236  0.2225
   52CHL1   C13 6280   3.832   6.927   9.321  0.1537  0.2172 -0.6802
   52CHL1   C18 6281   3.823   6.781   9.278  0.1040  0.1766 -0.0687
   52CHL1  H18A 6282   3.725   6.762   9.230 -0.0243  0.0591  0.2390
   52CHL1  H18B 6283   3.902   6.742   9.210 -0.7826 -2.7223  0.5101
   52CHL1  H18C 6284   3.818   6.713   9.365  0.5930 -0.8578 -0.8330
   52CHL1   C12 6285   3.961   6.939   9.410 -0.2460  0.8555  0.5412
   52CHL1  H12A 6286   4.052   6.918   9.348 -1.7644 -2.0901 -0.8260
   52CHL1  H12B 6287   3.965   7.045   9.441  0.1852  1.0504 -0.1573
   52CHL1   C11 6288   3.952   6.852   9.540 -0.4694  0.1134  0.2576
   52CHL1  H11A 6289   3.971   6.747   9.509 -0.0897 -0.9337  3.8060
   52CHL1  H11B 6290   4.038   6.872   9.607  0.2769 -0.6549 -0.4579
   52CHL1    C9 6291   3.816   6.878   9.614 -0.6725 -0.0901  0.7035
   52CHL1    H9 6292   3.826   6.984   9.645  4.0857  0.0667 -0.9739
   52CHL1   C10 6293   3.803   6.783   9.743 -0.4149  0.2345 -0.1765
   52CHL1   C19 6294   3.803   6.635   9.698  0.8224  0.1866 -0.5590
   52CHL1  H19A 6295   3.744   6.617   9.605  1.8617  1.8877 -1.5601
   52CHL1  H19B 6296   3.903   6.595   9.671  0.4071 -0.6124 -0.9355
   52CHL1  H19C 6297   3.758   6.565   9.772  1.2205  0.3168 -0.1917
   52CHL1    C1 6298   3.915   6.823   9.843 -0.6502  0.1694 -0.2514
   52CHL1   H1A 6299   4.016   6.790   9.813 -0.6086  0.8900 -0.9144
   52CHL1   H1B 6300   3.937   6.932   9.835  0.4616  0.0143  0.5254
   52CHL1    C2 6301   3.899   6.764   9.982 -0.6595 -0.1604 -0.3555
   52CHL1   H2A 6302   3.981   6.797  10.048 -2.6382 -0.2016  2.2243
   52CHL1   H2B 6303   3.898   6.653   9.988 -3.1925 -0.1251  0.6491
   52CHL1   C20 6304   3.884   6.998   9.064 -0.1735 -0.9477  0.5016
   52CHL1   H20 6305   3.847   6.905   9.016 -1.3607 -1.1468  1.7737
   52CHL1   C21 6306   4.032   6.993   9.083 -0.7461  0.6823  0.1697
   52CHL1  H21A 6307   4.089   6.991   8.988 -1.6195 -0.2342 -0.3527
   52CHL1  H21B 6308   4.056   6.898   9.136 -0.1681 -0.6920 -2.5162
   52CHL1  H21C 6309   4.079   7.080   9.133 -0.2571  0.2376  0.4881
   52CHL1   C22 6310   3.857   7.117   8.956  0.2758  0.5514 -0.0648
   52CHL1  H22A 6311   3.750   7.122   8.927  0.4120 -2.0506 -1.0824
   52CHL1  H22B 6312   3.883   7.207   9.017  0.2537 -0.4959  1.5171
   52CHL1   C23 6313   3.945   7.121   8.831  0.1897  0.6020 -0.0134
   52CHL1  H23A 6314   4.042   7.172   8.846  0.4756  0.3763 -1.0070
   52CHL1  H23B 6315   3.975   7.018   8.800  0.0250  0.3780  0.5743
   52CHL1   C24 6316   3.863   7.185   8.718  0.4056 -0.5623  0.3354
   52CHL1  H24A 6317   3.761   7.142   8.720 -0.2778  1.0386  1.4312
   52CHL1  H24B 6318   3.862   7.294   8.739 -2.0678 -0.8934  2.0640
   52CHL1   C25 6319   3.896   7.154   8.574  0.1514 -0.0061  0.5817
   52CHL1   H25 6320   3.902   7.043   8.577 -0.3203 -0.0083  1.4381
   52CHL1   C26 6321   3.788   7.211   8.479 -0.0974  0.4700 -0.2967
   52CHL1  H26A 6322   3.780   7.321   8.493  0.6088  0.2864  1.7182
   52CHL1  H26B 6323   3.796   7.185   8.371 -2.5365 -0.7868 -0.2246
   52CHL1  H26C 6324   3.691   7.167   8.512  0.2639 -1.4783 -1.7114
   52CHL1   C27 6325   4.033   7.198   8.534 -0.2613  0.0485 -0.2921
   52CHL1  H27A 6326   4.054   7.157   8.432 -2.1777 -0.5215 -0.4820
   52CHL1  H27B 6327   4.039   7.308   8.524 -3.2670  0.2201 -0.4677
   52CHL1  H27C 6328   4.103   7.144   8.601 -1.0692 -0.9301 -0.2310
   53CHL1    C3 6329   4.695   6.237   9.905 -0.4991  0.6935  0.0370
   53CHL1    H3 6330   4.784   6.302   9.888  0.5879 -1.0639 -1.0702
   53CHL1    O3 6331   4.655   6.240  10.038 -0.0791  0.4518  0.0494
   53CHL1   H3' 6332   4.725   6.198  10.088 -0.9523 -1.4629 -0.2619
   53CHL1    C4 6333   4.582   6.301   9.820 -0.6306 -0.2564 -0.0969
   53CHL1   H4A 6334   4.487   6.248   9.844 -1.6442  0.7946 -1.6174
   53CHL1   H4B 6335   4.579   6.408   9.848  2.0610 -0.0993 -0.3551
   53CHL1    C5 6336   4.592   6.279   9.672 -0.3475 -0.4492  0.1140
   53CHL1    C6 6337   4.578   6.390   9.593 -0.0503  0.4945  0.3607
   53CHL1    H6 6338   4.549   6.485   9.641 -2.5135  0.0890 -0.2310
   53CHL1    C7 6339   4.563   6.383   9.446  0.6126 -0.8803  0.0807
   53CHL1   H7A 6340   4.461   6.412   9.413  0.6344  2.2226  2.4665
   53CHL1   H7B 6341   4.641   6.456   9.412 -1.7925  1.7544  0.0239
   53CHL1    C8 6342   4.588   6.235   9.386 -0.0958  0.5306 -0.2323
   53CHL1    H8 6343   4.489   6.186   9.394 -0.3470  0.8607 -1.2548
   53CHL1   C14 6344   4.658   6.237   9.243  0.0702  0.2182 -0.0698
   53CHL1   H14 6345   4.761   6.270   9.268 -0.7928  2.4474  0.7057
   53CHL1   C15 6346   4.600   6.335   9.138  0.3397  0.0608 -0.5892
   53CHL1  H15A 6347   4.489   6.329   9.140  0.3447 -0.5302 -1.6916
   53CHL1  H15B 6348   4.628   6.441   9.153  0.5983  0.0058 -0.6901
   53CHL1   C16 6349   4.642   6.270   9.002 -0.2887  0.4563  0.0948
   53CHL1  H16A 6350   4.550   6.240   8.947 -0.3465 -0.0830  0.4818
   53CHL1  H16B 6351   4.698   6.341   8.937 -0.7094  1.2644  0.5998
   53CHL1   C17 6352   4.731   6.146   9.036  0.0344  0.6486 -0.2609
   53CHL1   H17 6353   4.839   6.173   9.045  0.4076 -0.1409 -1.9880
   53CHL1   C13 6354   4.679   6.100   9.173  0.4105  0.0563 -0.5549
   53CHL1   C18 6355   4.543   6.021   9.150 -0.3617 -0.2565  0.1612
   53CHL1  H18A 6356   4.484   6.009   9.243 -0.7121 -1.7355 -0.2314
   53CHL1  H18B 6357   4.476   6.080   9.083  0.6358 -0.0440 -0.6592
   53CHL1  H18C 6358   4.559   5.921   9.103  0.5105 -0.3062  0.5674
   53CHL1   C12 6359   4.769   6.021   9.265 -0.6410 -0.2683 -0.0562
   53CHL1  H12A 6360   4.790   5.919   9.225 -0.3957  0.2475 -1.2683
   53CHL1  H12B 6361   4.869   6.067   9.278 -1.9584  2.3027  1.2481
   53CHL1   C11 6362   4.711   6.017   9.407  0.1048  0.4919  0.0157
   53CHL1  H11A 6363   4.621   5.953   9.401  1.1462 -0.9584 -0.2844
   53CHL1  H11B 6364   4.784   5.968   9.474 -1.0030  0.9837  1.6145
   53CHL1    C9 6365   4.682   6.150   9.475  0.4991 -0.4979 -1.0591
   53CHL1    H9 6366   4.777   6.206   9.490 -0.5717  0.9498  0.5611
   53CHL1   C10 6367   4.621   6.138   9.616 -0.1820 -0.5197 -0.1424
   53CHL1   C19 6368   4.499   6.059   9.620  0.2031  0.3639 -0.8027
   53CHL1  H19A 6369   4.459   6.062   9.724  2.5605  3.6973  0.0950
   53CHL1  H19B 6370   4.418   6.100   9.557  0.6361  0.9307 -0.9961
   53CHL1  H19C 6371   4.514   5.956   9.582  0.7251  1.1504 -2.7797
   53CHL1    C1 6372   4.731   6.071   9.707  0.2021  0.1357 -0.6313
   53CHL1   H1A 6373   4.747   5.965   9.679  0.3394  0.6857 -2.7182
   53CHL1   H1B 6374   4.825   6.124   9.679  0.6531  0.0332  0.6498
   53CHL1    C2 6375   4.722   6.090   9.857 -0.3234 -0.4442 -0.3089
   53CHL1   H2A 6376   4.818   6.048   9.895 -0.3075 -0.9890 -0.9481
   53CHL1   H2B 6377   4.643   6.023   9.899 -1.8787  0.4767 -1.7293
   53CHL1   C20 6378   4.738   6.041   8.921  0.7488 -0.0219 -0.5831
   53CHL1   H20 6379   4.640   5.990   8.910  1.1709 -1.2988  1.2443
   53CHL1   C21 6380   4.828   5.928   8.952  1.3196 -0.4500  0.3127
   53CHL1  H21A 6381   4.775   5.873   9.033 -0.2732 -0.2033 -0.5438
   53CHL1  H21B 6382   4.930   5.966   8.976  0.6124  1.4860  0.2579
   53CHL1  H21C 6383   4.838   5.859   8.864 -0.7058 -0.7219  0.2719
   53CHL1   C22 6384   4.772   6.096   8.781  0.6274  0.4477 -0.4466
   53CHL1  H22A 6385   4.762   6.006   8.716  2.0310 -1.7289  2.2221
   53CHL1  H22B 6386   4.700   6.172   8.745  0.4907  0.8024  0.5822
   53CHL1   C23 6387   4.918   6.150   8.775 -0.1609 -0.4412 -0.5323
   53CHL1  H23A 6388   4.941   6.220   8.858  0.0297 -0.6742 -0.3876
   53CHL1  H23B 6389   4.987   6.064   8.774 -0.3230 -0.5694 -1.0427
   53CHL1   C24 6390   4.940   6.232   8.647 -0.2841 -0.1800 -0.0174
   53CHL1  H24A 6391   4.895   6.182   8.559 -0.8692  0.6136 -0.1686
   53CHL1  H24B 6392   4.877   6.323   8.654  1.6354  1.3121 -1.3820
   53CHL1   C25 6393   5.079   6.281   8.620 -0.4787 -0.1585 -0.1915
   53CHL1   H25 6394   5.107   6.334   8.714  1.1207 -1.3215  0.0084
   53CHL1   C26 6395   5.183   6.166   8.611  0.3255 -0.0264 -0.0329
   53CHL1  H26A 6396   5.187   6.116   8.511  1.2947  0.6058 -0.3209
   53CHL1  H26B 6397   5.282   6.217   8.613  0.4241 -0.2871  1.9121
   53CHL1  H26C 6398   5.164   6.087   8.686  0.7405 -2.6528 -2.5973
   53CHL1   C27 6399   5.093   6.395   8.519  0.4135  0.2691 -0.0679
   53CHL1  H27A 6400   5.064   6.361   8.417  0.1913  2.3417 -0.7375
   53CHL1  H27B 6401   5.021   6.473   8.552  0.4553 -0.2857  1.3374
   53CHL1  H27C 6402   5.199   6.426   8.514  0.9050 -1.1342  1.4291
   54CHL1    C3 6403   4.717   0.500  10.320  0.5022  0.0378 -0.1705
   54CHL1    H3 6404   4.708   0.609  10.297  2.2201  0.4872  1.0940
   54CHL1    O3 6405   4.717   0.471  10.462  0.6089  0.6722  0.1783
   54CHL1   H3' 6406   4.790   0.524  10.496  0.9003  1.0830 -1.0243
   54CHL1    C4 6407   4.597   0.425  10.252 -0.3512 -0.5800 -0.3526
   54CHL1   H4A 6408   4.619   0.319  10.277  2.7020  0.3375  1.0068
   54CHL1   H4B 6409   4.499   0.450  10.299 -0.5178 -2.8895  0.6011
   54CHL1    C5 6410   4.601   0.445  10.100 -0.0102 -0.0153  0.2464
   54CHL1    C6 6411   4.494   0.498  10.034  0.4501  0.4789  0.3147
   54CHL1    H6 6412   4.404   0.527  10.090 -0.2346  2.5692 -1.8324
   54CHL1    C7 6413   4.483   0.508   9.880  0.0747 -0.3972  0.0598
   54CHL1   H7A 6414   4.377   0.490   9.853  0.2806  0.5630 -1.4472
   54CHL1   H7B 6415   4.491   0.614   9.847 -2.5353  1.3411  4.5687
   54CHL1    C8 6416   4.584   0.415   9.811 -0.2310 -0.2624 -0.3704
   54CHL1    H8 6417   4.549   0.309   9.811 -1.2792  0.0694  0.5348
   54CHL1   C14 6418   4.593   0.461   9.665  0.0347 -0.0280  0.8586
   54CHL1   H14 6419   4.625   0.567   9.671 -2.1234  0.7181 -0.2690
   54CHL1   C15 6420   4.467   0.458   9.576 -0.4059 -0.1141 -0.0073
   54CHL1  H15A 6421   4.408   0.366   9.598  0.3536 -1.1362 -2.1424
   54CHL1  H15B 6422   4.403   0.545   9.603  0.9156  1.1837 -0.9771
   54CHL1   C16 6423   4.519   0.460   9.435  1.0781  0.0884  0.6835
   54CHL1  H16A 6424   4.480   0.371   9.381 -1.4675  1.9231 -0.5471
   54CHL1  H16B 6425   4.487   0.553   9.384 -0.9221 -1.5146 -1.0508
   54CHL1   C17 6426   4.676   0.453   9.443 -0.7848 -0.2531  0.6395
   54CHL1   H17 6427   4.715   0.554   9.467  1.4216 -0.9624  0.1922
   54CHL1   C13 6428   4.701   0.392   9.583  0.1156  0.1467 -0.6568
   54CHL1   C18 6429   4.680   0.241   9.575 -0.2573 -0.4874  0.4787
   54CHL1  H18A 6430   4.668   0.186   9.671  4.3103  0.1372  1.5282
   54CHL1  H18B 6431   4.596   0.214   9.508  1.0036 -0.3001 -1.1975
   54CHL1  H18C 6432   4.764   0.182   9.532 -2.0009 -1.2409 -2.0237
   54CHL1   C12 6433   4.835   0.424   9.651 -0.2833  0.6711  1.1995
   54CHL1  H12A 6434   4.915   0.373   9.592 -1.1811  0.1428  0.4190
   54CHL1  H12B 6435   4.855   0.533   9.647  4.6443 -0.0772  1.9051
   54CHL1   C11 6436   4.841   0.380   9.793  0.1617 -0.0871  0.6928
   54CHL1  H11A 6437   4.857   0.271   9.809  1.7672 -0.0655 -0.6303
   54CHL1  H11B 6438   4.932   0.431   9.831  0.4787 -0.9404  1.1000
   54CHL1    C9 6439   4.723   0.435   9.873  0.1905  0.3461  0.0355
   54CHL1    H9 6440   4.742   0.544   9.873 -0.2856  0.4832 -2.6633
   54CHL1   C10 6441   4.724   0.402  10.025 -0.8285 -0.2680  0.9793
   54CHL1   C19 6442   4.737   0.248  10.038 -0.0439  0.0420  0.2184
   54CHL1  H19A 6443   4.711   0.203  10.137 -2.1003  1.6113  0.4242
   54CHL1  H19B 6444   4.677   0.183   9.971  0.5273 -1.1598  0.8568
   54CHL1  H19C 6445   4.842   0.215  10.020 -0.2284 -0.6594  0.4261
   54CHL1    C1 6446   4.838   0.478  10.096 -0.6652 -0.1120 -0.3904
   54CHL1   H1A 6447   4.938   0.460  10.052 -0.1619 -1.2041  1.1914
   54CHL1   H1B 6448   4.835   0.589  10.091  0.2620 -0.0876 -0.4733
   54CHL1    C2 6449   4.846   0.456  10.254  0.4149 -0.6051  0.2929
   54CHL1   H2A 6450   4.931   0.513  10.297  1.6060 -0.6687 -1.8979
   54CHL1   H2B 6451   4.876   0.353  10.282  4.5262  0.4077  0.0514
   54CHL1   C20 6452   4.752   0.394   9.327 -0.0500  0.2727  0.4504
   54CHL1   H20 6453   4.756   0.284   9.337 -0.5585  0.1796 -0.3359
   54CHL1   C21 6454   4.900   0.443   9.323  0.3949 -0.2306  0.3858
   54CHL1  H21A 6455   4.954   0.389   9.242 -2.8541 -1.3889 -1.1206
   54CHL1  H21B 6456   4.954   0.423   9.418  1.0885 -0.3126 -0.0276
   54CHL1  H21C 6457   4.898   0.553   9.307 -1.8193 -0.2806  0.0756
   54CHL1   C22 6458   4.691   0.425   9.190  0.4555 -0.7393 -0.0927
   54CHL1  H22A 6459   4.585   0.390   9.194  0.0050  0.5506 -0.6649
   54CHL1  H22B 6460   4.691   0.536   9.183  0.1118 -0.7200  0.1623
   54CHL1   C23 6461   4.766   0.371   9.066 -0.2765  0.0461  0.3411
   54CHL1  H23A 6462   4.871   0.408   9.067 -0.2857  0.2826 -2.6016
   54CHL1  H23B 6463   4.768   0.261   9.078  0.3732 -0.1888 -1.7352
   54CHL1   C24 6464   4.699   0.403   8.932 -0.3150  0.0174 -0.3976
   54CHL1  H24A 6465   4.589   0.390   8.938 -0.7207  2.9445 -0.6198
   54CHL1  H24B 6466   4.712   0.510   8.907  1.3956  0.0808  0.6530
   54CHL1   C25 6467   4.761   0.318   8.813  0.0775  0.3892  0.2981
   54CHL1   H25 6468   4.861   0.288   8.849  1.2532  1.9561 -1.5568
   54CHL1   C26 6469   4.683   0.189   8.794  1.1677 -0.3407 -0.2256
   54CHL1  H26A 6470   4.687   0.136   8.892 -0.5273  2.6462  1.5357
   54CHL1  H26B 6471   4.573   0.207   8.791  1.0429 -1.0359 -0.0388
   54CHL1  H26C 6472   4.724   0.128   8.710  0.0396 -0.6487 -0.5695
   54CHL1   C27 6473   4.774   0.404   8.685  0.0085 -0.3951 -0.0216
   54CHL1  H27A 6474   4.673   0.430   8.646 -0.6333 -0.2248  1.7082
   54CHL1  H27B 6475   4.822   0.501   8.709  0.9133 -1.0089  0.7223
   54CHL1  H27C 6476   4.828   0.352   8.603 -1.0492 -1.7329  0.1047
   55CHL1    C3 6477   5.556   5.256  10.081 -0.0781 -0.2129 -0.1087
   55CHL1    H3 6478   5.666   5.265  10.088  0.1455 -2.5101 -0.3643
   55CHL1    O3 6479   5.507   5.301  10.206  0.0040  0.0827  0.3873
   55CHL1   H3' 6480   5.535   5.233  10.267  0.7372  0.9004  0.9838
   55CHL1    C4 6481   5.501   5.353   9.973  0.1356  1.1180  0.0545
   55CHL1   H4A 6482   5.392   5.363   9.991 -0.1308 -2.5505  0.8983
   55CHL1   H4B 6483   5.540   5.456   9.989  0.5160  1.0840 -0.6105
   55CHL1    C5 6484   5.523   5.305   9.830  0.9312 -0.3013  0.2572
   55CHL1    C6 6485   5.565   5.392   9.734 -0.1591  0.8678  0.1218
   55CHL1    H6 6486   5.582   5.499   9.753  2.2514  1.1792 -3.2814
   55CHL1    C7 6487   5.603   5.360   9.590  0.3928  0.0174  0.2294
   55CHL1   H7A 6488   5.563   5.427   9.511  1.3845 -1.6312 -1.7398
   55CHL1   H7B 6489   5.713   5.346   9.582 -0.0463 -4.2891  0.5405
   55CHL1    C8 6490   5.540   5.221   9.553 -0.0570 -0.3894  0.3409
   55CHL1    H8 6491   5.437   5.238   9.516  1.5321  1.4985 -3.4370
   55CHL1   C14 6492   5.613   5.161   9.435 -0.8787 -1.0574  0.5173
   55CHL1   H14 6493   5.712   5.149   9.485 -0.3738  0.0444 -0.1977
   55CHL1   C15 6494   5.644   5.250   9.308 -0.7621 -0.4244  0.5284
   55CHL1  H15A 6495   5.557   5.305   9.266  0.1479  0.4931 -0.1925
   55CHL1  H15B 6496   5.729   5.320   9.324 -1.7480  0.8925  0.1184
   55CHL1   C16 6497   5.697   5.148   9.203  0.7649 -0.1703  0.0247
   55CHL1  H16A 6498   5.650   5.147   9.102  0.3335  0.7828  0.2106
   55CHL1  H16B 6499   5.805   5.164   9.181  1.0553  0.5014  1.8680
   55CHL1   C17 6500   5.677   5.012   9.265 -0.1437  0.1191 -0.6548
   55CHL1   H17 6501   5.772   4.986   9.316 -1.0285  0.7212  1.3298
   55CHL1   C13 6502   5.573   5.024   9.385  0.4576 -0.3431  0.1551
   55CHL1   C18 6503   5.432   5.039   9.325 -0.8520 -0.5486 -0.1589
   55CHL1  H18A 6504   5.399   4.944   9.278 -0.4413 -1.0295  0.5172
   55CHL1  H18B 6505   5.359   5.077   9.400  1.2347  1.2495  1.0110
   55CHL1  H18C 6506   5.428   5.110   9.239 -1.2082 -2.8358 -2.0966
   55CHL1   C12 6507   5.566   4.921   9.504 -0.3735 -0.5416 -0.1971
   55CHL1  H12A 6508   5.514   4.835   9.460 -1.8785  0.0964  0.3104
   55CHL1  H12B 6509   5.669   4.895   9.538 -0.7225 -2.6083 -0.6740
   55CHL1   C11 6510   5.496   4.978   9.626 -0.3144  0.1602 -0.2985
   55CHL1  H11A 6511   5.388   4.987   9.601 -0.3392 -0.7289 -0.5382
   55CHL1  H11B 6512   5.496   4.911   9.714 -0.7994  0.0622 -0.3721
   55CHL1    C9 6513   5.553   5.114   9.667 -0.8635  0.2510 -0.3108
   55CHL1    H9 6514   5.662   5.100   9.688 -1.2825  0.5532  2.3177
   55CHL1   C10 6515   5.490   5.158   9.797  0.1127  0.2585 -0.6769
   55CHL1   C19 6516   5.336   5.151   9.795 -0.6300 -0.7093 -0.6829
   55CHL1  H19A 6517   5.314   5.189   9.693  1.0014 -0.5794 -1.0102
   55CHL1  H19B 6518   5.297   5.049   9.813 -3.7355  0.8437  1.9002
   55CHL1  H19C 6519   5.291   5.222   9.868 -1.6030 -0.6844 -1.2999
   55CHL1    C1 6520   5.545   5.077   9.920  0.0184 -0.1712 -0.1842
   55CHL1   H1A 6521   5.523   4.969   9.908  0.9981 -0.3010 -0.8999
   55CHL1   H1B 6522   5.655   5.074   9.901  0.2573 -0.4668  1.1850
   55CHL1    C2 6523   5.508   5.117  10.059 -0.4851  0.1700 -0.3393
   55CHL1   H2A 6524   5.556   5.042  10.125  0.0174 -1.1723 -2.1893
   55CHL1   H2B 6525   5.398   5.115  10.079 -0.5022 -2.6099 -0.5059
   55CHL1   C20 6526   5.652   4.896   9.169 -0.4408 -0.5746  0.5215
   55CHL1   H20 6527   5.552   4.916   9.126 -0.6011  1.4238  1.7536
   55CHL1   C21 6528   5.641   4.756   9.235 -0.0437 -0.5121  0.3372
   55CHL1  H21A 6529   5.728   4.767   9.304  0.0526  2.2984 -0.1724
   55CHL1  H21B 6530   5.661   4.670   9.167  0.0976  1.1833 -1.8236
   55CHL1  H21C 6531   5.549   4.746   9.296  0.2159 -0.3812  0.7535
   55CHL1   C22 6532   5.761   4.882   9.055 -0.3758 -0.2237  0.3285
   55CHL1  H22A 6533   5.787   4.986   9.025 -1.1221  0.3970  1.8082
   55CHL1  H22B 6534   5.853   4.851   9.109 -0.4302  2.5946  2.1393
   55CHL1   C23 6535   5.727   4.788   8.939  0.0577 -0.2904  0.2355
   55CHL1  H23A 6536   5.721   4.684   8.978 -3.6408 -0.6773 -1.1710
   55CHL1  H23B 6537   5.623   4.807   8.905 -0.1436 -0.8558  0.5303
   55CHL1   C24 6538   5.831   4.803   8.828 -0.2360  0.1294  0.7124
   55CHL1  H24A 6539   5.936   4.807   8.866 -0.5513  0.5413  1.5650
   55CHL1  H24B 6540   5.821   4.710   8.769  1.0408  1.8827 -2.4104
   55CHL1   C25 6541   5.790   4.916   8.732 -0.8786 -0.6314 -0.5742
   55CHL1   H25 6542   5.771   5.006   8.793 -2.1247  0.7538 -2.9279
   55CHL1   C26 6543   5.900   4.971   8.642  0.0620  0.1223  0.0534
   55CHL1  H26A 6544   5.923   4.909   8.553  1.0265 -0.0700  0.4333
   55CHL1  H26B 6545   5.881   5.076   8.614 -2.2499 -0.5696 -1.0806
   55CHL1  H26C 6546   6.001   4.977   8.687 -0.8640 -0.7708  2.3762
   55CHL1   C27 6547   5.668   4.892   8.648  0.3544 -0.3864  0.6900
   55CHL1  H27A 6548   5.575   4.881   8.707 -1.1547 -1.0260 -1.7518
   55CHL1  H27B 6549   5.667   4.975   8.574 -1.5244  0.4871  1.6510
   55CHL1  H27C 6550   5.677   4.796   8.593 -0.3485  0.0935 -0.2725
   56CHL1    C3 6551   3.390   3.453  10.057  0.1284  0.7487 -0.3420
   56CHL1    H3 6552   3.403   3.344  10.039  2.1575  0.6183  1.6323
   56CHL1    O3 6553   3.322   3.467  10.181 -0.2083 -0.1725 -0.0182
   56CHL1   H3' 6554   3.386   3.470  10.253 -0.2073  0.7181 -0.0523
   56CHL1    C4 6555   3.526   3.527  10.046 -0.0740 -0.0367 -0.4749
   56CHL1   H4A 6556   3.502   3.634  10.060 -1.3856 -0.1368 -1.7965
   56CHL1   H4B 6557   3.595   3.489  10.124 -0.8323  0.2426  0.3406
   56CHL1    C5 6558   3.592   3.512   9.911 -0.1782  0.1123  0.1152
   56CHL1    C6 6559   3.710   3.449   9.888  0.6921  0.7842 -0.3956
   56CHL1    H6 6560   3.772   3.406   9.968 -0.4848 -1.7603 -0.7946
   56CHL1    C7 6561   3.772   3.435   9.751  0.5238 -0.1066  0.2527
   56CHL1   H7A 6562   3.878   3.466   9.745  0.3107  0.3820 -1.1963
   56CHL1   H7B 6563   3.761   3.327   9.726  1.1792 -0.0183 -0.3938
   56CHL1    C8 6564   3.708   3.512   9.644 -0.1085  0.2205  0.1984
   56CHL1    H8 6565   3.735   3.620   9.648 -1.1218  0.4559  0.8969
   56CHL1   C14 6566   3.758   3.460   9.503 -0.6439  0.5913 -0.4425
   56CHL1   H14 6567   3.738   3.351   9.495 -1.5892  0.7132  0.1550
   56CHL1   C15 6568   3.912   3.475   9.484 -0.3409 -0.1206  0.8646
   56CHL1  H15A 6569   3.949   3.574   9.519 -0.9629  1.8633 -3.7308
   56CHL1  H15B 6570   3.964   3.391   9.534  0.9364 -0.7190 -1.3931
   56CHL1   C16 6571   3.923   3.468   9.328  0.8257  0.1404 -0.1231
   56CHL1  H16A 6572   3.971   3.564   9.299  2.3841 -0.2450  1.0458
   56CHL1  H16B 6573   3.989   3.387   9.289  0.1581 -0.5871  0.2503
   56CHL1   C17 6574   3.778   3.462   9.274 -0.2607  0.2751  0.4500
   56CHL1   H17 6575   3.753   3.354   9.280  1.6270 -0.4862 -3.7637
   56CHL1   C13 6576   3.692   3.525   9.386 -0.5055 -0.0087 -0.8523
   56CHL1   C18 6577   3.706   3.677   9.386  0.4964  0.1728  0.1490
   56CHL1  H18A 6578   3.689   3.714   9.282 -0.5741 -0.1854  0.1889
   56CHL1  H18B 6579   3.635   3.728   9.455  1.5482  1.3045  0.3927
   56CHL1  H18C 6580   3.805   3.715   9.416  0.6286 -0.1124  0.0783
   56CHL1   C12 6581   3.545   3.482   9.391 -0.2464  0.4272  0.5268
   56CHL1  H12A 6582   3.494   3.532   9.306  0.4844 -2.4332 -1.6288
   56CHL1  H12B 6583   3.546   3.373   9.373 -0.9436 -0.0259  3.0118
   56CHL1   C11 6584   3.476   3.523   9.525 -1.0250 -0.0230 -0.1759
   56CHL1  H11A 6585   3.453   3.631   9.519  0.0687  0.1879 -0.4739
   56CHL1  H11B 6586   3.377   3.472   9.532  0.1885 -2.6485 -1.3940
   56CHL1    C9 6587   3.558   3.494   9.652  0.8679 -0.2698 -0.8284
   56CHL1    H9 6588   3.539   3.385   9.653 -0.6411 -0.0133 -0.8980
   56CHL1   C10 6589   3.502   3.542   9.791 -0.6821 -0.1864 -0.1288
   56CHL1   C19 6590   3.485   3.697   9.786 -0.3672  0.4479 -0.0996
   56CHL1  H19A 6591   3.568   3.771   9.780 -0.1229  0.2460  0.8517
   56CHL1  H19B 6592   3.409   3.712   9.706 -0.1054 -3.2982 -1.1546
   56CHL1  H19C 6593   3.429   3.728   9.877 -1.6544  2.1504 -1.4425
   56CHL1    C1 6594   3.360   3.483   9.811 -0.1502 -0.0889 -0.3975
   56CHL1   H1A 6595   3.287   3.534   9.744 -2.6377 -1.4606  1.1725
   56CHL1   H1B 6596   3.372   3.373   9.796 -1.4380 -0.4303  0.9240
   56CHL1    C2 6597   3.298   3.501   9.950 -0.1779 -0.1699  0.8002
   56CHL1   H2A 6598   3.204   3.443   9.951 -0.6020  0.4757 -0.5008
   56CHL1   H2B 6599   3.269   3.606   9.970 -0.4262 -0.1886  0.5433
   56CHL1   C20 6600   3.769   3.507   9.124 -0.2767 -0.5374  0.0682
   56CHL1   H20 6601   3.762   3.616   9.107  4.6430 -0.1297 -0.2503
   56CHL1   C21 6602   3.647   3.439   9.064 -0.7485 -0.0288  0.0165
   56CHL1  H21A 6603   3.546   3.475   9.096 -1.5637 -2.0752 -0.1843
   56CHL1  H21B 6604   3.654   3.331   9.087  2.5492  0.6573  2.5339
   56CHL1  H21C 6605   3.663   3.452   8.954 -0.1257 -2.9337 -0.2716
   56CHL1   C22 6606   3.905   3.477   9.049 -0.2548 -0.1030  1.1913
   56CHL1  H22A 6607   3.969   3.552   9.101  0.2230  0.1206  0.2971
   56CHL1  H22B 6608   3.932   3.370   9.060 -2.1511 -0.8094 -0.5687
   56CHL1   C23 6609   3.916   3.506   8.900 -0.1824 -0.3912 -0.2176
   56CHL1  H23A 6610   3.866   3.421   8.849 -3.0472  1.0780  0.0414
   56CHL1  H23B 6611   3.858   3.599   8.880 -0.0418 -0.7091 -2.2370
   56CHL1   C24 6612   4.056   3.514   8.839 -0.0430  0.1955 -0.0293
   56CHL1  H24A 6613   4.091   3.617   8.864 -2.0766  0.4308  2.0455
   56CHL1  H24B 6614   4.117   3.432   8.881  1.1989  0.4328 -1.3433
   56CHL1   C25 6615   4.066   3.491   8.682  0.2400 -0.6028 -0.0507
   56CHL1   H25 6616   4.170   3.515   8.652  0.4217  0.2575  1.2395
   56CHL1   C26 6617   4.041   3.342   8.643  0.4460  0.3643 -0.2783
   56CHL1  H26A 6618   4.061   3.330   8.534  0.7335  1.1919 -0.3230
   56CHL1  H26B 6619   4.117   3.277   8.690 -0.1659 -0.2122 -0.0893
   56CHL1  H26C 6620   3.940   3.308   8.674  0.8592 -1.8841 -1.3280
   56CHL1   C27 6621   3.972   3.579   8.600 -0.1109 -0.1086 -0.1479
   56CHL1  H27A 6622   4.000   3.569   8.493 -0.8647  3.0571 -0.7059
   56CHL1  H27B 6623   3.861   3.570   8.609 -0.3422  2.3284 -0.2121
   56CHL1  H27C 6624   3.996   3.681   8.638  0.4864 -0.4097  0.2941
   57CHL1    C3 6625   5.659   6.093  10.151  0.0493 -0.0918  0.0045
   57CHL1    H3 6626   5.706   6.187  10.116  1.0986 -0.4978  0.3014
   57CHL1    O3 6627   5.636   6.110  10.294 -0.0238 -0.2206  0.4193
   57CHL1   H3' 6628   5.611   6.024  10.329  0.6460 -0.8362 -0.5630
   57CHL1    C4 6629   5.520   6.065  10.080 -0.3674  0.1135 -0.0123
   57CHL1   H4A 6630   5.494   5.963  10.117  2.1569 -1.2428 -1.8128
   57CHL1   H4B 6631   5.449   6.147  10.103 -1.7864 -0.2990 -2.6416
   57CHL1    C5 6632   5.531   6.043   9.938 -0.1692 -0.0529 -0.2110
   57CHL1    C6 6633   5.462   6.114   9.845  0.1601 -0.2231  0.4192
   57CHL1    H6 6634   5.391   6.192   9.877 -0.8847  0.0115 -2.3041
   57CHL1    C7 6635   5.458   6.091   9.696 -0.7627 -0.2139 -0.0656
   57CHL1   H7A 6636   5.354   6.086   9.657 -0.7860 -0.0123 -0.0266
   57CHL1   H7B 6637   5.515   6.178   9.658  0.2648 -0.9631 -0.2424
   57CHL1    C8 6638   5.536   5.970   9.659 -0.1630 -0.1872  0.0741
   57CHL1    H8 6639   5.467   5.883   9.669  0.8976 -1.1186 -0.6129
   57CHL1   C14 6640   5.576   5.984   9.517 -0.2338 -0.2738  0.4783
   57CHL1   H14 6641   5.642   6.073   9.514  0.6455 -0.9368 -0.4821
   57CHL1   C15 6642   5.465   6.014   9.406 -0.3137  0.1931 -0.2655
   57CHL1  H15A 6643   5.386   5.937   9.424  1.8456 -1.6351  1.8643
   57CHL1  H15B 6644   5.431   6.117   9.430 -0.3568  0.7079 -2.4699
   57CHL1   C16 6645   5.540   6.009   9.277 -0.0288 -0.1968 -0.4342
   57CHL1  H16A 6646   5.491   5.950   9.197  1.3047  1.1584 -2.2930
   57CHL1  H16B 6647   5.563   6.108   9.234  0.5905 -0.4097 -0.6054
   57CHL1   C17 6648   5.671   5.929   9.319  0.1689  0.2335  0.1354
   57CHL1   H17 6649   5.734   6.020   9.328 -3.8522  3.4061 -2.1280
   57CHL1   C13 6650   5.659   5.871   9.455 -0.4407  0.1046  0.4508
   57CHL1   C18 6651   5.582   5.731   9.450  0.1032  0.0688  0.2176
   57CHL1  H18A 6652   5.651   5.656   9.407  0.0645 -0.1991  0.6202
   57CHL1  H18B 6653   5.573   5.695   9.555  0.4587  0.3646  0.3490
   57CHL1  H18C 6654   5.488   5.745   9.393 -0.4591 -0.4909  0.9911
   57CHL1   C12 6655   5.792   5.869   9.525  0.1078 -0.1089 -0.3183
   57CHL1  H12A 6656   5.864   5.788   9.502  0.5712  0.5009 -1.0308
   57CHL1  H12B 6657   5.836   5.971   9.523 -2.3307  0.9643 -2.0278
   57CHL1   C11 6658   5.766   5.856   9.678 -0.2758 -0.6784  0.1903
   57CHL1  H11A 6659   5.724   5.754   9.691  1.1198 -1.4646 -1.1996
   57CHL1  H11B 6660   5.861   5.876   9.732 -0.9457  2.0412  0.4570
   57CHL1    C9 6661   5.663   5.953   9.741  0.1714 -0.2017  0.3114
   57CHL1    H9 6662   5.711   6.053   9.738  1.1402 -0.6672  0.1981
   57CHL1   C10 6663   5.633   5.936   9.896 -0.1865 -0.1695  0.5047
   57CHL1   C19 6664   5.565   5.801   9.916  0.1441  0.3524  0.5407
   57CHL1  H19A 6665   5.474   5.782   9.854 -0.0376 -0.7947  1.1335
   57CHL1  H19B 6666   5.635   5.716   9.897 -0.4176  0.3944 -1.8928
   57CHL1  H19C 6667   5.530   5.780  10.020  1.7872 -0.2058  0.9857
   57CHL1    C1 6668   5.770   5.953   9.975 -0.2616  0.5950 -0.6686
   57CHL1   H1A 6669   5.836   5.867   9.953 -1.7819 -0.4811 -1.0891
   57CHL1   H1B 6670   5.837   6.037   9.947  0.4969  0.9040  1.9293
   57CHL1    C2 6671   5.753   5.967  10.135  0.0895 -0.1331  0.3997
   57CHL1   H2A 6672   5.856   5.985  10.173  0.2816  2.3821 -1.1691
   57CHL1   H2B 6673   5.702   5.876  10.171 -1.4758 -0.3831 -2.3028
   57CHL1   C20 6674   5.737   5.840   9.209 -0.1691  0.1826 -0.3298
   57CHL1   H20 6675   5.825   5.784   9.248 -2.4640 -1.6458  2.4429
   57CHL1   C21 6676   5.776   5.938   9.101 -0.2706 -0.6442 -0.5577
   57CHL1  H21A 6677   5.855   6.013   9.123 -2.2572  1.6591 -1.0788
   57CHL1  H21B 6678   5.686   5.986   9.057  0.1294 -0.7934 -1.5695
   57CHL1  H21C 6679   5.824   5.882   9.018  0.6806 -1.5254  0.5643
   57CHL1   C22 6680   5.644   5.735   9.133 -0.4281 -0.1469 -0.2076
   57CHL1  H22A 6681   5.575   5.685   9.204  0.9679 -1.8474 -0.0089
   57CHL1  H22B 6682   5.577   5.791   9.065 -1.4444  0.2191  1.0638
   57CHL1   C23 6683   5.727   5.632   9.047 -0.6219 -0.6544 -0.5485
   57CHL1  H23A 6684   5.793   5.679   8.970 -1.2018 -0.6108 -1.0225
   57CHL1  H23B 6685   5.798   5.576   9.111 -1.2947 -2.0932 -1.0439
   57CHL1   C24 6686   5.630   5.535   8.976 -0.1382 -0.0154 -0.6868
   57CHL1  H24A 6687   5.586   5.478   9.061 -0.4760  2.6400  0.9682
   57CHL1  H24B 6688   5.562   5.605   8.924 -0.0725  0.5925  0.0492
   57CHL1   C25 6689   5.674   5.439   8.864  0.1708 -0.6981 -0.3613
   57CHL1   H25 6690   5.739   5.372   8.924  1.1650  1.5575  1.1576
   57CHL1   C26 6691   5.553   5.370   8.816 -0.0586  0.2716  0.5160
   57CHL1  H26A 6692   5.490   5.448   8.767 -0.8281  0.0441  1.1238
   57CHL1  H26B 6693   5.573   5.286   8.747 -1.6060  0.3305 -0.0396
   57CHL1  H26C 6694   5.494   5.331   8.902 -0.5000  0.1322  0.1529
   57CHL1   C27 6695   5.765   5.503   8.756  0.6924  0.3265  0.2511
   57CHL1  H27A 6696   5.802   5.424   8.689  0.8200  1.4066 -0.9721
   57CHL1  H27B 6697   5.724   5.592   8.703 -2.6573 -0.0308  2.0976
   57CHL1  H27C 6698   5.855   5.544   8.808  0.2559  0.5811  0.8205
   58CHL1    C3 6699   1.428   4.269  10.013  1.1984 -0.7861  0.2544
   58CHL1    H3 6700   1.354   4.345   9.983  0.9488 -1.3265 -0.5122
   58CHL1    O3 6701   1.452   4.271  10.152  0.7463  0.0157  0.0103
   58CHL1   H3' 6702   1.512   4.345  10.169  0.8327 -0.6367  2.6718
   58CHL1    C4 6703   1.399   4.125   9.969  0.1174 -0.6620  0.5338
   58CHL1   H4A 6704   1.479   4.068  10.022  0.9467  0.5033  0.5556
   58CHL1   H4B 6705   1.297   4.098  10.004  0.3311 -1.5772  0.4540
   58CHL1    C5 6706   1.421   4.100   9.821 -0.0949  0.3338 -0.5705
   58CHL1    C6 6707   1.321   4.059   9.749 -0.0912 -0.2674  0.3618
   58CHL1    H6 6708   1.221   4.031   9.787 -0.2852  1.2600  1.0266
   58CHL1    C7 6709   1.321   4.047   9.600  0.4380  0.2965  0.3038
   58CHL1   H7A 6710   1.275   3.952   9.567 -0.4938  1.2340 -1.1611
   58CHL1   H7B 6711   1.259   4.128   9.555  1.7742  1.6522  0.8274
   58CHL1    C8 6712   1.464   4.051   9.528  0.2189 -0.4604  0.1142
   58CHL1    H8 6713   1.514   3.953   9.544 -0.2768 -0.4445  1.7909
   58CHL1   C14 6714   1.455   4.074   9.382  0.3979 -0.6564  1.0544
   58CHL1   H14 6715   1.414   4.175   9.358  0.1744 -0.4315  2.3294
   58CHL1   C15 6716   1.357   3.981   9.308 -0.9492 -1.0150 -0.4410
   58CHL1  H15A 6717   1.362   3.876   9.344  1.5415 -0.5335  0.6922
   58CHL1  H15B 6718   1.253   4.020   9.316  0.0531  1.3262  2.0801
   58CHL1   C16 6719   1.412   3.985   9.163  0.3006  0.0377  0.5440
   58CHL1  H16A 6720   1.424   3.881   9.127  1.6159  0.1623  0.5810
   58CHL1  H16B 6721   1.347   4.014   9.078  0.9557  1.7799  0.6192
   58CHL1   C17 6722   1.539   4.076   9.162 -0.1546 -0.7565  1.0502
   58CHL1   H17 6723   1.502   4.180   9.153  0.3869 -0.4745  1.9924
   58CHL1   C13 6724   1.586   4.066   9.313 -0.0292 -0.0790  0.0910
   58CHL1   C18 6725   1.650   3.929   9.330 -0.1037  0.6250 -0.2305
   58CHL1  H18A 6726   1.686   3.907   9.432  0.8816 -1.6788 -1.0276
   58CHL1  H18B 6727   1.587   3.841   9.304  0.7734  0.9741 -3.9149
   58CHL1  H18C 6728   1.737   3.931   9.260  0.1967  1.6668  0.1675
   58CHL1   C12 6729   1.668   4.185   9.374 -0.7162 -0.0368 -0.1307
   58CHL1  H12A 6730   1.770   4.187   9.332 -0.1033 -1.9889  1.2218
   58CHL1  H12B 6731   1.617   4.280   9.348  0.8497  0.6546 -0.7484
   58CHL1   C11 6732   1.683   4.169   9.532 -0.1350 -0.4258  0.7616
   58CHL1  H11A 6733   1.744   4.079   9.555 -2.1404 -1.6349  1.4480
   58CHL1  H11B 6734   1.739   4.259   9.564  2.7781 -2.3594  1.3222
   58CHL1    C9 6735   1.550   4.161   9.603 -0.4017  0.1013 -0.1712
   58CHL1    H9 6736   1.491   4.253   9.584  0.5323  0.3060 -2.2946
   58CHL1   C10 6737   1.554   4.142   9.759  0.1517 -0.6523  0.3113
   58CHL1   C19 6738   1.674   4.046   9.802 -0.3702  0.3616  0.0164
   58CHL1  H19A 6739   1.707   4.062   9.907  1.2481  0.8842 -0.5679
   58CHL1  H19B 6740   1.644   3.939   9.797 -1.0760  0.5559  0.0106
   58CHL1  H19C 6741   1.772   4.061   9.753  0.4017  1.5150  1.8449
   58CHL1    C1 6742   1.575   4.283   9.810 -0.1061 -0.1198 -0.0270
   58CHL1   H1A 6743   1.685   4.302   9.804 -0.4936  2.6422  1.0571
   58CHL1   H1B 6744   1.531   4.361   9.745  1.0986  0.3224 -0.3284
   58CHL1    C2 6745   1.565   4.309   9.953 -0.7222 -0.4218  0.1626
   58CHL1   H2A 6746   1.590   4.415   9.973  0.4988 -0.9638  1.6358
   58CHL1   H2B 6747   1.640   4.254  10.014  1.3094  1.4540 -0.6016
   58CHL1   C20 6748   1.637   4.045   9.048  0.6047 -0.4542 -0.1395
   58CHL1   H20 6749   1.680   3.943   9.061 -1.6505 -1.3423  0.6165
   58CHL1   C21 6750   1.755   4.149   9.059 -0.8304 -0.0472 -0.3380
   58CHL1  H21A 6751   1.829   4.147   8.977  3.4909 -0.5398  3.3629
   58CHL1  H21B 6752   1.820   4.110   9.141  0.2135  1.0157 -0.6384
   58CHL1  H21C 6753   1.718   4.254   9.068 -2.1026 -0.5308  0.2063
   58CHL1   C22 6754   1.569   4.059   8.914  0.2210 -0.3036 -0.3389
   58CHL1  H22A 6755   1.647   4.039   8.837 -0.9944  1.0732 -1.9535
   58CHL1  H22B 6756   1.491   3.984   8.892 -0.1642  0.1476 -0.5120
   58CHL1   C23 6757   1.519   4.202   8.881  0.0362  0.6771 -0.1571
   58CHL1  H23A 6758   1.456   4.260   8.952 -0.3527  1.4752 -1.1384
   58CHL1  H23B 6759   1.612   4.261   8.867  1.1329 -1.2167 -1.1548
   58CHL1   C24 6760   1.458   4.203   8.742 -0.3621 -0.1690  0.0047
   58CHL1  H24A 6761   1.537   4.165   8.675 -0.1170 -0.1821  0.2972
   58CHL1  H24B 6762   1.369   4.139   8.755 -0.8109  0.4701  0.1187
   58CHL1   C25 6763   1.398   4.341   8.695  0.0726  0.2121  0.1900
   58CHL1   H25 6764   1.309   4.371   8.755 -0.4668  2.4792 -1.6936
   58CHL1   C26 6765   1.501   4.452   8.692  0.2283  0.4904 -0.3878
   58CHL1  H26A 6766   1.554   4.446   8.790 -0.0597  1.3033 -0.1810
   58CHL1  H26B 6767   1.580   4.434   8.615  1.7951 -2.2343  1.7551
   58CHL1  H26C 6768   1.467   4.557   8.676 -1.1429 -0.3426 -3.4482
   58CHL1   C27 6769   1.346   4.331   8.551  0.6467 -0.3591  0.1465
   58CHL1  H27A 6770   1.291   4.425   8.528  1.5736  0.1604 -0.0032
   58CHL1  H27B 6771   1.432   4.310   8.483 -0.3837 -0.4599 -1.1472
   58CHL1  H27C 6772   1.274   4.248   8.537 -0.1229  0.6060 -1.9014
   59CHL1    C3 6773   0.912   3.750  10.439  0.1436 -0.1831 -0.2016
   59CHL1    H3 6774   0.988   3.811  10.386  0.5635 -0.2822  0.2870
   59CHL1    O3 6775   0.948   3.743  10.579 -0.2361 -0.1371 -0.1495
   59CHL1   H3' 6776   1.042   3.760  10.583 -0.2912  0.4204 -1.2220
   59CHL1    C4 6777   0.774   3.819  10.418 -0.2296 -0.0807  0.5263
   59CHL1   H4A 6778   0.688   3.768  10.467  0.2356  0.7032  2.1814
   59CHL1   H4B 6779   0.780   3.924  10.452 -0.8075  0.4573 -1.0314
   59CHL1    C5 6780   0.733   3.826  10.267  1.0854 -0.5175 -0.4202
   59CHL1    C6 6781   0.682   3.935  10.209 -0.1448  0.3514 -0.0989
   59CHL1    H6 6782   0.676   4.030  10.264  0.8504 -0.8122  2.0527
   59CHL1    C7 6783   0.622   3.927  10.071  0.7104 -0.2144 -0.1520
   59CHL1   H7A 6784   0.520   3.969  10.077  0.9535  0.5807 -1.4734
   59CHL1   H7B 6785   0.681   3.990  10.002 -0.7574 -0.4733 -1.6787
   59CHL1    C8 6786   0.600   3.781  10.010  0.0463 -0.4589 -0.4661
   59CHL1    H8 6787   0.502   3.742  10.045  0.4636 -0.9294  0.1839
   59CHL1   C14 6788   0.587   3.797   9.860  0.1822  0.8098 -0.2126
   59CHL1   H14 6789   0.689   3.829   9.829  1.2779 -0.9830  1.3991
   59CHL1   C15 6790   0.483   3.893   9.799  0.6499 -0.6864  0.0594
   59CHL1  H15A 6791   0.397   3.872   9.867  0.3492 -0.0550 -0.1304
   59CHL1  H15B 6792   0.513   4.000   9.798  0.6441 -0.6796  0.4338
   59CHL1   C16 6793   0.455   3.845   9.659 -0.7083  0.3264  0.2222
   59CHL1  H16A 6794   0.351   3.805   9.658 -2.2197  4.0413 -0.8439
   59CHL1  H16B 6795   0.471   3.921   9.579 -0.0512 -1.7600 -1.6924
   59CHL1   C17 6796   0.552   3.716   9.647  0.3184 -0.4453  0.3520
   59CHL1   H17 6797   0.648   3.760   9.614 -1.4204  1.0941 -2.9004
   59CHL1   C13 6798   0.566   3.665   9.784 -0.4880 -0.4494  0.0372
   59CHL1   C18 6799   0.438   3.596   9.828  0.6043 -0.8178 -0.0396
   59CHL1  H18A 6800   0.433   3.568   9.935  0.1944 -0.5273  0.0186
   59CHL1  H18B 6801   0.340   3.644   9.806 -0.4983 -1.8813  2.3493
   59CHL1  H18C 6802   0.432   3.500   9.773 -1.4187  0.5268 -2.2606
   59CHL1   C12 6803   0.690   3.576   9.819 -0.2447 -0.2592  0.6357
   59CHL1  H12A 6804   0.682   3.475   9.773 -0.0462 -0.1523  0.3635
   59CHL1  H12B 6805   0.779   3.625   9.773  0.0310  0.1459  1.5874
   59CHL1   C11 6806   0.723   3.563   9.965 -0.0628 -0.5238  0.1796
   59CHL1  H11A 6807   0.638   3.505  10.007  1.2310 -1.9794  0.8188
   59CHL1  H11B 6808   0.817   3.505   9.978 -0.1428 -0.4254  1.2786
   59CHL1    C9 6809   0.725   3.700  10.044 -0.2791 -0.2507  0.2655
   59CHL1    H9 6810   0.812   3.752   9.998 -0.4660 -1.2010 -1.1877
   59CHL1   C10 6811   0.737   3.683  10.201  0.0757  0.0062  0.0157
   59CHL1   C19 6812   0.624   3.592  10.257 -0.3179 -0.1476  0.5805
   59CHL1  H19A 6813   0.535   3.614  10.195  0.6173 -1.9508 -1.4803
   59CHL1  H19B 6814   0.647   3.485  10.234 -1.2272 -0.0849 -0.6808
   59CHL1  H19C 6815   0.604   3.602  10.366 -0.8835 -1.4616  0.6180
   59CHL1    C1 6816   0.871   3.611  10.232 -0.3955  0.0854 -0.3938
   59CHL1   H1A 6817   0.872   3.511  10.183  1.7547  0.5286 -1.3110
   59CHL1   H1B 6818   0.944   3.660  10.164  1.7311 -2.1317  0.2273
   59CHL1    C2 6819   0.928   3.610  10.375  0.3562 -0.5839 -0.1484
   59CHL1   H2A 6820   1.035   3.584  10.390  0.6447  0.9290  0.4448
   59CHL1   H2B 6821   0.866   3.541  10.436 -0.8956  0.3708 -0.3229
   59CHL1   C20 6822   0.511   3.621   9.536  0.2038  0.0009 -0.1165
   59CHL1   H20 6823   0.428   3.553   9.566  1.1207 -0.3296  1.7502
   59CHL1   C21 6824   0.639   3.544   9.490  0.4067 -0.3468  0.0860
   59CHL1  H21A 6825   0.618   3.471   9.408  1.0176  0.0752 -0.4563
   59CHL1  H21B 6826   0.688   3.486   9.571 -0.7718  0.8309  1.6460
   59CHL1  H21C 6827   0.715   3.618   9.456  1.6384 -0.8799  1.6085
   59CHL1   C22 6828   0.438   3.692   9.418 -0.0311  0.1695  0.0319
   59CHL1  H22A 6829   0.339   3.728   9.454  0.8561  3.3280 -0.6087
   59CHL1  H22B 6830   0.501   3.778   9.388 -0.2526  0.1120 -0.6063
   59CHL1   C23 6831   0.403   3.606   9.293  0.1256  0.0463  0.0175
   59CHL1  H23A 6832   0.498   3.608   9.234  0.8879  0.4933  1.2431
   59CHL1  H23B 6833   0.377   3.507   9.335  0.3470  0.3661  0.9097
   59CHL1   C24 6834   0.282   3.675   9.215 -0.2409 -0.9194  0.4962
   59CHL1  H24A 6835   0.189   3.650   9.269 -1.4605  5.2703  1.6886
   59CHL1  H24B 6836   0.299   3.785   9.216 -2.2569 -0.5851 -0.3434
   59CHL1   C25 6837   0.282   3.631   9.069 -0.3637  0.5224  1.1788
   59CHL1   H25 6838   0.383   3.651   9.028 -0.6375  2.7058  1.5420
   59CHL1   C26 6839   0.260   3.476   9.058  0.0285 -0.2021 -0.0321
   59CHL1  H26A 6840   0.248   3.451   8.950 -1.3243  1.8745 -0.3770
   59CHL1  H26B 6841   0.347   3.416   9.093 -1.5790 -1.4381  1.9738
   59CHL1  H26C 6842   0.162   3.455   9.107  0.0658 -2.4852 -0.8410
   59CHL1   C27 6843   0.169   3.699   8.984  0.3610  0.8112  0.6666
   59CHL1  H27A 6844   0.068   3.673   9.022  0.0738 -1.2147 -1.4450
   59CHL1  H27B 6845   0.174   3.810   8.992  1.2777  0.6820  2.0193
   59CHL1  H27C 6846   0.177   3.679   8.875  1.0845  1.8221  0.5250
   60CHL1    C3 6847   6.573   2.992  10.109  0.1871 -0.1930  0.2357
   60CHL1    H3 6848   6.472   3.036  10.093  0.2545 -0.2600 -0.3703
   60CHL1    O3 6849   6.587   2.950  10.248  0.3456 -0.7872 -0.0686
   60CHL1   H3' 6850   6.683   2.940  10.250  0.4494 -0.6378 -3.0149
   60CHL1    C4 6851   6.581   2.855  10.034 -0.1802  0.2569 -0.3267
   60CHL1   H4A 6852   6.669   2.797  10.070 -0.7528  1.0731  2.5138
   60CHL1   H4B 6853   6.503   2.779  10.056  0.1831 -0.7140 -2.2409
   60CHL1    C5 6854   6.590   2.877   9.882 -0.0026  0.2959 -0.1232
   60CHL1    C6 6855   6.497   2.811   9.803 -0.1289 -0.3584 -0.0542
   60CHL1    H6 6856   6.429   2.736   9.846  0.8137 -2.7527 -2.5669
   60CHL1    C7 6857   6.487   2.838   9.656  0.2093  0.1866  0.1965
   60CHL1   H7A 6858   6.490   2.740   9.604  3.9201 -1.2204  2.8586
   60CHL1   H7B 6859   6.393   2.891   9.632  0.4828  0.7367  0.3301
   60CHL1    C8 6860   6.607   2.916   9.600 -0.1922  0.5226 -0.5566
   60CHL1    H8 6861   6.693   2.847   9.589  0.6823  1.1087  2.0898
   60CHL1   C14 6862   6.564   2.964   9.458  0.7775  0.3004 -0.4859
   60CHL1   H14 6863   6.490   3.045   9.470  0.4632 -0.2141  1.1972
   60CHL1   C15 6864   6.496   2.872   9.360 -0.1492 -0.0396  0.0410
   60CHL1  H15A 6865   6.552   2.777   9.349  1.7906  0.9806  0.9278
   60CHL1  H15B 6866   6.387   2.860   9.382  0.1834  0.9821  2.3928
   60CHL1   C16 6867   6.507   2.956   9.229 -0.1331  0.5950 -0.1706
   60CHL1  H16A 6868   6.556   2.891   9.153 -0.6165 -1.3223  1.1261
   60CHL1  H16B 6869   6.405   2.990   9.202 -1.8530 -1.3831  3.4441
   60CHL1   C17 6870   6.602   3.081   9.254  0.6409 -0.1367 -0.0530
   60CHL1   H17 6871   6.531   3.163   9.277 -2.5255 -2.7534 -0.2779
   60CHL1   C13 6872   6.677   3.041   9.384 -0.4134  0.0692 -0.0818
   60CHL1   C18 6873   6.792   2.941   9.345  0.8955  0.3886  0.2322
   60CHL1  H18A 6874   6.813   2.875   9.432  0.4003 -3.8175 -2.6675
   60CHL1  H18B 6875   6.760   2.869   9.266 -0.9050  1.4312 -0.0246
   60CHL1  H18C 6876   6.887   2.991   9.317 -0.0593  2.4225  0.5613
   60CHL1   C12 6877   6.715   3.164   9.475 -0.6196  0.2083 -0.0465
   60CHL1  H12A 6878   6.805   3.213   9.431 -2.2918  0.5389 -3.2636
   60CHL1  H12B 6879   6.628   3.234   9.481  1.1389  2.4687 -0.1481
   60CHL1   C11 6880   6.750   3.118   9.615  0.1525 -0.5129  0.9739
   60CHL1  H11A 6881   6.845   3.062   9.602  0.2090  0.4902 -3.6291
   60CHL1  H11B 6882   6.769   3.213   9.669 -3.0828 -0.4038  2.0228
   60CHL1    C9 6883   6.650   3.034   9.691 -0.2778 -0.0777  0.8205
   60CHL1    H9 6884   6.558   3.096   9.695 -0.1375  0.5334 -3.1560
   60CHL1   C10 6885   6.693   2.987   9.826 -0.0162  0.1373  0.3516
   60CHL1   C19 6886   6.844   2.932   9.827  0.1891  0.5921  0.5121
   60CHL1  H19A 6887   6.912   3.019   9.833  1.8474 -0.6493  0.0134
   60CHL1  H19B 6888   6.861   2.873   9.920 -0.1923  2.0219  1.5069
   60CHL1  H19C 6889   6.851   2.872   9.734 -2.3284 -0.2839  0.8252
   60CHL1    C1 6890   6.679   3.117   9.918 -0.1841  0.2064 -0.6913
   60CHL1   H1A 6891   6.756   3.194   9.892 -1.3204  0.7876 -2.4479
   60CHL1   H1B 6892   6.584   3.171   9.895 -1.3504 -1.3391  0.4302
   60CHL1    C2 6893   6.684   3.085  10.069 -0.1733 -0.8716 -0.0905
   60CHL1   H2A 6894   6.679   3.180  10.126 -0.3699 -1.3804  0.7478
   60CHL1   H2B 6895   6.782   3.035  10.084 -0.0685 -0.6014  0.1304
   60CHL1   C20 6896   6.679   3.113   9.125 -0.0628  0.4891 -0.1228
   60CHL1   H20 6897   6.741   3.023   9.103 -2.5822 -1.0734 -0.9761
   60CHL1   C21 6898   6.762   3.242   9.140  0.0861 -0.1187 -0.4807
   60CHL1  H21A 6899   6.710   3.324   9.192  0.8310  0.3284 -0.4273
   60CHL1  H21B 6900   6.801   3.269   9.039  0.5379 -1.2669 -0.6244
   60CHL1  H21C 6901   6.840   3.218   9.215 -1.6812  2.2950  2.1980
   60CHL1   C22 6902   6.582   3.132   9.005  0.8809 -0.4148  0.3725
   60CHL1  H22A 6903   6.487   3.074   9.008  1.2469 -0.9641  3.0397
   60CHL1  H22B 6904   6.552   3.239   9.002 -1.3345 -1.0269 -0.9505
   60CHL1   C23 6905   6.646   3.108   8.869  0.2326 -0.2158  0.3145
   60CHL1  H23A 6906   6.733   3.176   8.871  2.0670 -2.5194  1.2577
   60CHL1  H23B 6907   6.689   3.006   8.869  2.1354  0.5641 -0.2366
   60CHL1   C24 6908   6.562   3.146   8.755  0.0548 -0.2652  0.1290
   60CHL1  H24A 6909   6.465   3.092   8.766 -0.4040  0.1339 -1.7140
   60CHL1  H24B 6910   6.538   3.254   8.769  1.6400 -0.1247  1.8801
   60CHL1   C25 6911   6.622   3.142   8.613 -0.4690  0.5760  0.0696
   60CHL1   H25 6912   6.711   3.208   8.604  1.1756 -1.1883  2.7290
   60CHL1   C26 6913   6.672   3.001   8.583  0.2617 -0.4259  0.8317
   60CHL1  H26A 6914   6.749   2.982   8.660  0.2405  0.7982  1.1653
   60CHL1  H26B 6915   6.595   2.922   8.593 -0.4393  0.0589 -0.6194
   60CHL1  H26C 6916   6.726   2.994   8.487  1.5943 -3.7427  1.7790
   60CHL1   C27 6917   6.518   3.183   8.507  0.4148 -0.0031 -0.3353
   60CHL1  H27A 6918   6.512   3.293   8.519  0.2106  0.0687 -1.0842
   60CHL1  H27B 6919   6.543   3.159   8.402 -1.7279  0.5261 -0.9997
   60CHL1  H27C 6920   6.418   3.137   8.525  0.4857  0.8506  2.4265
   61CHL1    C3 6921   4.485   1.922  10.352  0.3244  0.1769  0.1350
   61CHL1    H3 6922   4.542   2.016  10.368 -0.9124  1.0279 -0.4541
   61CHL1    O3 6923   4.467   1.859  10.476  0.2908  0.4849 -0.1129
   61CHL1   H3' 6924   4.466   1.931  10.539 -0.5074  0.5702 -0.2262
   61CHL1    C4 6925   4.342   1.960  10.291  0.2983  0.5991  0.4623
   61CHL1   H4A 6926   4.282   1.868  10.305 -1.8545  1.8504 -0.3527
   61CHL1   H4B 6927   4.290   2.043  10.345 -2.3351 -1.4907  1.2573
   61CHL1    C5 6928   4.358   2.002  10.148 -0.0315 -0.4585  0.0401
   61CHL1    C6 6929   4.303   2.120  10.105 -0.3911 -0.2232 -0.2108
   61CHL1    H6 6930   4.256   2.177  10.186  1.9147 -1.0056  1.7171
   61CHL1    C7 6931   4.289   2.163   9.961  0.6869  0.0722 -0.3027
   61CHL1   H7A 6932   4.187   2.202   9.940 -0.5464 -1.4656  2.6268
   61CHL1   H7B 6933   4.372   2.237   9.951  0.0562  0.7125 -0.8944
   61CHL1    C8 6934   4.326   2.054   9.860 -0.5968  0.5683 -0.6874
   61CHL1    H8 6935   4.233   1.994   9.846 -0.6345  0.8819 -1.8029
   61CHL1   C14 6936   4.356   2.123   9.726  0.4341 -0.1743  0.2193
   61CHL1   H14 6937   4.450   2.178   9.747  0.8262 -0.7650  0.0119
   61CHL1   C15 6938   4.273   2.240   9.661 -0.4061  0.2015  0.0519
   61CHL1  H15A 6939   4.164   2.220   9.663 -0.3064 -0.4611 -0.7856
   61CHL1  H15B 6940   4.304   2.339   9.699 -0.2130  0.1528  0.0220
   61CHL1   C16 6941   4.310   2.231   9.509  0.6754 -0.5771 -0.0185
   61CHL1  H16A 6942   4.227   2.187   9.451  0.4633 -1.8704  1.2392
   61CHL1  H16B 6943   4.338   2.332   9.472  0.1026 -0.6543 -0.6738
   61CHL1   C17 6944   4.429   2.130   9.498  1.2808  0.1451  1.1572
   61CHL1   H17 6945   4.513   2.194   9.531 -2.0849  4.1795  2.4181
   61CHL1   C13 6946   4.399   2.028   9.611  0.0865 -0.1943 -0.2218
   61CHL1   C18 6947   4.275   1.943   9.574 -0.6383 -0.6027  0.5791
   61CHL1  H18A 6948   4.254   1.890   9.669  0.5099  0.0270  1.1971
   61CHL1  H18B 6949   4.195   2.015   9.548 -0.0814 -0.6326 -1.3487
   61CHL1  H18C 6950   4.299   1.866   9.497 -0.1925  0.3289 -0.2225
   61CHL1   C12 6951   4.521   1.945   9.664  0.5153  0.0883 -0.0238
   61CHL1  H12A 6952   4.547   1.864   9.593 -1.9684  0.3487 -1.2993
   61CHL1  H12B 6953   4.608   2.013   9.676  0.9694 -0.4469 -0.2520
   61CHL1   C11 6954   4.489   1.870   9.804  0.3996  0.1635  0.9849
   61CHL1  H11A 6955   4.411   1.798   9.770 -2.9278  3.6715  0.8649
   61CHL1  H11B 6956   4.575   1.805   9.829  1.4136  1.4196  0.7790
   61CHL1    C9 6957   4.437   1.961   9.912 -0.2461 -0.1560  0.9310
   61CHL1    H9 6958   4.523   2.029   9.930  1.0289 -1.1042 -1.3307
   61CHL1   C10 6959   4.411   1.894  10.055 -0.5473  0.2628 -0.2118
   61CHL1   C19 6960   4.323   1.768  10.030 -0.4947  0.3466  0.2681
   61CHL1  H19A 6961   4.377   1.708   9.953  0.5050 -1.9824  2.7259
   61CHL1  H19B 6962   4.316   1.708  10.123 -0.2232 -0.3094 -0.1282
   61CHL1  H19C 6963   4.217   1.784  10.001 -1.1309 -2.2581  0.9713
   61CHL1    C1 6964   4.544   1.848  10.112 -0.3432  0.0627 -0.1796
   61CHL1   H1A 6965   4.569   1.753  10.060  1.0840 -1.2303  2.7048
   61CHL1   H1B 6966   4.629   1.918  10.101 -0.2702 -0.2395 -1.5847
   61CHL1    C2 6967   4.549   1.812  10.256  0.6765  0.1165  0.3206
   61CHL1   H2A 6968   4.653   1.800  10.294  0.4034  0.8937  1.3709
   61CHL1   H2B 6969   4.508   1.712  10.280  0.7033  0.0834  0.2248
   61CHL1   C20 6970   4.456   2.078   9.354 -0.2596 -0.0518 -0.2125
   61CHL1   H20 6971   4.412   1.976   9.346  3.9437 -1.7728 -3.2152
   61CHL1   C21 6972   4.606   2.062   9.329  0.4174  0.2479  0.8103
   61CHL1  H21A 6973   4.651   2.015   9.419  1.1393  0.2493  0.4608
   61CHL1  H21B 6974   4.649   2.165   9.323 -1.3714  0.9120 -1.2650
   61CHL1  H21C 6975   4.631   1.995   9.243  0.4604  0.5281  0.6029
   61CHL1   C22 6976   4.388   2.160   9.239 -0.2426 -0.4487 -0.1483
   61CHL1  H22A 6977   4.277   2.161   9.240 -0.2405 -0.6701  0.0972
   61CHL1  H22B 6978   4.426   2.264   9.254 -0.6482 -0.5120  1.3450
   61CHL1   C23 6979   4.419   2.118   9.093  0.6095  0.2605  0.2641
   61CHL1  H23A 6980   4.530   2.127   9.082  0.5130  1.7042  0.4673
   61CHL1  H23B 6981   4.387   2.013   9.075  0.2875  0.4060 -0.0093
   61CHL1   C24 6982   4.376   2.219   8.987 -0.4220 -0.0792  0.6250
   61CHL1  H24A 6983   4.415   2.320   9.011  0.7099 -0.0135 -1.4575
   61CHL1  H24B 6984   4.423   2.172   8.898  1.7529  1.0515  1.1539
   61CHL1   C25 6985   4.225   2.239   8.962 -0.4858  0.0929 -0.2712
   61CHL1   H25 6986   4.189   2.298   9.049 -0.7825  1.0901 -1.0566
   61CHL1   C26 6987   4.205   2.326   8.836 -0.5991  0.0255  0.0724
   61CHL1  H26A 6988   4.262   2.421   8.841  1.4199 -1.2123  1.1194
   61CHL1  H26B 6989   4.233   2.265   8.748  1.4445 -0.6669  1.1668
   61CHL1  H26C 6990   4.095   2.339   8.836 -0.4577  1.2539  0.5581
   61CHL1   C27 6991   4.143   2.111   8.946  0.4040  0.4924  1.1827
   61CHL1  H27A 6992   4.033   2.129   8.949  0.2436  0.1067 -1.4122
   61CHL1  H27B 6993   4.169   2.060   8.851 -2.2573  0.4888  0.4293
   61CHL1  H27C 6994   4.173   2.036   9.023 -0.1051 -1.7388 -0.7155
   62CHL1    C3 6995   5.080   5.761  10.005  0.1553  0.7903  0.6878
   62CHL1    H3 6996   5.051   5.657  10.032  2.0429  0.3796  1.2625
   62CHL1    O3 6997   5.091   5.829  10.128  0.4095  0.0066 -0.9144
   62CHL1   H3' 6998   5.005   5.851  10.164 -0.3278 -1.0799 -2.0082
   62CHL1    C4 6999   5.214   5.754   9.932 -0.0225  0.3798  0.7130
   62CHL1   H4A 7000   5.266   5.852   9.921 -0.9680  0.7397 -0.6917
   62CHL1   H4B 7001   5.281   5.693   9.995  2.2620 -0.4540 -2.4168
   62CHL1    C5 7002   5.207   5.693   9.791 -0.4362  0.4310 -0.8807
   62CHL1    C6 7003   5.270   5.582   9.754 -0.1360 -0.1487  0.7557
   62CHL1    H6 7004   5.340   5.536   9.825  0.1883  1.2219  1.3435
   62CHL1    C7 7005   5.266   5.515   9.618  0.0761  0.5672 -0.0500
   62CHL1   H7A 7006   5.364   5.486   9.576  1.1747  1.9634  1.4570
   62CHL1   H7B 7007   5.201   5.426   9.627 -2.2906  2.5113  3.2596
   62CHL1    C8 7008   5.198   5.608   9.517 -0.4166  0.1349 -0.3854
   62CHL1    H8 7009   5.261   5.698   9.501 -0.0569  0.4114  2.2689
   62CHL1   C14 7010   5.171   5.535   9.383  0.1712  0.1156  0.2501
   62CHL1   H14 7011   5.107   5.447   9.406  1.5330 -1.3665 -1.3919
   62CHL1   C15 7012   5.295   5.469   9.313 -0.3986  0.6006  0.4755
   62CHL1  H15A 7013   5.389   5.523   9.337 -0.2312  0.4159  0.2413
   62CHL1  H15B 7014   5.306   5.370   9.363  0.3001  0.6052  0.3383
   62CHL1   C16 7015   5.248   5.445   9.166  0.0410 -0.3122  0.3423
   62CHL1  H16A 7016   5.315   5.505   9.100 -0.6558 -1.9433 -1.9228
   62CHL1  H16B 7017   5.250   5.341   9.125  0.9000  0.1055 -0.7184
   62CHL1   C17 7018   5.105   5.510   9.150 -0.4578 -0.8025 -0.6360
   62CHL1   H17 7019   5.028   5.432   9.167  0.0751 -0.8915  1.4890
   62CHL1   C13 7020   5.091   5.605   9.275  0.5609 -0.2325 -0.6785
   62CHL1   C18 7021   5.166   5.742   9.236 -0.4568  0.1536  0.4799
   62CHL1  H18A 7022   5.115   5.796   9.153 -1.4294 -1.6226 -0.1015
   62CHL1  H18B 7023   5.164   5.812   9.322  0.3823  0.8001 -0.0196
   62CHL1  H18C 7024   5.272   5.731   9.204  0.4259 -0.3174  3.4551
   62CHL1   C12 7025   4.958   5.625   9.345 -0.2612  0.1635  0.1448
   62CHL1  H12A 7026   4.892   5.678   9.274 -1.3184  0.4661  1.3385
   62CHL1  H12B 7027   4.918   5.525   9.372  0.5252 -0.0777  0.4264
   62CHL1   C11 7028   4.964   5.713   9.467  0.1408 -0.1474 -0.5205
   62CHL1  H11A 7029   4.992   5.815   9.433 -2.6587  0.6770 -0.4967
   62CHL1  H11B 7030   4.862   5.718   9.513  1.2034  2.9171  1.6409
   62CHL1    C9 7031   5.063   5.656   9.575 -0.7255  0.2283 -0.7322
   62CHL1    H9 7032   5.021   5.560   9.613 -1.0968  0.5105 -0.4405
   62CHL1   C10 7033   5.090   5.746   9.698 -0.4736  0.4091  0.3670
   62CHL1   C19 7034   5.131   5.895   9.652 -0.8575  0.7324  0.1537
   62CHL1  H19A 7035   5.049   5.933   9.587 -0.2055  1.3565 -0.3138
   62CHL1  H19B 7036   5.159   5.952   9.743 -1.1328  0.3951  0.4507
   62CHL1  H19C 7037   5.222   5.901   9.589 -0.3233 -1.8117  0.6171
   62CHL1    C1 7038   4.959   5.744   9.778 -0.4469  0.4192 -0.1355
   62CHL1   H1A 7039   4.885   5.801   9.718 -0.0767  2.1815  1.0336
   62CHL1   H1B 7040   4.923   5.640   9.792 -1.7274  0.6640 -1.4975
   62CHL1    C2 7041   4.967   5.822   9.917  0.5158  0.4194  0.0556
   62CHL1   H2A 7042   4.872   5.827   9.974  1.4468  0.1310  1.6722
   62CHL1   H2B 7043   5.002   5.925   9.894 -0.0700  0.3559 -1.1689
   62CHL1   C20 7044   5.067   5.569   9.009 -0.6854 -0.0064 -0.1698
   62CHL1   H20 7045   5.113   5.670   9.001 -0.2368 -0.0378  1.8370
   62CHL1   C21 7046   4.911   5.579   8.991 -0.6175 -0.1550 -0.4120
   62CHL1  H21A 7047   4.871   5.633   9.079  0.3181  0.5483 -0.4072
   62CHL1  H21B 7048   4.850   5.486   8.989 -0.9519 -0.0689  2.7846
   62CHL1  H21C 7049   4.879   5.630   8.898 -3.0726 -1.0077 -0.0623
   62CHL1   C22 7050   5.126   5.478   8.890 -0.1102 -0.5652 -0.2337
   62CHL1  H22A 7051   5.237   5.475   8.889 -0.0838  0.2905 -1.6430
   62CHL1  H22B 7052   5.083   5.375   8.890  0.4422 -0.7973 -1.0651
   62CHL1   C23 7053   5.076   5.526   8.756 -0.9349 -0.5157 -0.0286
   62CHL1  H23A 7054   4.968   5.506   8.738 -0.8051 -0.3333 -1.0245
   62CHL1  H23B 7055   5.080   5.636   8.744 -0.4979 -0.7111 -1.7710
   62CHL1   C24 7056   5.161   5.470   8.638 -0.3583  0.1480 -0.4821
   62CHL1  H24A 7057   5.248   5.540   8.635 -0.4025  0.2597  0.5366
   62CHL1  H24B 7058   5.202   5.375   8.677  0.9276  0.6477 -0.5711
   62CHL1   C25 7059   5.091   5.455   8.498  0.4576  0.1305  0.4114
   62CHL1   H25 7060   5.053   5.557   8.476  1.9980  0.9182  1.3565
   62CHL1   C26 7061   5.190   5.441   8.380 -0.1831 -0.4637 -1.1070
   62CHL1  H26A 7062   5.136   5.468   8.287 -0.1889  0.9084 -0.7085
   62CHL1  H26B 7063   5.252   5.531   8.397 -3.3342  1.4571  0.7487
   62CHL1  H26C 7064   5.245   5.344   8.377 -1.7045 -1.4150  0.6482
   62CHL1   C27 7065   4.971   5.352   8.497 -0.0134  0.0562  0.2287
   62CHL1  H27A 7066   4.909   5.371   8.407  1.8131 -2.6755 -1.6817
   62CHL1  H27B 7067   5.001   5.246   8.508 -1.3807 -0.1211  2.5994
   62CHL1  H27C 7068   4.898   5.377   8.577  1.0621 -2.9536  2.2551
   63CHL1    C3 7069   6.616   0.077  10.348 -0.6153 -1.0190  0.3676
   63CHL1    H3 7070   6.725   0.102  10.345 -0.6380 -0.8366  0.9292
   63CHL1    O3 7071   6.564   0.064  10.479  0.1667  0.1364  0.1272
   63CHL1   H3' 7072   6.469   0.079  10.467  0.2327  1.4863  1.1674
   63CHL1    C4 7073   6.532   0.176  10.268 -0.5718  0.3401  0.4048
   63CHL1   H4A 7074   6.425   0.147  10.269 -0.6018  0.4360 -0.5191
   63CHL1   H4B 7075   6.543   0.271  10.324  1.4287  2.0971 -2.8562
   63CHL1    C5 7076   6.594   0.190  10.130 -0.3314 -0.7221  0.3045
   63CHL1    C6 7077   6.642   0.305  10.089 -0.1474  0.2320  0.2476
   63CHL1    H6 7078   6.627   0.397  10.147 -1.3585 -0.3985  0.9542
   63CHL1    C7 7079   6.702   0.315   9.949  0.5234  0.3097  0.5206
   63CHL1   H7A 7080   6.672   0.413   9.907  2.8720  1.8636  2.3897
   63CHL1   H7B 7081   6.813   0.319   9.952  0.5288  0.6410 -0.1125
   63CHL1    C8 7082   6.664   0.203   9.853 -0.2759 -0.4392 -0.2653
   63CHL1    H8 7083   6.558   0.206   9.819  0.3081 -0.2610 -2.1620
   63CHL1   C14 7084   6.758   0.197   9.725 -0.2346 -0.3012  0.0780
   63CHL1   H14 7085   6.858   0.193   9.773 -0.0019  2.7008 -0.1114
   63CHL1   C15 7086   6.787   0.312   9.634 -0.4955  0.3006  0.5745
   63CHL1  H15A 7087   6.688   0.361   9.629 -0.9199 -0.5546  0.5751
   63CHL1  H15B 7088   6.864   0.383   9.672  0.3351  0.2917 -1.0245
   63CHL1   C16 7089   6.821   0.266   9.498  0.0821  0.1088  0.2054
   63CHL1  H16A 7090   6.733   0.282   9.431  0.7315  1.8574 -0.2683
   63CHL1  H16B 7091   6.913   0.309   9.453  0.0665  0.4079  0.4612
   63CHL1   C17 7092   6.831   0.108   9.509  0.9624 -0.4854 -0.2948
   63CHL1   H17 7093   6.930   0.075   9.549  1.9653  1.7456 -0.8611
   63CHL1   C13 7094   6.738   0.073   9.634 -0.4504 -0.5751  0.1766
   63CHL1   C18 7095   6.589   0.077   9.580  0.2188  0.5566 -0.7456
   63CHL1  H18A 7096   6.560   0.157   9.508  1.7542  0.6755 -1.2474
   63CHL1  H18B 7097   6.582  -0.016   9.519  0.8775 -1.0830  1.6188
   63CHL1  H18C 7098   6.514   0.071   9.661 -2.0692 -1.6714 -2.9378
   63CHL1   C12 7099   6.761  -0.053   9.714  0.2056 -0.3976 -0.3300
   63CHL1  H12A 7100   6.739  -0.139   9.647  1.4123  0.7248 -2.2093
   63CHL1  H12B 7101   6.869  -0.062   9.740 -0.1026 -1.6391  0.5388
   63CHL1   C11 7102   6.677  -0.063   9.841  0.1782  0.7013  0.5268
   63CHL1  H11A 7103   6.572  -0.085   9.812  0.4596  1.1504 -0.8703
   63CHL1  H11B 7104   6.709  -0.153   9.896  2.3921  0.5842 -0.8765
   63CHL1    C9 7105   6.674   0.069   9.925 -0.0656 -0.8328  0.4806
   63CHL1    H9 7106   6.779   0.082   9.960  0.8620 -2.8087 -1.4587
   63CHL1   C10 7107   6.584   0.057  10.050  0.3596 -0.3741  0.4795
   63CHL1   C19 7108   6.440   0.024  10.018  0.6355  0.1079  0.0407
   63CHL1  H19A 7109   6.384   0.019  10.113  2.8059 -0.6652  1.3220
   63CHL1  H19B 7110   6.386   0.095   9.952  0.7066  0.8277  0.7390
   63CHL1  H19C 7111   6.441  -0.080   9.980 -2.2521 -0.2002  0.7416
   63CHL1    C1 7112   6.653  -0.058  10.136  0.4475  0.2339 -0.4081
   63CHL1   H1A 7113   6.620  -0.151  10.085 -0.7127  0.1165  0.5471
   63CHL1   H1B 7114   6.763  -0.060  10.142  0.3708 -2.0553  0.6524
   63CHL1    C2 7115   6.598  -0.065  10.282 -0.1487  0.5611  0.3777
   63CHL1   H2A 7116   6.664  -0.138  10.334  0.2839  0.2097 -0.6656
   63CHL1   H2B 7117   6.492  -0.099  10.280 -0.3202  1.1624 -1.2320
   63CHL1   C20 7118   6.804   0.041   9.374 -0.0523 -0.0528 -0.1720
   63CHL1   H20 7119   6.697   0.058   9.349 -0.4480 -1.2805  0.6044
   63CHL1   C21 7120   6.810  -0.112   9.386  0.0334  0.2708 -0.0153
   63CHL1  H21A 7121   6.901  -0.159   9.430 -0.6528 -1.3818 -0.3021
   63CHL1  H21B 7122   6.810  -0.154   9.283  1.7377  1.4260 -0.5125
   63CHL1  H21C 7123   6.724  -0.152   9.444 -1.8775  1.0511 -2.2432
   63CHL1   C22 7124   6.901   0.088   9.261  0.2879 -0.6162 -1.0809
   63CHL1  H22A 7125   6.874   0.020   9.177  1.1345 -0.7051 -1.2836
   63CHL1  H22B 7126   6.864   0.190   9.238 -0.3141 -0.8534 -1.1775
   63CHL1   C23 7127   7.051   0.100   9.287 -0.2748 -0.0923  0.3296
   63CHL1  H23A 7128   7.077   0.149   9.383  0.4931 -1.1679  0.6836
   63CHL1  H23B 7129   7.089  -0.002   9.311 -1.1215 -0.4542  0.1619
   63CHL1   C24 7130   7.119   0.177   9.169 -0.4480 -0.4767 -0.2435
   63CHL1  H24A 7131   7.085   0.126   9.076 -1.7179  1.4856 -0.9145
   63CHL1  H24B 7132   7.087   0.283   9.156  1.8895  0.1394 -1.1828
   63CHL1   C25 7133   7.275   0.174   9.182 -0.4528  0.3433 -0.5415
   63CHL1   H25 7134   7.312   0.070   9.168 -1.4141  0.1061 -1.4100
   63CHL1   C26 7135   7.328   0.256   9.056 -0.0616 -0.3713  0.1306
   63CHL1  H26A 7136   7.295   0.223   8.956  1.3796  0.2820 -0.5848
   63CHL1  H26B 7137   7.282   0.356   9.069 -1.1876 -0.9684  0.8550
   63CHL1  H26C 7138   7.438   0.274   9.060 -0.2787  0.8162  0.9732
   63CHL1   C27 7139   7.333   0.218   9.322  0.7212  0.5963  0.7794
   63CHL1  H27A 7140   7.442   0.238   9.307  1.4354 -1.9488  2.2751
   63CHL1  H27B 7141   7.287   0.316   9.349  0.6438  0.8260 -0.1729
   63CHL1  H27C 7142   7.317   0.144   9.402  1.6276  1.1320  1.4706
   64CHL1    C3 7143   5.904   6.549  10.168  0.3804  0.3924  0.1156
   64CHL1    H3 7144   5.853   6.648  10.172 -1.7574 -0.6021 -1.5813
   64CHL1    O3 7145   5.951   6.515  10.299 -0.3956  0.6576  0.4012
   64CHL1   H3' 7146   5.875   6.513  10.358  0.8586 -0.5980  2.0228
   64CHL1    C4 7147   5.806   6.434  10.137 -0.4305 -0.2724 -1.0884
   64CHL1   H4A 7148   5.860   6.337  10.139  0.1673  0.0623 -0.6886
   64CHL1   H4B 7149   5.729   6.420  10.215  1.1303  1.2532  0.7778
   64CHL1    C5 7150   5.745   6.457  10.001  0.7363  0.5487  0.0277
   64CHL1    C6 7151   5.611   6.466   9.977 -0.0316  0.4348  0.3180
   64CHL1    H6 7152   5.539   6.446  10.058 -0.6747 -1.9924 -0.8267
   64CHL1    C7 7153   5.557   6.497   9.842 -0.6358 -0.1435  0.3600
   64CHL1   H7A 7154   5.465   6.436   9.825 -1.1244  0.6316  0.2236
   64CHL1   H7B 7155   5.524   6.603   9.844 -2.0323 -0.5703  0.6659
   64CHL1    C8 7156   5.650   6.474   9.725 -0.0230 -0.0463 -0.2367
   64CHL1    H8 7157   5.642   6.365   9.702  0.5225  0.1295 -1.2996
   64CHL1   C14 7158   5.599   6.551   9.603 -0.3936  0.4212 -0.1290
   64CHL1   H14 7159   5.610   6.655   9.642  2.0473 -0.7742  2.6029
   64CHL1   C15 7160   5.444   6.545   9.571 -0.0118 -0.0027 -0.0746
   64CHL1  H15A 7161   5.413   6.440   9.587 -2.2353  0.3370 -1.8556
   64CHL1  H15B 7162   5.380   6.609   9.636 -0.3482 -0.1899 -0.2210
   64CHL1   C16 7163   5.442   6.588   9.425  0.4076  0.0302 -1.0532
   64CHL1  H16A 7164   5.404   6.502   9.366 -2.1642  0.5621 -0.2532
   64CHL1  H16B 7165   5.380   6.679   9.406  0.3815 -0.5662 -3.9407
   64CHL1   C17 7166   5.586   6.618   9.380 -0.4320 -0.0782  0.0328
   64CHL1   H17 7167   5.606   6.722   9.415  0.0276  0.4380 -1.7268
   64CHL1   C13 7168   5.676   6.537   9.476  0.5244  0.2313 -0.3056
   64CHL1   C18 7169   5.669   6.390   9.430  0.2462  0.3104 -0.1416
   64CHL1  H18A 7170   5.562   6.360   9.426  0.9769 -2.1595 -3.2255
   64CHL1  H18B 7171   5.723   6.386   9.333  0.1618  0.6279 -0.2007
   64CHL1  H18C 7172   5.721   6.322   9.502  0.1769  1.9153  1.4674
   64CHL1   C12 7173   5.817   6.586   9.513 -0.3668  0.1772  0.7342
   64CHL1  H12A 7174   5.884   6.588   9.424 -0.5392 -0.2060  0.5957
   64CHL1  H12B 7175   5.799   6.692   9.538  0.0729  0.1470  1.1730
   64CHL1   C11 7176   5.884   6.520   9.632 -0.3980  0.1144  0.4420
   64CHL1  H11A 7177   5.911   6.416   9.604  0.0696  0.3773 -0.1044
   64CHL1  H11B 7178   5.978   6.573   9.659 -0.7908  0.2867  1.5276
   64CHL1    C9 7179   5.796   6.526   9.755  0.1146  0.2804  0.5447
   64CHL1    H9 7180   5.783   6.636   9.769  0.1082  0.4033 -0.3373
   64CHL1   C10 7181   5.850   6.477   9.890 -0.5784  0.5725 -0.1583
   64CHL1   C19 7182   5.902   6.335   9.857 -0.1177  0.3367 -0.2252
   64CHL1  H19A 7183   5.945   6.287   9.947 -2.0601  0.0866  0.5821
   64CHL1  H19B 7184   5.816   6.279   9.815 -0.1688  0.2831 -0.0521
   64CHL1  H19C 7185   5.983   6.335   9.781 -0.4915 -1.0744 -0.6377
   64CHL1    C1 7186   5.966   6.573   9.936  0.0367  0.4543  0.0088
   64CHL1   H1A 7187   6.044   6.582   9.857 -0.6222 -1.3919 -0.8842
   64CHL1   H1B 7188   5.921   6.674   9.941 -0.4098  0.2462  0.1639
   64CHL1    C2 7189   6.020   6.534  10.070 -0.5523  0.1514 -0.6777
   64CHL1   H2A 7190   6.112   6.593  10.091 -0.8210  0.2749  0.1943
   64CHL1   H2B 7191   6.061   6.431  10.087 -3.1096 -0.2077  4.4005
   64CHL1   C20 7192   5.625   6.617   9.232  0.1813 -0.1180  1.0189
   64CHL1   H20 7193   5.691   6.531   9.210  1.1695  0.8361  0.2456
   64CHL1   C21 7194   5.715   6.745   9.205  0.3462  0.3485 -0.3216
   64CHL1  H21A 7195   5.742   6.773   9.102 -0.6727 -0.8356 -0.9240
   64CHL1  H21B 7196   5.809   6.727   9.260 -0.0865  0.4308  0.4597
   64CHL1  H21C 7197   5.652   6.825   9.250 -0.3428 -0.2370 -0.2268
   64CHL1   C22 7198   5.500   6.605   9.140  0.0677 -0.1467 -0.1743
   64CHL1  H22A 7199   5.445   6.510   9.158  3.5758 -2.1975  0.2173
   64CHL1  H22B 7200   5.437   6.693   9.163 -1.0706 -1.2912  1.1791
   64CHL1   C23 7201   5.531   6.608   8.988 -0.8949  0.3750 -0.2524
   64CHL1  H23A 7202   5.587   6.697   8.950 -0.9298  1.0394  1.2478
   64CHL1  H23B 7203   5.585   6.513   8.966 -1.4917  0.0597 -0.3516
   64CHL1   C24 7204   5.395   6.600   8.918 -0.6344  0.0493 -0.2870
   64CHL1  H24A 7205   5.342   6.507   8.949 -0.4702 -0.6003 -1.9139
   64CHL1  H24B 7206   5.339   6.692   8.946 -0.5948  0.1527 -0.5457
   64CHL1   C25 7207   5.397   6.592   8.767 -0.8121  0.1477 -0.8379
   64CHL1   H25 7208   5.290   6.575   8.742 -1.1604  0.8112  0.2160
   64CHL1   C26 7209   5.443   6.711   8.689 -0.0764 -0.1493 -0.4949
   64CHL1  H26A 7210   5.438   6.704   8.578  2.2636  0.8950 -0.6988
   64CHL1  H26B 7211   5.382   6.799   8.719  1.0591  1.3616 -2.4714
   64CHL1  H26C 7212   5.549   6.728   8.718 -0.3041  0.7289 -0.1779
   64CHL1   C27 7213   5.476   6.470   8.724  0.3208 -0.8771  0.4239
   64CHL1  H27A 7214   5.483   6.471   8.613  0.5673 -2.3326  0.4151
   64CHL1  H27B 7215   5.578   6.472   8.768  0.0804  0.1108  0.9560
   64CHL1  H27C 7216   5.431   6.372   8.752 -1.8706 -0.2046 -0.5805
   65CHL1    C3 7217   1.350   3.717  10.181 -0.8001 -0.4138 -0.2785
   65CHL1    H3 7218   1.279   3.802  10.170  1.5979  1.5119 -1.2488
   65CHL1    O3 7219   1.392   3.720  10.314  0.2244 -0.2851  1.0571
   65CHL1   H3' 7220   1.447   3.798  10.329 -0.5796  0.5211 -0.1182
   65CHL1    C4 7221   1.296   3.581  10.140  0.1791  0.4628  0.3357
   65CHL1   H4A 7222   1.370   3.505  10.173 -0.0283 -0.1092 -0.4964
   65CHL1   H4B 7223   1.214   3.563  10.213 -0.3855 -1.5025 -0.7294
   65CHL1    C5 7224   1.267   3.568   9.996 -0.1128  0.5119 -0.2115
   65CHL1    C6 7225   1.144   3.544   9.948 -0.1952 -0.5921  0.1094
   65CHL1    H6 7226   1.063   3.508  10.013 -0.8063 -2.0867 -1.4161
   65CHL1    C7 7227   1.110   3.536   9.803  0.7323  0.4955  0.3785
   65CHL1   H7A 7228   1.047   3.448   9.779 -0.7498  1.3602  1.0279
   65CHL1   H7B 7229   1.049   3.625   9.776 -1.1523 -0.3444  1.7491
   65CHL1    C8 7230   1.230   3.517   9.702  0.5388  0.1017  0.1646
   65CHL1    H8 7231   1.275   3.416   9.720  0.9791  0.2220 -0.2482
   65CHL1   C14 7232   1.189   3.531   9.558 -0.4231  0.0882  0.9344
   65CHL1   H14 7233   1.137   3.627   9.541 -1.7873 -0.7824  0.0717
   65CHL1   C15 7234   1.091   3.435   9.498  0.5267  0.2214 -0.1523
   65CHL1  H15A 7235   1.120   3.328   9.505 -2.4975 -0.6192  0.0952
   65CHL1  H15B 7236   0.990   3.446   9.543  0.5829  0.4630 -0.0815
   65CHL1   C16 7237   1.097   3.471   9.348 -0.3778  0.5089  0.5327
   65CHL1  H16A 7238   1.085   3.377   9.289  0.1932  0.4053  0.5738
   65CHL1  H16B 7239   1.009   3.535   9.325 -1.0559 -0.0956  1.4163
   65CHL1   C17 7240   1.228   3.553   9.333  0.4898 -0.5113 -0.3870
   65CHL1   H17 7241   1.215   3.663   9.325  0.0371 -0.6882 -2.4745
   65CHL1   C13 7242   1.310   3.533   9.462  0.0899  0.4672  0.6611
   65CHL1   C18 7243   1.378   3.394   9.458 -0.1398  0.8239  0.9649
   65CHL1  H18A 7244   1.475   3.392   9.405  0.2361 -1.6223  1.6893
   65CHL1  H18B 7245   1.370   3.351   9.560 -0.7764  0.5457  0.8016
   65CHL1  H18C 7246   1.317   3.325   9.396  0.6499  0.1790  0.9144
   65CHL1   C12 7247   1.419   3.642   9.498  0.6293 -0.0202 -0.8548
   65CHL1  H12A 7248   1.504   3.647   9.426  0.9340  0.3027 -0.4706
   65CHL1  H12B 7249   1.359   3.736   9.497 -0.2123 -0.4997  1.5600
   65CHL1   C11 7250   1.462   3.624   9.648  0.3936 -0.5111  0.6084
   65CHL1  H11A 7251   1.535   3.541   9.642  0.7466 -0.2307  1.0045
   65CHL1  H11B 7252   1.516   3.721   9.654 -0.6208  0.0530  0.7759
   65CHL1    C9 7253   1.344   3.618   9.742 -0.2068  0.1525 -0.5608
   65CHL1    H9 7254   1.298   3.718   9.726 -0.3378 -0.0646 -1.5749
   65CHL1   C10 7255   1.383   3.610   9.897  0.0357 -0.2239  0.8415
   65CHL1   C19 7256   1.472   3.488   9.912 -0.2463 -0.3879  0.3216
   65CHL1  H19A 7257   1.518   3.488  10.013  0.0597 -2.2359  0.2043
   65CHL1  H19B 7258   1.428   3.387   9.893 -1.1788 -0.0829  0.8488
   65CHL1  H19C 7259   1.557   3.517   9.847 -2.1037  2.8576 -0.7653
   65CHL1    C1 7260   1.449   3.742   9.946 -0.1887  0.2782  0.0485
   65CHL1   H1A 7261   1.542   3.759   9.887 -0.1310  0.8634  0.3003
   65CHL1   H1B 7262   1.381   3.829   9.930 -1.7162 -0.8225  0.4386
   65CHL1    C2 7263   1.477   3.750  10.099  0.2109  0.1529  0.6295
   65CHL1   H2A 7264   1.521   3.849  10.127  0.3163 -0.0942  1.3643
   65CHL1   H2B 7265   1.555   3.674  10.120 -0.7198 -1.0232 -0.1665
   65CHL1   C20 7266   1.296   3.518   9.196 -0.0383 -0.0126 -0.0470
   65CHL1   H20 7267   1.320   3.410   9.193  0.3707  0.0305  1.0692
   65CHL1   C21 7268   1.435   3.586   9.175 -0.2580  0.1990 -0.2623
   65CHL1  H21A 7269   1.459   3.588   9.067 -1.6537  2.1587 -0.5678
   65CHL1  H21B 7270   1.512   3.529   9.233 -0.1110  0.7037  0.0425
   65CHL1  H21C 7271   1.437   3.687   9.222 -1.8386 -0.4825  1.3095
   65CHL1   C22 7272   1.203   3.553   9.079 -0.0653 -0.0792 -0.0229
   65CHL1  H22A 7273   1.093   3.542   9.093 -0.0780  0.9396  0.7811
   65CHL1  H22B 7274   1.240   3.655   9.056  1.0858 -0.9489 -2.1221
   65CHL1   C23 7275   1.249   3.475   8.953 -0.5740  0.3414  0.5588
   65CHL1  H23A 7276   1.359   3.475   8.935 -0.7307  2.0376 -0.5328
   65CHL1  H23B 7277   1.205   3.373   8.953  0.5705 -0.1888 -1.6120
   65CHL1   C24 7278   1.184   3.532   8.820 -0.2800  0.2251 -0.3414
   65CHL1  H24A 7279   1.073   3.529   8.815 -0.2374 -0.9494 -0.8666
   65CHL1  H24B 7280   1.204   3.641   8.817 -1.2529  0.4481  0.7315
   65CHL1   C25 7281   1.238   3.461   8.693 -0.3236  0.2850  0.2409
   65CHL1   H25 7282   1.349   3.469   8.701 -0.3205  0.6668 -0.1637
   65CHL1   C26 7283   1.200   3.315   8.694  0.9596  0.3238  0.6448
   65CHL1  H26A 7284   1.248   3.269   8.604  0.2460  2.1500 -0.6822
   65CHL1  H26B 7285   1.239   3.269   8.787 -2.2160 -0.1036  1.8289
   65CHL1  H26C 7286   1.091   3.297   8.690  0.6679  1.8598  1.6336
   65CHL1   C27 7287   1.188   3.532   8.565 -0.0577  0.9745  0.1057
   65CHL1  H27A 7288   1.077   3.530   8.561 -0.0106 -2.4422 -0.4456
   65CHL1  H27B 7289   1.222   3.638   8.573  0.2184  1.0418 -1.6057
   65CHL1  H27C 7290   1.237   3.490   8.475  1.1127  4.4381 -0.9734
   66CHL1    C3 7291   5.711   1.997  10.497 -0.1261  0.2337  0.4210
   66CHL1    H3 7292   5.636   1.927  10.454  1.2819 -0.8991 -0.2590
   66CHL1    O3 7293   5.726   1.970  10.639 -0.6312  0.0571  0.4763
   66CHL1   H3' 7294   5.660   2.028  10.677 -0.2580  0.6497  0.2171
   66CHL1    C4 7295   5.850   1.958  10.435 -0.2908  0.5897  1.0913
   66CHL1   H4A 7296   5.924   2.005  10.504  0.0820  0.7438  0.5829
   66CHL1   H4B 7297   5.845   1.847  10.442  2.2471  0.4750  1.8376
   66CHL1    C5 7298   5.878   2.003  10.291 -0.2565  0.4648  0.4159
   66CHL1    C6 7299   5.925   1.920  10.198  0.1193 -0.0313 -0.2277
   66CHL1    H6 7300   5.949   1.814  10.217 -2.4465 -0.3606  1.5646
   66CHL1    C7 7301   5.953   1.962  10.058 -0.0469 -0.2720  0.1661
   66CHL1   H7A 7302   6.057   1.929  10.042  0.3679  1.8093 -1.6029
   66CHL1   H7B 7303   5.889   1.900   9.991 -2.1199  1.6331  0.3104
   66CHL1    C8 7304   5.934   2.114  10.030  0.0286 -0.1283 -0.0974
   66CHL1    H8 7305   6.028   2.163  10.062  0.0573 -0.9464  1.1177
   66CHL1   C14 7306   5.907   2.137   9.876 -0.3223 -0.3619 -0.2933
   66CHL1   H14 7307   5.812   2.087   9.845 -0.2725 -0.6028 -0.0582
   66CHL1   C15 7308   6.006   2.078   9.772 -0.1403 -0.3238 -0.5605
   66CHL1  H15A 7309   6.113   2.099   9.795 -0.7523  1.3319  0.8232
   66CHL1  H15B 7310   5.989   1.968   9.768  0.5873 -0.6027  2.7044
   66CHL1   C16 7311   5.981   2.154   9.638  0.2093 -0.2169 -0.0455
   66CHL1  H16A 7312   6.077   2.196   9.602  1.2228 -1.6586  0.9391
   66CHL1  H16B 7313   5.945   2.101   9.547  1.0123  1.5130 -1.3921
   66CHL1   C17 7314   5.882   2.268   9.676  0.6421 -0.0084 -0.1467
   66CHL1   H17 7315   5.778   2.238   9.650 -0.1359  0.1522  2.6204
   66CHL1   C13 7316   5.890   2.284   9.833 -0.4790 -0.2694  0.5906
   66CHL1   C18 7317   6.018   2.370   9.856 -0.1502  0.1747  0.0321
   66CHL1  H18A 7318   6.041   2.363   9.965 -2.1321 -0.9430  0.3911
   66CHL1  H18B 7319   6.105   2.330   9.800  0.0874 -1.3959  1.4892
   66CHL1  H18C 7320   6.008   2.475   9.820 -3.2484  0.0998  0.5729
   66CHL1   C12 7321   5.767   2.336   9.911 -0.0956 -0.4612 -0.0146
   66CHL1  H12A 7322   5.757   2.443   9.883 -0.3394 -0.3365  0.5452
   66CHL1  H12B 7323   5.671   2.290   9.878  0.2162 -0.0224 -1.5638
   66CHL1   C11 7324   5.786   2.317  10.062 -0.6247 -0.5819 -0.0592
   66CHL1  H11A 7325   5.858   2.395  10.094  3.7696 -3.1924 -3.0161
   66CHL1  H11B 7326   5.699   2.347  10.123 -1.0434 -2.1602  0.1508
   66CHL1    C9 7327   5.820   2.172  10.107  0.5178 -0.1783 -0.4449
   66CHL1    H9 7328   5.732   2.115  10.072 -0.2517  0.4921  0.3946
   66CHL1   C10 7329   5.826   2.143  10.260 -0.1344 -1.0007 -0.0232
   66CHL1   C19 7330   5.926   2.239  10.317  0.0621 -0.1435 -0.1658
   66CHL1  H19A 7331   5.902   2.347  10.312 -2.4461 -0.7097 -0.7603
   66CHL1  H19B 7332   5.950   2.214  10.423  0.9715 -3.4565 -1.1022
   66CHL1  H19C 7333   6.023   2.231  10.263  0.3326  0.1342  0.2776
   66CHL1    C1 7334   5.687   2.166  10.321 -0.1396  0.9168 -0.5134
   66CHL1   H1A 7335   5.643   2.267  10.309  2.4234  2.0381 -0.8922
   66CHL1   H1B 7336   5.606   2.108  10.271 -0.6507  0.6564  0.6037
   66CHL1    C2 7337   5.674   2.134  10.464  0.3836 -0.4282 -0.5717
   66CHL1   H2A 7338   5.572   2.154  10.503  0.1579 -0.1008 -1.3141
   66CHL1   H2B 7339   5.735   2.206  10.522 -0.0692  0.7813 -1.5832
   66CHL1   C20 7340   5.906   2.392   9.589 -0.3183  0.3993 -0.0844
   66CHL1   H20 7341   6.008   2.432   9.602 -0.4491  1.5017 -2.2640
   66CHL1   C21 7342   5.795   2.498   9.611 -0.1085  0.3465  0.5772
   66CHL1  H21A 7343   5.815   2.544   9.710  0.7656 -0.2482  0.6791
   66CHL1  H21B 7344   5.692   2.456   9.609 -0.1477  0.2600  3.1020
   66CHL1  H21C 7345   5.794   2.584   9.541 -0.4204 -0.6764 -0.6972
   66CHL1   C22 7346   5.895   2.352   9.434 -0.0943  0.2308 -0.1737
   66CHL1  H22A 7347   5.885   2.447   9.378  0.8733  0.6831  0.4238
   66CHL1  H22B 7348   5.993   2.306   9.413 -1.2438 -3.1277  1.4160
   66CHL1   C23 7349   5.780   2.259   9.398 -0.2979  0.1302 -0.1833
   66CHL1  H23A 7350   5.800   2.158   9.441 -2.5745  0.9235  2.9492
   66CHL1  H23B 7351   5.685   2.298   9.439 -0.0711  2.3092 -1.6723
   66CHL1   C24 7352   5.757   2.241   9.251 -0.4835 -0.2761  0.3488
   66CHL1  H24A 7353   5.668   2.177   9.231 -2.9714  3.4524 -0.9132
   66CHL1  H24B 7354   5.739   2.345   9.216 -0.9116 -0.2382  0.6771
   66CHL1   C25 7355   5.865   2.174   9.170  0.4247 -0.6372  0.5151
   66CHL1   H25 7356   5.964   2.216   9.200  0.9321 -1.2057 -0.3451
   66CHL1   C26 7357   5.871   2.020   9.204 -0.7215 -0.2357  0.7462
   66CHL1  H26A 7358   5.902   2.016   9.310 -1.6523 -0.4956  1.0149
   66CHL1  H26B 7359   5.770   1.976   9.187 -1.5920  0.7266  3.2033
   66CHL1  H26C 7360   5.952   1.980   9.140 -1.3731  0.4449 -0.5318
   66CHL1   C27 7361   5.842   2.185   9.023  0.2892 -0.5249 -0.4993
   66CHL1  H27A 7362   5.757   2.132   8.976 -1.7699  2.0654  0.1342
   66CHL1  H27B 7363   5.831   2.295   9.006  0.2569  0.2392  3.9218
   66CHL1  H27C 7364   5.931   2.142   8.974  0.4692 -0.1904 -0.4734
   67CHL1    C3 7365   3.435   2.289  10.460 -0.1175 -0.2154  0.6179
   67CHL1    H3 7366   3.489   2.385  10.471 -0.6353  0.2925 -1.0093
   67CHL1    O3 7367   3.423   2.232  10.588 -0.4478 -0.2296  0.3644
   67CHL1   H3' 7368   3.417   2.138  10.568 -1.1741  0.0664 -0.8885
   67CHL1    C4 7369   3.299   2.323  10.398 -0.0108 -0.8664 -0.4645
   67CHL1   H4A 7370   3.235   2.232  10.400  0.2515 -1.0285  0.3918
   67CHL1   H4B 7371   3.244   2.391  10.466 -0.3554 -2.6008  1.0183
   67CHL1    C5 7372   3.313   2.369  10.256  0.4975  0.4353  0.1606
   67CHL1    C6 7373   3.255   2.482  10.211 -0.4523 -0.0729  0.5114
   67CHL1    H6 7374   3.194   2.531  10.287 -2.6794 -1.3035 -0.4434
   67CHL1    C7 7375   3.252   2.524  10.066 -0.2109 -0.4044 -0.1235
   67CHL1   H7A 7376   3.148   2.543  10.030  0.0210 -0.1590 -0.6780
   67CHL1   H7B 7377   3.318   2.613  10.059  1.3572 -1.3785  2.1743
   67CHL1    C8 7378   3.297   2.413   9.966  0.3332  0.5065  0.3615
   67CHL1    H8 7379   3.213   2.341   9.967  2.6748 -2.3691 -0.6427
   67CHL1   C14 7380   3.316   2.480   9.831  0.6841 -0.1455 -0.4487
   67CHL1   H14 7381   3.407   2.543   9.836 -0.2905  1.4632 -2.1602
   67CHL1   C15 7382   3.205   2.564   9.773 -0.2485 -0.1064 -0.1082
   67CHL1  H15A 7383   3.107   2.513   9.787 -0.0466 -0.5927 -0.4359
   67CHL1  H15B 7384   3.198   2.662   9.824 -2.1395 -0.7482  0.9051
   67CHL1   C16 7385   3.244   2.582   9.630 -0.8142 -0.1315  0.0793
   67CHL1  H16A 7386   3.156   2.578   9.562  0.2174  2.1426 -1.4640
   67CHL1  H16B 7387   3.287   2.684   9.622  0.9353 -0.7730  1.0612
   67CHL1   C17 7388   3.363   2.487   9.601 -0.0059  0.1885  0.4744
   67CHL1   H17 7389   3.456   2.546   9.616  1.0979 -1.4005  0.0268
   67CHL1   C13 7390   3.361   2.383   9.720 -0.0039 -0.7970 -0.0143
   67CHL1   C18 7391   3.247   2.285   9.701 -0.3526  0.1044 -0.0375
   67CHL1  H18A 7392   3.149   2.327   9.668  0.0779 -0.1969 -1.7326
   67CHL1  H18B 7393   3.278   2.233   9.608  0.0584 -0.8003  0.5980
   67CHL1  H18C 7394   3.240   2.214   9.786  0.5710  0.8005  0.6351
   67CHL1   C12 7395   3.487   2.316   9.770  1.0213 -0.8453 -0.2208
   67CHL1  H12A 7396   3.526   2.233   9.709  0.6133 -2.2670  1.4166
   67CHL1  H12B 7397   3.565   2.395   9.772 -0.1897  0.4770 -2.6573
   67CHL1   C11 7398   3.481   2.252   9.907 -0.1926  0.1012 -0.1586
   67CHL1  H11A 7399   3.420   2.160   9.896 -1.4497  1.1563 -2.2585
   67CHL1  H11B 7400   3.581   2.213   9.935 -1.6824 -4.0071 -0.2683
   67CHL1    C9 7401   3.416   2.341  10.019 -0.2846 -0.1423  0.3335
   67CHL1    H9 7402   3.494   2.417  10.040 -0.0011 -0.4388  0.3456
   67CHL1   C10 7403   3.390   2.273  10.158 -1.1361 -0.2897  0.7648
   67CHL1   C19 7404   3.321   2.134  10.128  0.1655  0.0789 -0.3860
   67CHL1  H19A 7405   3.236   2.141  10.057  1.5585  1.9347 -1.9233
   67CHL1  H19B 7406   3.391   2.060  10.083 -0.1795  0.2274 -1.1770
   67CHL1  H19C 7407   3.285   2.081  10.219 -1.7829  0.6155 -0.8221
   67CHL1    C1 7408   3.527   2.245  10.232 -0.4797 -0.8392  0.0390
   67CHL1   H1A 7409   3.595   2.176  10.178  0.0732 -1.4999  1.5610
   67CHL1   H1B 7410   3.576   2.344  10.229  0.5971 -1.3913 -0.6661
   67CHL1    C2 7411   3.520   2.198  10.369  0.0390  0.2352  0.0596
   67CHL1   H2A 7412   3.623   2.187  10.407 -0.2720 -2.8787  0.1681
   67CHL1   H2B 7413   3.490   2.091  10.379  0.4417  0.0817 -0.3623
   67CHL1   C20 7414   3.359   2.426   9.461  0.1316  0.7557  0.0982
   67CHL1   H20 7415   3.261   2.380   9.439 -0.4526  1.3526  1.3848
   67CHL1   C21 7416   3.471   2.325   9.429  0.0119 -0.2754  0.2326
   67CHL1  H21A 7417   3.467   2.282   9.327  0.1319  3.0649 -1.2297
   67CHL1  H21B 7418   3.467   2.235   9.494 -0.0819  0.1226  0.7822
   67CHL1  H21C 7419   3.567   2.379   9.445  0.1502 -0.0926 -1.1386
   67CHL1   C22 7420   3.360   2.538   9.357 -0.0750  0.3868 -0.6757
   67CHL1  H22A 7421   3.272   2.605   9.370  0.3087  0.5764  0.9990
   67CHL1  H22B 7422   3.448   2.603   9.376 -0.5040  0.7729  0.0264
   67CHL1   C23 7423   3.342   2.505   9.207 -0.2454  0.5870  0.8968
   67CHL1  H23A 7424   3.433   2.448   9.178 -2.7707 -4.5125  2.3759
   67CHL1  H23B 7425   3.251   2.444   9.188 -1.9723  3.1172  0.9172
   67CHL1   C24 7426   3.322   2.632   9.112  0.2264  0.9773 -0.1799
   67CHL1  H24A 7427   3.239   2.688   9.161 -0.6305  0.7188 -1.3140
   67CHL1  H24B 7428   3.415   2.693   9.119 -0.3120  1.6705  0.9497
   67CHL1   C25 7429   3.281   2.593   8.968 -0.3434  0.6202 -0.0322
   67CHL1   H25 7430   3.198   2.519   8.974 -0.3451  0.3987 -2.4653
   67CHL1   C26 7431   3.221   2.716   8.897 -0.6519 -0.0678 -0.4733
   67CHL1  H26A 7432   3.166   2.679   8.808  1.0985  0.8342 -1.9638
   67CHL1  H26B 7433   3.154   2.758   8.976 -1.2729 -0.7246 -0.6565
   67CHL1  H26C 7434   3.296   2.788   8.856 -2.3708  0.8311 -2.1141
   67CHL1   C27 7435   3.390   2.537   8.880 -0.1290  0.7853 -0.4491
   67CHL1  H27A 7436   3.464   2.467   8.924  0.7094  1.6611 -0.4438
   67CHL1  H27B 7437   3.340   2.483   8.797  1.0556 -1.0587  0.0086
   67CHL1  H27C 7438   3.458   2.616   8.842 -1.3510  1.1445 -1.9421
   68CHL1    C3 7439   1.165   3.284  10.355 -0.0911 -0.0854 -0.4166
   68CHL1    H3 7440   1.141   3.384  10.313 -0.6558  0.3682  0.9511
   68CHL1    O3 7441   1.202   3.307  10.494  0.2442 -0.0560 -0.1554
   68CHL1   H3' 7442   1.279   3.364  10.485 -0.6013  1.0676 -0.3705
   68CHL1    C4 7443   1.041   3.188  10.352 -0.6823  0.2895 -0.2835
   68CHL1   H4A 7444   1.067   3.088  10.394  3.1558  1.3900  0.1199
   68CHL1   H4B 7445   0.957   3.224  10.415 -1.7607  0.6292 -1.8711
   68CHL1    C5 7446   1.004   3.173  10.207 -0.2196 -0.5462  0.2015
   68CHL1    C6 7447   0.884   3.221  10.164 -0.5152  0.3059 -0.4434
   68CHL1    H6 7448   0.811   3.275  10.226  2.1882  1.7305  1.6340
   68CHL1    C7 7449   0.849   3.208  10.023  0.6692  0.1403  0.1028
   68CHL1   H7A 7450   0.741   3.189  10.009  1.0390 -1.6651 -0.4386
   68CHL1   H7B 7451   0.850   3.307   9.974 -0.6541  0.5299  0.8410
   68CHL1    C8 7452   0.938   3.106   9.941  0.3845  0.6688 -0.2051
   68CHL1    H8 7453   0.918   3.005   9.982 -1.0840  1.7534  1.8348
   68CHL1   C14 7454   0.913   3.115   9.784 -0.3101  0.4034 -0.2416
   68CHL1   H14 7455   0.925   3.222   9.759 -0.9467  0.2254 -1.3051
   68CHL1   C15 7456   0.772   3.078   9.739  0.2561 -0.1737 -0.2504
   68CHL1  H15A 7457   0.739   2.986   9.792  2.0690 -1.1612 -0.8131
   68CHL1  H15B 7458   0.695   3.159   9.747 -0.3051 -0.6895 -0.4109
   68CHL1   C16 7459   0.791   3.065   9.590 -0.2627 -0.3395 -0.1760
   68CHL1  H16A 7460   0.740   2.977   9.546 -0.5315 -1.8268  2.9798
   68CHL1  H16B 7461   0.753   3.153   9.535 -1.7987 -0.0132  1.3827
   68CHL1   C17 7462   0.940   3.053   9.558 -1.1104  0.0262  0.0157
   68CHL1   H17 7463   0.979   3.152   9.526 -0.0658 -1.2181 -2.6667
   68CHL1   C13 7464   1.004   3.033   9.696  0.0255  0.1054  0.4492
   68CHL1   C18 7465   0.986   2.881   9.724 -0.0033 -0.1780  0.5296
   68CHL1  H18A 7466   1.056   2.812   9.672  0.2699  0.4641  0.0411
   68CHL1  H18B 7467   1.016   2.852   9.827  3.0098 -3.2409 -1.1289
   68CHL1  H18C 7468   0.883   2.841   9.709  0.0316 -0.7123  1.6708
   68CHL1   C12 7469   1.149   3.083   9.733 -0.2110 -0.1387 -0.0835
   68CHL1  H12A 7470   1.222   3.038   9.662 -2.2904 -2.2058 -0.9887
   68CHL1  H12B 7471   1.157   3.193   9.723  1.5000 -0.3548 -1.4555
   68CHL1   C11 7472   1.183   3.062   9.876 -0.6156  0.3577 -0.7897
   68CHL1  H11A 7473   1.195   2.955   9.899 -0.9355  0.6371  0.6861
   68CHL1  H11B 7474   1.281   3.110   9.896  0.3190 -0.7114 -2.6108
   68CHL1    C9 7475   1.081   3.130   9.973 -0.0659 -0.2216 -0.3337
   68CHL1    H9 7476   1.096   3.239   9.956 -1.0766 -0.0187  0.0533
   68CHL1   C10 7477   1.117   3.112  10.121 -0.1130 -0.1226 -0.1975
   68CHL1   C19 7478   1.145   2.964  10.163  0.3610 -0.1009 -0.2414
   68CHL1  H19A 7479   1.157   2.952  10.272 -1.0743 -1.1804 -0.1799
   68CHL1  H19B 7480   1.055   2.906  10.132 -0.1560  0.7577 -0.3750
   68CHL1  H19C 7481   1.238   2.931  10.112  1.5774  0.1509  1.7965
   68CHL1    C1 7482   1.256   3.183  10.145 -0.1304  0.4172  0.7733
   68CHL1   H1A 7483   1.337   3.116  10.108  0.8415  2.5528 -1.0674
   68CHL1   H1B 7484   1.249   3.276  10.085 -1.8831 -0.4769 -0.4656
   68CHL1    C2 7485   1.285   3.222  10.291 -0.3335 -0.4752 -0.3014
   68CHL1   H2A 7486   1.381   3.278  10.294 -0.6911  0.1162  0.5875
   68CHL1   H2B 7487   1.311   3.132  10.350  2.7216 -0.7729 -1.9855
   68CHL1   C20 7488   0.972   2.955   9.444 -0.5207  0.4746  0.5503
   68CHL1   H20 7489   0.933   2.855   9.472  0.5805  0.6957  2.9825
   68CHL1   C21 7490   1.127   2.951   9.421 -0.4232 -0.0711  0.0403
   68CHL1  H21A 7491   1.181   3.047   9.432 -0.8822  0.5919 -3.0386
   68CHL1  H21B 7492   1.143   2.902   9.322  2.0979  2.2661 -0.7494
   68CHL1  H21C 7493   1.171   2.889   9.502  3.8389  0.8288 -1.4742
   68CHL1   C22 7494   0.905   3.000   9.309  0.1770  0.1240 -0.4250
   68CHL1  H22A 7495   0.942   2.930   9.231  0.8226 -0.0524  0.0314
   68CHL1  H22B 7496   0.799   2.973   9.322  0.2007  0.4496  0.4724
   68CHL1   C23 7497   0.922   3.145   9.263  0.2832  0.0058 -0.1261
   68CHL1  H23A 7498   0.878   3.204   9.346 -0.3395 -0.0156 -0.4385
   68CHL1  H23B 7499   1.030   3.166   9.247  0.0852  0.0627 -1.4306
   68CHL1   C24 7500   0.850   3.172   9.132  0.1498 -0.2211  0.2680
   68CHL1  H24A 7501   0.892   3.094   9.064  1.3430  0.2993  0.3977
   68CHL1  H24B 7502   0.740   3.153   9.130  0.4303 -1.8318 -1.1675
   68CHL1   C25 7503   0.866   3.315   9.072  0.7243 -0.4056  0.0806
   68CHL1   H25 7504   0.973   3.344   9.077  0.2602  1.1904  1.2285
   68CHL1   C26 7505   0.816   3.309   8.931 -0.1599  0.2883 -0.0300
   68CHL1  H26A 7506   0.831   3.410   8.888  1.6111  0.6222  1.2735
   68CHL1  H26B 7507   0.870   3.232   8.872 -1.7282 -0.7060 -0.1921
   68CHL1  H26C 7508   0.710   3.277   8.933 -0.2370  0.4791 -0.9445
   68CHL1   C27 7509   0.781   3.420   9.154  0.0923  0.3186 -0.4950
   68CHL1  H27A 7510   0.826   3.447   9.252 -1.1636  1.0762 -0.1104
   68CHL1  H27B 7511   0.759   3.513   9.096 -2.4437 -0.9184 -1.6259
   68CHL1  H27C 7512   0.685   3.372   9.183 -0.8974  1.8301 -1.1918
   69CHL1    C3 7513   1.291   0.770   6.840 -0.5492 -0.3747  1.2619
   69CHL1    H3 7514   1.344   0.675   6.818 -0.4433  0.0156 -0.2083
   69CHL1    O3 7515   1.263   0.850   6.730 -0.1248  0.3611 -0.1767
   69CHL1   H3' 7516   1.206   0.802   6.668 -1.0172  1.2776 -0.0880
   69CHL1    C4 7517   1.153   0.736   6.905  0.7493  0.3843  0.1514
   69CHL1   H4A 7518   1.096   0.831   6.907  0.3719  0.1828 -0.8700
   69CHL1   H4B 7519   1.099   0.679   6.827 -0.3307  0.2925  0.9564
   69CHL1    C5 7520   1.164   0.663   7.037  0.9147 -0.6343  0.2178
   69CHL1    C6 7521   1.106   0.546   7.060 -0.2479 -0.2495  0.7077
   69CHL1    H6 7522   1.037   0.499   6.988 -2.4661  0.2432  2.4836
   69CHL1    C7 7523   1.113   0.480   7.199  0.5546 -0.0999  0.4476
   69CHL1   H7A 7524   1.009   0.452   7.226  0.7126  0.8093  1.9853
   69CHL1   H7B 7525   1.164   0.381   7.191 -1.8026 -1.1833 -2.6294
   69CHL1    C8 7526   1.174   0.563   7.318 -0.8037 -0.0901 -0.6103
   69CHL1    H8 7527   1.105   0.646   7.345 -0.6116  0.1466 -0.8419
   69CHL1   C14 7528   1.208   0.470   7.438  0.4262  0.3889 -0.5279
   69CHL1   H14 7529   1.272   0.387   7.400 -0.2549 -0.6181  0.4949
   69CHL1   C15 7530   1.087   0.382   7.500 -0.2748  0.5952 -0.3948
   69CHL1  H15A 7531   1.008   0.458   7.519 -1.3055 -0.8974  1.3997
   69CHL1  H15B 7532   1.057   0.310   7.421  0.1378 -1.0105  0.8812
   69CHL1   C16 7533   1.154   0.338   7.629  0.9568  0.0657  0.4289
   69CHL1  H16A 7534   1.089   0.353   7.718  0.8548  3.3024 -0.1361
   69CHL1  H16B 7535   1.193   0.234   7.638 -1.6046 -1.1167 -1.4158
   69CHL1   C17 7536   1.290   0.424   7.648 -0.4066 -0.2274 -0.3557
   69CHL1   H17 7537   1.369   0.363   7.598  1.9096  2.7041 -0.4267
   69CHL1   C13 7538   1.285   0.538   7.549  0.0247 -0.6550  0.6976
   69CHL1   C18 7539   1.214   0.663   7.605  0.2136  0.0603  0.0146
   69CHL1  H18A 7540   1.182   0.733   7.526 -2.8158  0.4340  1.4982
   69CHL1  H18B 7541   1.126   0.620   7.658 -0.0084 -0.3657 -0.6953
   69CHL1  H18C 7542   1.275   0.720   7.678  0.8980 -0.3182 -0.2593
   69CHL1   C12 7543   1.408   0.587   7.481 -0.2806  0.4587 -0.4395
   69CHL1  H12A 7544   1.487   0.627   7.549 -0.7683  0.0184  0.3935
   69CHL1  H12B 7545   1.471   0.503   7.445 -0.9025 -0.0209 -0.4097
   69CHL1   C11 7546   1.389   0.692   7.369  0.0101  0.5979 -0.2927
   69CHL1  H11A 7547   1.331   0.774   7.418  1.5407  1.4477  0.1383
   69CHL1  H11B 7548   1.489   0.728   7.338  0.1082  0.8435  0.2919
   69CHL1    C9 7549   1.298   0.633   7.258 -0.5329  0.1995 -0.9220
   69CHL1    H9 7550   1.348   0.552   7.202  1.8832  0.5612  0.6208
   69CHL1   C10 7551   1.258   0.732   7.137 -0.6548 -0.1921  0.2809
   69CHL1   C19 7552   1.181   0.852   7.176  0.0916  0.3913  0.2122
   69CHL1  H19A 7553   1.076   0.833   7.206  0.2209 -1.4682 -0.4236
   69CHL1  H19B 7554   1.240   0.892   7.261 -1.1489  2.5889  0.0626
   69CHL1  H19C 7555   1.177   0.928   7.095 -2.4010 -0.8572 -0.8909
   69CHL1    C1 7556   1.396   0.770   7.070  0.0841  0.2124 -0.5312
   69CHL1   H1A 7557   1.457   0.836   7.135  0.2194 -1.2568  0.8323
   69CHL1   H1B 7558   1.451   0.677   7.044  1.3497  0.2414  1.9731
   69CHL1    C2 7559   1.373   0.847   6.937  0.1486  0.1342 -0.0459
   69CHL1   H2A 7560   1.471   0.870   6.889  0.5640 -2.0584 -0.2939
   69CHL1   H2B 7561   1.325   0.946   6.951 -2.5575 -1.0649 -0.5233
   69CHL1   C20 7562   1.345   0.436   7.797 -0.2122 -0.0339 -0.0623
   69CHL1   H20 7563   1.282   0.505   7.858  3.1828  1.3413  2.0211
   69CHL1   C21 7564   1.491   0.493   7.808  0.5558 -0.6875 -0.6412
   69CHL1  H21A 7565   1.481   0.597   7.769 -0.3820 -0.6293 -0.2486
   69CHL1  H21B 7566   1.571   0.425   7.770 -0.1011 -3.2584  2.3814
   69CHL1  H21C 7567   1.505   0.509   7.917 -3.3633 -0.3189 -0.1283
   69CHL1   C22 7568   1.344   0.294   7.859  0.1971 -0.1858 -0.0597
   69CHL1  H22A 7569   1.237   0.264   7.853 -0.2215  1.4382 -1.0107
   69CHL1  H22B 7570   1.409   0.241   7.787 -0.7428 -0.7022 -0.5327
   69CHL1   C23 7571   1.389   0.290   8.004 -0.0145 -0.1822  0.6262
   69CHL1  H23A 7572   1.500   0.294   8.008  0.0489 -1.3650  0.2636
   69CHL1  H23B 7573   1.360   0.389   8.046 -0.4792  0.3806 -0.9875
   69CHL1   C24 7574   1.333   0.169   8.082  0.1949  0.4319  0.9078
   69CHL1  H24A 7575   1.223   0.178   8.088 -0.0645 -0.5201 -2.0309
   69CHL1  H24B 7576   1.351   0.078   8.022  0.1226  1.3985 -0.6070
   69CHL1   C25 7577   1.377   0.165   8.229 -0.7442 -0.4842  0.9945
   69CHL1   H25 7578   1.484   0.138   8.234 -0.3971  0.3633 -1.1168
   69CHL1   C26 7579   1.360   0.294   8.307 -0.2009 -0.2289 -1.3564
   69CHL1  H26A 7580   1.252   0.308   8.328  0.0230 -0.7678  0.3067
   69CHL1  H26B 7581   1.415   0.272   8.401 -1.2415 -0.3709 -0.7748
   69CHL1  H26C 7582   1.404   0.385   8.261  0.8276 -0.8090 -1.5385
   69CHL1   C27 7583   1.297   0.053   8.303  0.7926  0.2423 -0.4555
   69CHL1  H27A 7584   1.197   0.090   8.332  1.1211  0.5777  0.2622
   69CHL1  H27B 7585   1.285  -0.048   8.259  1.0374  0.3011 -0.6594
   69CHL1  H27C 7586   1.351   0.046   8.400  1.1042 -2.0596 -0.7795
   70CHL1    C3 7587   0.951   4.501   7.010 -1.0696 -0.0252  0.4509
   70CHL1    H3 7588   0.899   4.599   7.019 -1.6010 -0.4631  2.2388
   70CHL1    O3 7589   0.982   4.469   6.871  0.3601  0.4847 -0.3213
   70CHL1   H3' 7590   0.901   4.433   6.835  0.2289  0.3746  0.0888
   70CHL1    C4 7591   1.094   4.507   7.079 -0.5499 -0.8078  0.1741
   70CHL1   H4A 7592   1.157   4.421   7.048  1.4813  0.4097  0.8119
   70CHL1   H4B 7593   1.138   4.600   7.037 -1.6979 -0.8982 -1.2462
   70CHL1    C5 7594   1.071   4.519   7.228  0.1165 -0.1127 -0.1162
   70CHL1    C6 7595   1.123   4.623   7.293  0.4922 -0.3042  0.0189
   70CHL1    H6 7596   1.190   4.694   7.241  0.3647  0.3798  0.7749
   70CHL1    C7 7597   1.100   4.653   7.441  0.0198  0.3527  0.2728
   70CHL1   H7A 7598   1.194   4.690   7.487 -1.0528  0.6104  2.2960
   70CHL1   H7B 7599   1.018   4.726   7.456 -2.4044 -2.3982  0.8713
   70CHL1    C8 7600   1.061   4.519   7.508  0.8399  0.2767 -0.3243
   70CHL1    H8 7601   1.147   4.450   7.499 -2.1042 -3.6479  0.0809
   70CHL1   C14 7602   1.020   4.546   7.652  0.6576  0.0951  0.3520
   70CHL1   H14 7603   0.941   4.624   7.656 -0.9650 -1.5712  1.8640
   70CHL1   C15 7604   1.121   4.618   7.743  0.5802 -0.4124  0.9978
   70CHL1  H15A 7605   1.219   4.565   7.740  1.1457  0.4530  2.9538
   70CHL1  H15B 7606   1.122   4.726   7.716 -1.0986 -0.8033 -0.6794
   70CHL1   C16 7607   1.056   4.596   7.879 -0.0893  0.1075  0.4921
   70CHL1  H16A 7608   1.138   4.560   7.945 -2.1068 -0.9844  2.4689
   70CHL1  H16B 7609   1.016   4.689   7.924 -1.0221 -0.0761  0.0496
   70CHL1   C17 7610   0.949   4.480   7.869 -0.3347  0.1148 -0.0852
   70CHL1   H17 7611   0.851   4.531   7.875  0.4035  1.4343  1.0982
   70CHL1   C13 7612   0.969   4.428   7.728 -0.5048  0.4702 -0.1808
   70CHL1   C18 7613   1.071   4.305   7.736  0.2121  0.2184 -0.3539
   70CHL1  H18A 7614   1.039   4.214   7.791 -0.4514 -1.5631 -3.5587
   70CHL1  H18B 7615   1.095   4.277   7.631 -2.8084 -2.2168 -0.4724
   70CHL1  H18C 7616   1.164   4.333   7.789 -0.9322  1.3968  1.0726
   70CHL1   C12 7617   0.835   4.382   7.659 -0.5401 -0.8405  0.2837
   70CHL1  H12A 7618   0.796   4.295   7.716  0.4878 -1.4873  0.0009
   70CHL1  H12B 7619   0.749   4.450   7.679 -2.0766 -2.6389 -0.0389
   70CHL1   C11 7620   0.861   4.341   7.512  0.2800 -0.0046 -0.4775
   70CHL1  H11A 7621   0.912   4.242   7.517 -1.9897 -1.1933 -0.4054
   70CHL1  H11B 7622   0.762   4.316   7.467 -0.5188  0.3793  1.0449
   70CHL1    C9 7623   0.943   4.452   7.438 -0.1225  0.3015  0.4448
   70CHL1    H9 7624   0.871   4.536   7.445 -1.8437 -1.2028  1.4344
   70CHL1   C10 7625   0.978   4.415   7.296  0.3628 -0.2935  0.5123
   70CHL1   C19 7626   1.051   4.284   7.297  0.1674  0.1620 -0.6720
   70CHL1  H19A 7627   1.135   4.286   7.370 -1.4562  2.1347  1.1760
   70CHL1  H19B 7628   0.976   4.207   7.325  0.0445 -0.0245 -1.4908
   70CHL1  H19C 7629   1.093   4.260   7.196  0.5355  0.7594 -0.6618
   70CHL1    C1 7630   0.846   4.402   7.216 -0.1380 -0.0970  0.4867
   70CHL1   H1A 7631   0.786   4.314   7.246  0.5884 -0.3955  1.0787
   70CHL1   H1B 7632   0.784   4.494   7.224 -1.2424 -0.7248 -0.6304
   70CHL1    C2 7633   0.867   4.384   7.065 -0.2064  0.2691  0.1156
   70CHL1   H2A 7634   0.772   4.379   7.008 -1.0297  0.6738  1.4356
   70CHL1   H2B 7635   0.919   4.286   7.058  0.3711  0.5052  1.0093
   70CHL1   C20 7636   0.932   4.400   7.997  0.3800 -0.0805 -0.3577
   70CHL1   H20 7637   1.026   4.343   8.014  1.6041  0.7646 -3.8174
   70CHL1   C21 7638   0.821   4.295   7.976 -0.1400  0.8290  0.4556
   70CHL1  H21A 7639   0.799   4.240   8.070 -0.8872  0.3933  0.0325
   70CHL1  H21B 7640   0.847   4.215   7.904 -0.2302  2.1534 -1.0886
   70CHL1  H21C 7641   0.727   4.342   7.939 -1.1972 -1.4691  0.1253
   70CHL1   C22 7642   0.898   4.484   8.123  0.5439  0.1192  0.7014
   70CHL1  H22A 7643   0.953   4.580   8.122 -0.7564  0.8720 -1.5370
   70CHL1  H22B 7644   0.792   4.515   8.129  0.6346  0.1145  2.7406
   70CHL1   C23 7645   0.926   4.417   8.254 -0.5363  0.2192 -0.4881
   70CHL1  H23A 7646   0.855   4.331   8.252 -0.5712  0.2883 -3.3985
   70CHL1  H23B 7647   1.029   4.375   8.250 -1.0510 -1.6037  2.9922
   70CHL1   C24 7648   0.904   4.501   8.383  0.3235 -0.2733 -0.3226
   70CHL1  H24A 7649   0.995   4.563   8.402  1.3511 -1.3808 -1.5598
   70CHL1  H24B 7650   0.834   4.580   8.348 -0.5524 -0.4838  0.9094
   70CHL1   C25 7651   0.869   4.424   8.506 -0.9026 -0.3782 -0.2294
   70CHL1   H25 7652   0.890   4.489   8.593  0.5703 -0.6814 -0.3461
   70CHL1   C26 7653   0.721   4.386   8.513  0.4697 -0.0990 -0.5359
   70CHL1  H26A 7654   0.679   4.334   8.424  0.5380 -0.0799 -0.5785
   70CHL1  H26B 7655   0.704   4.308   8.591  1.7983 -0.1122 -0.2449
   70CHL1  H26C 7656   0.665   4.481   8.526 -2.5991 -1.4449 -3.3193
   70CHL1   C27 7657   0.957   4.297   8.528  0.7097  0.4921  0.0474
   70CHL1  H27A 7658   1.067   4.310   8.536  0.8406 -0.9945  0.6986
   70CHL1  H27B 7659   0.920   4.252   8.623  0.4827 -1.1474 -0.8090
   70CHL1  H27C 7660   0.939   4.227   8.444  1.9283 -1.5878  1.4909
   71CHL1    C3 7661   6.815   6.619   6.861  0.3080  0.0056  0.0931
   71CHL1    H3 7662   6.717   6.576   6.894  0.3998  1.0319  1.7727
   71CHL1    O3 7663   6.845   6.565   6.728  0.0716  0.1752 -0.5215
   71CHL1   H3' 7664   6.924   6.614   6.703 -1.6557  2.8892 -0.9505
   71CHL1    C4 7665   6.815   6.771   6.877  0.4221  0.1225 -0.2062
   71CHL1   H4A 7666   6.918   6.803   6.852  1.2694 -3.2423 -1.3077
   71CHL1   H4B 7667   6.745   6.804   6.797  0.7167 -2.3211 -1.5366
   71CHL1    C5 7668   6.793   6.819   7.021  0.7952 -0.6816  0.0885
   71CHL1    C6 7669   6.682   6.884   7.056  0.3243  0.5693 -0.1414
   71CHL1    H6 7670   6.606   6.905   6.979  0.0239 -2.3756 -0.6921
   71CHL1    C7 7671   6.664   6.932   7.193 -0.2430  0.5409 -0.0236
   71CHL1   H7A 7672   6.625   7.035   7.192 -1.9364 -0.0851  0.0043
   71CHL1   H7B 7673   6.580   6.877   7.241 -0.9784  0.6645 -1.1506
   71CHL1    C8 7674   6.786   6.909   7.287 -0.7186 -0.2088 -0.3471
   71CHL1    H8 7675   6.862   6.988   7.268 -1.2936  0.4282 -0.0414
   71CHL1   C14 7676   6.751   6.918   7.433  0.0053 -0.3305 -0.0927
   71CHL1   H14 7677   6.672   6.841   7.443 -0.4878  0.1227 -0.4868
   71CHL1   C15 7678   6.675   7.048   7.478  0.7674 -0.0537 -0.0273
   71CHL1  H15A 7679   6.726   7.135   7.433 -0.0467  0.0846 -0.6879
   71CHL1  H15B 7680   6.571   7.048   7.439  1.3810 -1.3711 -1.6912
   71CHL1   C16 7681   6.692   7.055   7.632  0.0234  1.1537 -0.6302
   71CHL1  H16A 7682   6.744   7.149   7.661 -0.7974  1.1518  0.9241
   71CHL1  H16B 7683   6.596   7.053   7.687 -0.4611  2.3082 -1.4309
   71CHL1   C17 7684   6.780   6.928   7.663 -0.5819 -0.8305  0.3420
   71CHL1   H17 7685   6.710   6.842   7.667  0.3495 -1.7199 -2.2139
   71CHL1   C13 7686   6.862   6.903   7.538  0.2482 -0.2110 -0.5993
   71CHL1   C18 7687   6.968   7.010   7.519  0.2639 -0.0100 -0.0882
   71CHL1  H18A 7688   7.054   6.995   7.589  0.7517 -2.7821 -1.2259
   71CHL1  H18B 7689   7.005   7.011   7.415  0.0550  1.1036 -0.1562
   71CHL1  H18C 7690   6.932   7.115   7.531  0.0630 -0.0437 -0.4042
   71CHL1   C12 7691   6.916   6.764   7.525 -0.1572  0.4859 -0.5639
   71CHL1  H12A 7692   7.007   6.756   7.590 -0.7808  0.7837  0.3618
   71CHL1  H12B 7693   6.853   6.682   7.567  0.2770 -0.8712 -2.4805
   71CHL1   C11 7694   6.960   6.738   7.381 -0.2042  0.1353 -0.9225
   71CHL1  H11A 7695   7.045   6.808   7.365 -1.5412  1.7042 -1.3021
   71CHL1  H11B 7696   6.997   6.636   7.360  0.8607  0.5664 -1.1577
   71CHL1    C9 7697   6.852   6.773   7.268  0.2570  0.1227 -0.1977
   71CHL1    H9 7698   6.770   6.700   7.285  0.1370 -0.0211 -1.3619
   71CHL1   C10 7699   6.895   6.759   7.121 -0.3894  0.1317 -0.6864
   71CHL1   C19 7700   7.042   6.818   7.099  0.2453  0.9456 -0.0839
   71CHL1  H19A 7701   7.055   6.924   7.129 -1.5724  0.6427  1.8826
   71CHL1  H19B 7702   7.118   6.764   7.159 -1.5895 -0.2366  1.2078
   71CHL1  H19C 7703   7.074   6.806   6.993  2.4779 -1.4406  0.8130
   71CHL1    C1 7704   6.904   6.605   7.095  0.0682 -0.0325  0.1229
   71CHL1   H1A 7705   6.969   6.548   7.165 -0.7254 -0.2059  0.7335
   71CHL1   H1B 7706   6.801   6.569   7.118  0.2668 -0.1773  0.7931
   71CHL1    C2 7707   6.925   6.558   6.946 -0.1378  0.0152 -0.8418
   71CHL1   H2A 7708   6.926   6.447   6.944 -0.3426  0.0368 -2.1769
   71CHL1   H2B 7709   7.025   6.588   6.909  1.5819 -2.8592  1.1902
   71CHL1   C20 7710   6.858   6.951   7.792 -0.1434 -0.0791 -0.6094
   71CHL1   H20 7711   6.949   7.008   7.761 -0.9150  2.1796  1.1362
   71CHL1   C21 7712   6.915   6.817   7.854 -0.7684  0.3720 -0.2693
   71CHL1  H21A 7713   6.972   6.754   7.783 -0.2616 -0.5227  0.9087
   71CHL1  H21B 7714   6.833   6.754   7.895 -0.4179 -1.8332 -2.8756
   71CHL1  H21C 7715   6.992   6.828   7.934  0.8205 -0.7266 -1.6220
   71CHL1   C22 7716   6.781   7.032   7.903 -0.6387  0.0268 -0.8050
   71CHL1  H22A 7717   6.794   7.140   7.885 -2.5114  0.7115  1.5937
   71CHL1  H22B 7718   6.675   6.999   7.907 -0.7616  0.5288  0.2108
   71CHL1   C23 7719   6.834   7.038   8.046  0.5741  0.4778 -0.5297
   71CHL1  H23A 7720   6.792   6.945   8.090 -0.2253  0.3229 -1.5803
   71CHL1  H23B 7721   6.944   7.041   8.055  0.3164 -0.3822  3.5463
   71CHL1   C24 7722   6.770   7.163   8.120  0.1605 -0.1856 -0.6141
   71CHL1  H24A 7723   6.829   7.249   8.081  1.3795 -0.8751 -0.3209
   71CHL1  H24B 7724   6.671   7.163   8.070 -0.1904  0.0542  0.0835
   71CHL1   C25 7725   6.750   7.155   8.277 -0.0322  0.2454  0.5706
   71CHL1   H25 7726   6.695   7.062   8.302 -0.3748  0.4368  0.5331
   71CHL1   C26 7727   6.874   7.158   8.363 -0.8150 -0.7579 -0.3469
   71CHL1  H26A 7728   6.915   7.261   8.361 -2.1447 -0.1934  0.2740
   71CHL1  H26B 7729   6.846   7.142   8.469  0.4620  0.7120  0.2326
   71CHL1  H26C 7730   6.944   7.076   8.339  0.8612  0.0759  1.5802
   71CHL1   C27 7731   6.653   7.268   8.317  0.9763 -0.7412 -0.0272
   71CHL1  H27A 7732   6.620   7.265   8.424  0.4907  0.3567 -0.1365
   71CHL1  H27B 7733   6.717   7.356   8.295  1.1656 -0.6915  0.6961
   71CHL1  H27C 7734   6.568   7.272   8.245  0.2649 -1.9103  0.7281
   72CHL1    C3 7735   0.755   4.794   7.189 -0.5632  0.1313  0.4170
   72CHL1    H3 7736   0.829   4.717   7.218 -0.9347 -0.6073 -0.5756
   72CHL1    O3 7737   0.792   4.844   7.058  0.5663  0.7532 -0.2345
   72CHL1   H3' 7738   0.717   4.900   7.038  0.7659  0.8067 -0.8344
   72CHL1    C4 7739   0.613   4.744   7.194  0.2569 -0.2750  0.5082
   72CHL1   H4A 7740   0.553   4.827   7.151  2.1299  0.1851 -1.3206
   72CHL1   H4B 7741   0.600   4.659   7.124  0.1111  0.3667 -0.2576
   72CHL1    C5 7742   0.579   4.694   7.335  0.6738 -0.3666 -0.3950
   72CHL1    C6 7743   0.531   4.569   7.350 -0.4322 -0.7325 -0.5024
   72CHL1    H6 7744   0.505   4.512   7.260 -2.0019 -1.0527  0.1280
   72CHL1    C7 7745   0.472   4.522   7.485  0.2455 -0.0742  0.0021
   72CHL1   H7A 7746   0.366   4.493   7.473  0.1401  0.8525 -1.3799
   72CHL1   H7B 7747   0.540   4.442   7.522 -1.6177 -2.1334 -0.9431
   72CHL1    C8 7748   0.464   4.634   7.593  0.0631  0.0094  0.2867
   72CHL1    H8 7749   0.369   4.689   7.575 -0.3619  0.3270  3.3095
   72CHL1   C14 7750   0.439   4.566   7.728  0.1547 -0.3222 -0.7191
   72CHL1   H14 7751   0.537   4.517   7.750  1.7542  3.2743  0.4879
   72CHL1   C15 7752   0.314   4.475   7.755  0.9620 -0.0056 -0.5502
   72CHL1  H15A 7753   0.219   4.512   7.712  1.1550  1.7083  0.4438
   72CHL1  H15B 7754   0.323   4.369   7.722 -1.2122 -0.6299  0.7929
   72CHL1   C16 7755   0.308   4.471   7.910 -0.0184 -0.1493  0.3488
   72CHL1  H16A 7756   0.208   4.514   7.934  0.1629  0.4063  0.1210
   72CHL1  H16B 7757   0.308   4.365   7.941  0.8646 -0.7537 -1.6356
   72CHL1   C17 7758   0.416   4.576   7.959  0.0994 -0.1927 -0.3032
   72CHL1   H17 7759   0.507   4.514   7.970 -0.4047 -0.5440  2.2655
   72CHL1   C13 7760   0.437   4.674   7.843 -0.0108 -0.1255  0.4473
   72CHL1   C18 7761   0.323   4.784   7.830  0.0127  0.4476 -0.1521
   72CHL1  H18A 7762   0.341   4.857   7.911  1.7372 -0.9467  0.7576
   72CHL1  H18B 7763   0.317   4.826   7.727  1.6546  0.3839 -0.2926
   72CHL1  H18C 7764   0.232   4.724   7.849  0.8987 -0.1176  2.4094
   72CHL1   C12 7765   0.580   4.743   7.835  0.7472 -0.0670 -0.0531
   72CHL1  H12A 7766   0.589   4.810   7.924 -4.4769 -0.2995  0.8091
   72CHL1  H12B 7767   0.654   4.662   7.848  1.2782  0.5062  0.5581
   72CHL1   C11 7768   0.597   4.824   7.708  0.2898  0.7063 -0.1090
   72CHL1  H11A 7769   0.520   4.904   7.698 -1.2769 -0.8707 -0.9483
   72CHL1  H11B 7770   0.700   4.867   7.710  0.6311 -0.1258  0.2578
   72CHL1    C9 7771   0.583   4.726   7.585 -0.4504 -0.8122 -1.0783
   72CHL1    H9 7772   0.677   4.670   7.601 -0.9766 -1.7063 -1.0621
   72CHL1   C10 7773   0.598   4.795   7.451  0.6657 -0.1614 -0.2272
   72CHL1   C19 7774   0.473   4.887   7.431 -0.6508  1.4410 -0.5246
   72CHL1  H19A 7775   0.375   4.840   7.410 -0.3706 -0.3137  1.8003
   72CHL1  H19B 7776   0.460   4.945   7.525 -0.3370  0.4880  0.1274
   72CHL1  H19C 7777   0.491   4.963   7.353  0.8148 -0.9326 -2.5928
   72CHL1    C1 7778   0.735   4.855   7.439  0.0563 -0.1770  0.4765
   72CHL1   H1A 7779   0.747   4.939   7.511  1.4484  0.7518 -0.8037
   72CHL1   H1B 7780   0.806   4.774   7.465 -1.5790 -1.3192  1.5244
   72CHL1    C2 7781   0.773   4.906   7.301 -0.4388 -0.3727 -0.2380
   72CHL1   H2A 7782   0.873   4.952   7.305  0.5709 -2.3822 -1.4755
   72CHL1   H2B 7783   0.705   4.989   7.274  0.0087  0.6190  1.6212
   72CHL1   C20 7784   0.396   4.640   8.096 -0.1961  0.5071 -0.0404
   72CHL1   H20 7785   0.455   4.734   8.102  0.2684  0.1993  0.2931
   72CHL1   C21 7786   0.458   4.555   8.206  0.1732 -0.8553  0.1609
   72CHL1  H21A 7787   0.566   4.531   8.197  0.2669  0.3685 -2.5253
   72CHL1  H21B 7788   0.399   4.462   8.221 -2.3567  0.6920  0.0899
   72CHL1  H21C 7789   0.452   4.597   8.309 -0.5110 -1.0589  0.2031
   72CHL1   C22 7790   0.253   4.681   8.144  0.6090 -0.0047 -0.1905
   72CHL1  H22A 7791   0.190   4.718   8.060 -0.9743 -1.7730  0.1656
   72CHL1  H22B 7792   0.203   4.584   8.166  1.2407 -0.5815 -1.2803
   72CHL1   C23 7793   0.256   4.773   8.269 -0.4887  0.0217  0.1067
   72CHL1  H23A 7794   0.302   4.718   8.354 -2.4183 -3.4824 -1.0178
   72CHL1  H23B 7795   0.310   4.865   8.239  1.0634 -1.1533 -0.7454
   72CHL1   C24 7796   0.114   4.819   8.314  0.0140  0.0190 -0.1579
   72CHL1  H24A 7797   0.065   4.860   8.223 -0.1961  0.4296  0.1436
   72CHL1  H24B 7798   0.059   4.731   8.353 -0.2758  0.3460  0.1678
   72CHL1   C25 7799   0.089   4.926   8.423 -0.1274  0.0690 -0.5740
   72CHL1   H25 7800  -0.020   4.925   8.442 -0.1525 -2.8196 -0.7618
   72CHL1   C26 7801   0.148   4.886   8.556 -0.8344 -0.5237  0.6564
   72CHL1  H26A 7802   0.112   4.956   8.635 -0.8818  1.6252 -1.2086
   72CHL1  H26B 7803   0.133   4.779   8.579 -0.5897 -0.5273  0.8049
   72CHL1  H26C 7804   0.257   4.911   8.555 -0.7579 -0.8528  0.7527
   72CHL1   C27 7805   0.137   5.064   8.378 -0.3095  0.0643  0.4720
   72CHL1  H27A 7806   0.109   5.143   8.451 -1.0872  2.0463 -1.8830
   72CHL1  H27B 7807   0.244   5.054   8.351 -0.7822 -0.8477 -1.1352
   72CHL1  H27C 7808   0.089   5.097   8.283 -0.0488  0.6312  0.5302
   73CHL1    C3 7809   0.276   1.138   6.948 -0.3702  0.4122  0.1514
   73CHL1    H3 7810   0.381   1.174   6.953 -0.5886  0.8585  1.4834
   73CHL1    O3 7811   0.228   1.118   6.813  0.6111 -0.1889  0.5217
   73CHL1   H3' 7812   0.289   1.050   6.785  0.8482  0.2101  0.0791
   73CHL1    C4 7813   0.254   0.997   7.025 -0.2093  0.4147 -0.2443
   73CHL1   H4A 7814   0.148   0.963   7.020  0.1187 -0.3545 -2.4313
   73CHL1   H4B 7815   0.311   0.916   6.975  0.5113  0.4846  0.4714
   73CHL1    C5 7816   0.298   1.007   7.173  0.0048  1.0989 -0.8081
   73CHL1    C6 7817   0.384   0.917   7.228  0.5878 -0.3757  0.1448
   73CHL1    H6 7818   0.417   0.829   7.171  0.4641 -0.8626  0.8217
   73CHL1    C7 7819   0.429   0.928   7.372 -0.3351  0.5930  0.8112
   73CHL1   H7A 7820   0.447   0.825   7.410  1.8378  1.0743  1.1620
   73CHL1   H7B 7821   0.526   0.981   7.373 -0.1644  0.4608 -2.6329
   73CHL1    C8 7822   0.329   1.009   7.459 -0.6258 -0.2394  0.0649
   73CHL1    H8 7823   0.234   0.952   7.472 -0.1778 -0.9163  0.4242
   73CHL1   C14 7824   0.398   1.042   7.590  0.0467 -0.3892  0.3048
   73CHL1   H14 7825   0.484   1.107   7.562  0.7918 -0.4069  2.4856
   73CHL1   C15 7826   0.476   0.929   7.667  0.9763  0.6021 -0.0302
   73CHL1  H15A 7827   0.412   0.838   7.677 -0.2513  1.5467  1.0210
   73CHL1  H15B 7828   0.568   0.892   7.617  0.3511  1.3408 -1.7534
   73CHL1   C16 7829   0.508   0.990   7.801  0.0302  0.4070 -0.3535
   73CHL1  H16A 7830   0.475   0.930   7.888  0.3162  0.8481  0.0640
   73CHL1  H16B 7831   0.614   1.021   7.809 -0.2915  1.1021  1.2367
   73CHL1   C17 7832   0.419   1.124   7.809  0.2180  0.3741  0.2459
   73CHL1   H17 7833   0.490   1.205   7.781  0.0224  0.4038 -0.1610
   73CHL1   C13 7834   0.315   1.123   7.694 -0.5503  0.0734  0.7130
   73CHL1   C18 7835   0.199   1.036   7.738 -0.8136 -0.0745  0.1645
   73CHL1  H18A 7836   0.230   0.941   7.785 -1.9898 -0.4380  0.2241
   73CHL1  H18B 7837   0.132   1.083   7.814  0.4371 -0.2843  1.4139
   73CHL1  H18C 7838   0.136   1.012   7.649 -0.9408  2.9454 -0.6232
   73CHL1   C12 7839   0.280   1.259   7.630  0.1515 -0.2739 -0.0561
   73CHL1  H12A 7840   0.209   1.311   7.699 -1.1604 -0.8245 -0.9633
   73CHL1  H12B 7841   0.371   1.318   7.605  1.0995 -1.7620 -0.1391
   73CHL1   C11 7842   0.217   1.244   7.489 -0.5682  0.2371  0.1550
   73CHL1  H11A 7843   0.116   1.202   7.510  0.4193 -1.6742  1.1470
   73CHL1  H11B 7844   0.216   1.343   7.437 -0.5629  0.1083 -0.0930
   73CHL1    C9 7845   0.294   1.150   7.390 -0.3020 -0.6003 -0.8042
   73CHL1    H9 7846   0.396   1.191   7.371 -0.4813  0.1645 -0.1112
   73CHL1   C10 7847   0.237   1.123   7.254 -0.1685 -0.2395 -0.2510
   73CHL1   C19 7848   0.083   1.085   7.266 -0.4076 -0.3378 -0.2353
   73CHL1  H19A 7849   0.039   1.059   7.167  1.6470  0.3709 -1.3764
   73CHL1  H19B 7850   0.077   0.994   7.330 -4.9370 -0.7091 -1.0538
   73CHL1  H19C 7851   0.021   1.167   7.308 -3.2601 -2.1377 -0.8449
   73CHL1    C1 7852   0.248   1.256   7.164  0.2553 -0.2873 -0.5821
   73CHL1   H1A 7853   0.200   1.330   7.231  1.1234 -1.5428  1.4801
   73CHL1   H1B 7854   0.352   1.296   7.155  0.1722 -0.0624 -0.5590
   73CHL1    C2 7855   0.187   1.243   7.027  0.3014 -0.3793  0.2234
   73CHL1   H2A 7856   0.187   1.340   6.973  1.3058 -0.8568 -0.6658
   73CHL1   H2B 7857   0.085   1.202   7.017  0.3334 -0.7146  1.2389
   73CHL1   C20 7858   0.361   1.142   7.951  0.2583  0.0004 -0.9913
   73CHL1   H20 7859   0.292   1.059   7.975 -0.9888  0.8733 -1.5007
   73CHL1   C21 7860   0.280   1.270   7.964 -0.5940 -0.5973  0.3577
   73CHL1  H21A 7861   0.338   1.359   7.933 -1.5908 -0.4471 -1.1304
   73CHL1  H21B 7862   0.239   1.291   8.065  0.1984 -1.6847  0.9126
   73CHL1  H21C 7863   0.191   1.255   7.899  1.0730  0.2451 -2.2118
   73CHL1   C22 7864   0.467   1.137   8.060 -0.8568  0.7616  0.2872
   73CHL1  H22A 7865   0.542   1.056   8.054  0.7603  2.2941 -0.8784
   73CHL1  H22B 7866   0.514   1.238   8.067  0.8745 -0.1234  1.6640
   73CHL1   C23 7867   0.410   1.111   8.201 -0.5429  0.1782 -0.7604
   73CHL1  H23A 7868   0.335   1.191   8.223 -1.1970 -0.5363 -0.3738
   73CHL1  H23B 7869   0.348   1.019   8.191  0.1376 -0.5122  1.1714
   73CHL1   C24 7870   0.511   1.080   8.315  0.6146  0.5707  0.4397
   73CHL1  H24A 7871   0.580   0.998   8.287  2.1440  2.0207 -0.1350
   73CHL1  H24B 7872   0.560   1.178   8.330 -3.7300  2.8626  0.4341
   73CHL1   C25 7873   0.437   1.061   8.455  0.5655  0.4847 -0.1549
   73CHL1   H25 7874   0.379   1.154   8.474 -1.7020 -1.2082  1.5027
   73CHL1   C26 7875   0.335   0.949   8.448  0.6542  0.0029 -0.3174
   73CHL1  H26A 7876   0.274   0.956   8.356 -0.2951 -0.1578  0.2825
   73CHL1  H26B 7877   0.399   0.858   8.446 -0.2318 -0.7519  2.2792
   73CHL1  H26C 7878   0.270   0.967   8.537  2.1110 -2.4492  1.2947
   73CHL1   C27 7879   0.527   1.037   8.571  0.2801 -0.4728 -0.7070
   73CHL1  H27A 7880   0.578   0.940   8.556 -3.3780 -2.3572 -1.6428
   73CHL1  H27B 7881   0.603   1.118   8.566  1.3073 -1.4365 -0.6662
   73CHL1  H27C 7882   0.469   1.024   8.665  1.5152 -2.6071 -0.2209
   74CHL1    C3 7883   6.083   6.130   6.781  0.2503 -0.5378 -1.0262
   74CHL1    H3 7884   6.136   6.033   6.793  4.4048  1.7783  0.3106
   74CHL1    O3 7885   6.071   6.148   6.648 -0.4768 -0.1102 -0.1305
   74CHL1   H3' 7886   6.150   6.110   6.609 -0.3855  2.1433 -2.3256
   74CHL1    C4 7887   5.952   6.119   6.849 -0.5326  0.2389  0.3306
   74CHL1   H4A 7888   5.899   6.214   6.826 -0.0007  0.3732 -0.3502
   74CHL1   H4B 7889   5.910   6.028   6.803  0.0227  0.0889  0.1144
   74CHL1    C5 7890   5.957   6.102   7.002 -0.1550 -0.2189 -0.9604
   74CHL1    C6 7891   5.905   5.993   7.057  0.8498 -0.0069 -1.0314
   74CHL1    H6 7892   5.844   5.930   6.992  0.2579  1.0833 -1.5461
   74CHL1    C7 7893   5.926   5.958   7.203 -0.4020  0.4654  0.4556
   74CHL1   H7A 7894   5.833   5.917   7.247 -2.4227  0.9815 -3.1488
   74CHL1   H7B 7895   6.000   5.875   7.200 -0.9122  0.0401 -0.5751
   74CHL1    C8 7896   5.978   6.077   7.283  0.2038 -0.1225  0.1761
   74CHL1    H8 7897   5.892   6.148   7.287  0.4006  0.4561 -3.8616
   74CHL1   C14 7898   6.010   6.031   7.426 -0.1741  0.0954 -0.4057
   74CHL1   H14 7899   6.083   5.948   7.416 -0.2015 -0.0836  0.7730
   74CHL1   C15 7900   5.891   5.974   7.508  0.0961  0.2002  0.4012
   74CHL1  H15A 7901   5.805   6.045   7.507  0.8824  1.1685 -1.5849
   74CHL1  H15B 7902   5.856   5.879   7.462  0.9373  0.1434 -0.1284
   74CHL1   C16 7903   5.962   5.965   7.651 -0.1468  0.2522  0.4505
   74CHL1  H16A 7904   5.878   5.991   7.719  1.1812  2.3721  1.3301
   74CHL1  H16B 7905   5.993   5.860   7.665  0.2063  0.2324 -0.4582
   74CHL1   C17 7906   6.077   6.073   7.648  0.3315  0.4996  0.1945
   74CHL1   H17 7907   6.170   6.011   7.645  0.7873  1.1978 -0.4765
   74CHL1   C13 7908   6.066   6.142   7.511 -0.1635 -0.0992  0.0464
   74CHL1   C18 7909   5.958   6.255   7.522 -0.0504  0.2839 -0.1543
   74CHL1  H18A 7910   5.868   6.221   7.578 -0.5972 -2.2145 -2.4137
   74CHL1  H18B 7911   5.981   6.347   7.579 -0.3894 -0.0754  0.5689
   74CHL1  H18C 7912   5.922   6.297   7.426 -0.7727  1.2227  0.5272
   74CHL1   C12 7913   6.186   6.189   7.441  0.4174  0.5449 -0.3266
   74CHL1  H12A 7914   6.231   6.277   7.492  0.8272  0.1749 -0.0528
   74CHL1  H12B 7915   6.257   6.104   7.437  1.8873  1.7808 -1.3196
   74CHL1   C11 7916   6.175   6.234   7.297  0.6115  0.2749  0.1263
   74CHL1  H11A 7917   6.113   6.326   7.310  0.0702 -0.0482 -0.1498
   74CHL1  H11B 7918   6.277   6.251   7.256  0.5083  2.6950  0.8110
   74CHL1    C9 7919   6.098   6.139   7.207  0.9736  0.4918  0.0227
   74CHL1    H9 7920   6.157   6.046   7.193 -2.5349 -1.8570  0.2244
   74CHL1   C10 7921   6.055   6.195   7.070 -0.4817 -0.3811 -0.1683
   74CHL1   C19 7922   5.985   6.336   7.088  0.2642 -0.1797 -0.5223
   74CHL1  H19A 7923   5.896   6.328   7.154  1.0131  0.3646  0.5675
   74CHL1  H19B 7924   6.053   6.412   7.132 -0.8205 -0.3891  1.5815
   74CHL1  H19C 7925   5.963   6.384   6.991 -1.9345 -1.4333 -0.6686
   74CHL1    C1 7926   6.187   6.205   6.992 -0.7663  0.3368  0.8548
   74CHL1   H1A 7927   6.241   6.288   7.043  1.2161 -0.0440 -0.5695
   74CHL1   H1B 7928   6.245   6.114   7.018 -0.2969 -0.6075 -3.2941
   74CHL1    C2 7929   6.168   6.237   6.847 -1.1012 -0.3438  0.3471
   74CHL1   H2A 7930   6.269   6.253   6.805 -1.0892  1.1066  0.9095
   74CHL1   H2B 7931   6.116   6.335   6.838 -0.2135  0.1285  0.3240
   74CHL1   C20 7932   6.091   6.157   7.786  0.3704 -0.1398 -0.4728
   74CHL1   H20 7933   5.997   6.215   7.798  0.1449 -0.0470 -2.5215
   74CHL1   C21 7934   6.211   6.247   7.759 -0.3136 -0.1388  1.1166
   74CHL1  H21A 7935   6.241   6.301   7.851  2.1509  2.6908 -1.2732
   74CHL1  H21B 7936   6.188   6.323   7.681 -2.2248 -2.7611 -0.9781
   74CHL1  H21C 7937   6.303   6.195   7.725  1.1330  2.5020  0.9451
   74CHL1   C22 7938   6.114   6.073   7.914 -0.5903  0.2852  0.4822
   74CHL1  H22A 7939   6.059   5.978   7.930  0.2217 -0.2275  0.2353
   74CHL1  H22B 7940   6.223   6.054   7.915 -0.3091  1.8633  2.7809
   74CHL1   C23 7941   6.097   6.156   8.045 -0.1113  0.0842 -0.1262
   74CHL1  H23A 7942   6.143   6.257   8.034 -1.7086  0.9432  0.8979
   74CHL1  H23B 7943   5.987   6.166   8.056  0.0043  1.0049  0.2454
   74CHL1   C24 7944   6.159   6.089   8.168 -0.7011 -0.5953 -0.1265
   74CHL1  H24A 7945   6.127   5.983   8.175 -3.2057  0.2936  3.1440
   74CHL1  H24B 7946   6.270   6.083   8.162 -0.5578 -0.8795  2.0976
   74CHL1   C25 7947   6.117   6.161   8.299  0.2638  0.2157  0.4021
   74CHL1   H25 7948   6.119   6.271   8.285 -0.5544  0.1902  0.1162
   74CHL1   C26 7949   5.979   6.126   8.349  0.4081 -0.2858 -0.2699
   74CHL1  H26A 7950   5.991   6.030   8.404 -3.3738  0.0493  1.3020
   74CHL1  H26B 7951   5.942   6.198   8.425 -0.7239  0.0275 -1.1157
   74CHL1  H26C 7952   5.900   6.115   8.272 -0.6137 -0.5056  0.8032
   74CHL1   C27 7953   6.234   6.127   8.403  0.1710 -0.5302  0.0239
   74CHL1  H27A 7954   6.248   6.020   8.429  0.5742 -0.6098 -0.5065
   74CHL1  H27B 7955   6.329   6.175   8.372  0.1820 -2.0854 -2.5331
   74CHL1  H27C 7956   6.205   6.180   8.497 -2.7537  0.6349 -1.4625
   75CHL1    C3 7957   1.992   1.797   6.696 -0.6605  0.3120  0.8288
   75CHL1    H3 7958   1.898   1.790   6.755 -0.4497 -2.5690  0.8841
   75CHL1    O3 7959   1.954   1.770   6.565  0.1482 -0.3948  0.2536
   75CHL1   H3' 7960   2.037   1.730   6.535  0.5438  0.7987 -0.2807
   75CHL1    C4 7961   2.054   1.935   6.712  0.5896  0.0252 -0.4409
   75CHL1   H4A 7962   2.160   1.941   6.680 -0.0974  2.1201 -2.3998
   75CHL1   H4B 7963   1.999   2.013   6.655  1.3179  0.3900 -0.6447
   75CHL1    C5 7964   2.068   1.965   6.855 -0.7368  0.3297  0.3755
   75CHL1    C6 7965   2.005   2.071   6.896  0.5507  0.2566  0.1717
   75CHL1    H6 7966   1.954   2.131   6.820 -0.6495 -1.4074 -0.3665
   75CHL1    C7 7967   1.994   2.115   7.033  0.3023  0.1284 -0.0310
   75CHL1   H7A 7968   2.020   2.222   7.041 -2.8285  1.0010 -0.5487
   75CHL1   H7B 7969   1.887   2.100   7.058  0.4951 -0.7217  0.3017
   75CHL1    C8 7970   2.079   2.028   7.129  0.0276  0.4142  0.3145
   75CHL1    H8 7971   2.180   2.071   7.116 -1.2247  3.5078  0.5002
   75CHL1   C14 7972   2.047   2.049   7.277  0.0868 -0.0628  0.0893
   75CHL1   H14 7973   1.949   1.998   7.288 -0.4923  0.4880 -2.2375
   75CHL1   C15 7974   2.021   2.193   7.329  0.0787  0.0155 -0.2566
   75CHL1  H15A 7975   2.101   2.264   7.298  1.3064 -0.7421  1.1034
   75CHL1  H15B 7976   1.930   2.243   7.290  1.6181  1.3958 -2.2037
   75CHL1   C16 7977   2.032   2.172   7.487 -0.0465  0.5366 -0.8123
   75CHL1  H16A 7978   2.115   2.230   7.532 -2.0206  1.1537  2.2091
   75CHL1  H16B 7979   1.945   2.208   7.547 -0.6083 -2.9088  0.5973
   75CHL1   C17 7980   2.062   2.023   7.511 -0.6399 -0.0694 -0.8100
   75CHL1   H17 7981   1.960   1.981   7.509 -0.5854 -0.4458  1.9919
   75CHL1   C13 7982   2.138   1.980   7.382  0.5590 -0.6597  0.6374
   75CHL1   C18 7983   2.277   2.036   7.388  0.4159  0.2947 -0.1307
   75CHL1  H18A 7984   2.326   2.020   7.290  0.1443  0.9831 -0.3845
   75CHL1  H18B 7985   2.281   2.144   7.414  1.8874 -0.0427  1.1493
   75CHL1  H18C 7986   2.333   1.992   7.474 -1.0660  0.0811  0.7590
   75CHL1   C12 7987   2.136   1.830   7.346 -0.0655 -0.1714 -0.1986
   75CHL1  H12A 7988   2.199   1.772   7.418  0.0389 -0.5957 -0.6288
   75CHL1  H12B 7989   2.032   1.794   7.357 -0.7998  2.2487  1.0383
   75CHL1   C11 7990   2.182   1.803   7.201  0.0883 -0.5635  0.6955
   75CHL1  H11A 7991   2.288   1.837   7.190  0.5261 -2.0368  0.1943
   75CHL1  H11B 7992   2.171   1.696   7.172  0.3713 -0.5718  0.6160
   75CHL1    C9 7993   2.098   1.879   7.090 -0.1312  0.3114  0.4961
   75CHL1    H9 7994   1.999   1.830   7.098  0.6830 -1.5007 -0.2093
   75CHL1   C10 7995   2.143   1.859   6.933 -0.5520  0.2271 -0.6710
   75CHL1   C19 7996   2.298   1.881   6.930 -0.2812 -0.3863  0.6884
   75CHL1  H19A 7997   2.355   1.798   6.979 -0.5501  1.1035  3.6005
   75CHL1  H19B 7998   2.328   1.892   6.824  0.6751 -1.2559  0.8561
   75CHL1  H19C 7999   2.326   1.973   6.985 -0.2908  0.0318 -0.0028
   75CHL1    C1 8000   2.104   1.712   6.894 -0.5507  0.6308 -0.0562
   75CHL1   H1A 8001   2.181   1.644   6.937  1.3611  0.7102 -3.1761
   75CHL1   H1B 8002   2.000   1.695   6.927 -0.5400 -0.1888 -0.4470
   75CHL1    C2 8003   2.086   1.686   6.746 -0.6235  0.1682 -0.3463
   75CHL1   H2A 8004   2.053   1.582   6.724  0.9006 -0.3215 -0.3848
   75CHL1   H2B 8005   2.184   1.697   6.694  0.3851  0.4930  1.5928
   75CHL1   C20 8006   2.114   1.992   7.652 -0.1680 -0.1749  0.1066
   75CHL1   H20 8007   2.223   2.013   7.664 -0.3575 -0.6783  3.0777
   75CHL1   C21 8008   2.091   1.853   7.697 -0.1888  0.5040 -0.0785
   75CHL1  H21A 8009   2.130   1.769   7.635  0.9520  0.0230  1.2681
   75CHL1  H21B 8010   1.983   1.829   7.695 -0.1882  0.5604 -0.8948
   75CHL1  H21C 8011   2.130   1.839   7.800 -0.1228 -0.3834 -0.2169
   75CHL1   C22 8012   2.049   2.089   7.757 -0.3722 -0.7183 -1.0490
   75CHL1  H22A 8013   2.088   2.190   7.734  0.9295 -0.5520  1.6917
   75CHL1  H22B 8014   1.938   2.089   7.747 -0.4408  1.7339 -0.5495
   75CHL1   C23 8015   2.073   2.058   7.906  0.1263  0.3995  0.4320
   75CHL1  H23A 8016   2.043   1.961   7.949 -1.0740  0.9146  0.7808
   75CHL1  H23B 8017   2.184   2.057   7.907  0.2577  1.0980 -3.7124
   75CHL1   C24 8018   2.019   2.157   8.007  0.0013 -0.2443  0.1010
   75CHL1  H24A 8019   2.061   2.260   8.013  1.1744 -0.7453  0.4910
   75CHL1  H24B 8020   1.908   2.163   7.996 -0.0606  0.1600  0.9030
   75CHL1   C25 8021   2.032   2.112   8.148 -0.2172 -0.1376  0.0600
   75CHL1   H25 8022   2.020   2.003   8.132  2.4946 -0.0459 -3.0844
   75CHL1   C26 8023   2.172   2.134   8.208 -0.6342 -0.1041 -0.0847
   75CHL1  H26A 8024   2.243   2.066   8.156 -3.4484 -2.1079 -1.4268
   75CHL1  H26B 8025   2.203   2.241   8.212 -2.1253  0.3050  0.8730
   75CHL1  H26C 8026   2.180   2.098   8.313 -0.0192 -2.3884 -0.8904
   75CHL1   C27 8027   1.919   2.163   8.252  0.0478  0.6829 -0.5009
   75CHL1  H27A 8028   1.954   2.135   8.354  0.6909  0.2419 -0.8347
   75CHL1  H27B 8029   1.915   2.274   8.246 -0.9305  0.8588  2.5377
   75CHL1  H27C 8030   1.818   2.123   8.229  0.4314 -0.3097 -0.5160
   76CHL1    C3 8031   6.492   3.590   7.411  0.0675 -0.1082 -0.3364
   76CHL1    H3 8032   6.431   3.681   7.425  0.3327 -0.2565  1.9352
   76CHL1    O3 8033   6.548   3.596   7.287  0.1769 -0.0266  0.3005
   76CHL1   H3' 8034   6.596   3.515   7.267  3.5859  1.9020  0.3785
   76CHL1    C4 8035   6.601   3.580   7.512 -0.4615  0.8947  0.1481
   76CHL1   H4A 8036   6.661   3.487   7.508  0.1796  1.1926  2.3319
   76CHL1   H4B 8037   6.674   3.663   7.498  2.3827 -1.9243 -2.5114
   76CHL1    C5 8038   6.532   3.576   7.649 -0.6162 -0.4985  0.0452
   76CHL1    C6 8039   6.552   3.673   7.734  0.2148 -0.7524  0.3089
   76CHL1    H6 8040   6.628   3.748   7.707 -1.2504  0.1850 -1.3206
   76CHL1    C7 8041   6.488   3.684   7.871  0.5417 -0.5013 -0.1195
   76CHL1   H7A 8042   6.558   3.734   7.941 -0.2714  2.4908 -1.3863
   76CHL1   H7B 8043   6.393   3.739   7.854 -0.7600 -2.1487  1.6288
   76CHL1    C8 8044   6.440   3.546   7.928  0.2626 -0.0896  0.3607
   76CHL1    H8 8045   6.534   3.494   7.955  0.3222  0.1663  0.6491
   76CHL1   C14 8046   6.348   3.560   8.045  0.3770 -0.3298 -0.0704
   76CHL1   H14 8047   6.260   3.623   8.018 -0.3264  0.1238  3.1016
   76CHL1   C15 8048   6.399   3.629   8.171 -0.0725 -0.3605  0.5874
   76CHL1  H15A 8049   6.492   3.583   8.210  0.4313 -0.1220 -0.3341
   76CHL1  H15B 8050   6.422   3.737   8.155 -0.0371 -0.2552  1.3151
   76CHL1   C16 8051   6.296   3.610   8.274 -0.5480 -0.2420 -0.2206
   76CHL1  H16A 8052   6.342   3.591   8.373  0.8606  1.1243 -0.6003
   76CHL1  H16B 8053   6.215   3.686   8.285 -0.9945 -0.5820 -1.1147
   76CHL1   C17 8054   6.214   3.483   8.226  1.5614 -0.2788 -0.1770
   76CHL1   H17 8055   6.123   3.522   8.176 -1.5105 -4.8705  1.4975
   76CHL1   C13 8056   6.291   3.430   8.103 -0.2159  0.7083 -0.2628
   76CHL1   C18 8057   6.408   3.345   8.156 -0.1362 -0.9097  0.3355
   76CHL1  H18A 8058   6.456   3.382   8.249  1.4597 -1.9802 -0.0468
   76CHL1  H18B 8059   6.364   3.246   8.181 -4.0587  0.8944  1.0050
   76CHL1  H18C 8060   6.486   3.328   8.080 -0.4003  0.9721 -0.3819
   76CHL1   C12 8061   6.219   3.347   7.993  0.7966 -0.3703 -1.1993
   76CHL1  H12A 8062   6.196   3.248   8.037  0.9857 -0.6456 -1.7229
   76CHL1  H12B 8063   6.126   3.399   7.962 -0.9054 -2.8338 -0.3645
   76CHL1   C11 8064   6.306   3.335   7.867 -1.1254 -0.4101  0.3091
   76CHL1  H11A 8065   6.388   3.267   7.898 -1.1457 -0.7521 -0.3833
   76CHL1  H11B 8066   6.242   3.282   7.793 -1.4430  0.3731  0.0129
   76CHL1    C9 8067   6.361   3.465   7.816  0.2507 -0.2074  0.0541
   76CHL1    H9 8068   6.277   3.535   7.796  1.4069  1.5632  1.1457
   76CHL1   C10 8069   6.444   3.455   7.682  0.4066 -0.6228  0.2752
   76CHL1   C19 8070   6.544   3.330   7.695 -0.4255 -0.7642  0.5556
   76CHL1  H19A 8071   6.599   3.301   7.604  2.5717  2.0951  1.3694
   76CHL1  H19B 8072   6.616   3.352   7.777 -1.1828  0.6664  0.8665
   76CHL1  H19C 8073   6.482   3.239   7.709 -1.7483 -0.0535 -0.4483
   76CHL1    C1 8074   6.341   3.452   7.564  1.1739 -0.1818 -0.2600
   76CHL1   H1A 8075   6.288   3.356   7.584  0.0372  0.4655 -0.0963
   76CHL1   H1B 8076   6.267   3.535   7.573  0.6588 -0.5774 -0.7743
   76CHL1    C2 8077   6.406   3.465   7.420 -0.1641  0.2397  0.0094
   76CHL1   H2A 8078   6.331   3.458   7.338  0.7392 -1.6966 -0.6819
   76CHL1   H2B 8079   6.477   3.380   7.407 -1.1763 -0.3162 -2.2015
   76CHL1   C20 8080   6.154   3.392   8.336  0.2472 -0.5798 -0.0436
   76CHL1   H20 8081   6.235   3.337   8.389  0.3369 -2.2874 -1.8952
   76CHL1   C21 8082   6.054   3.283   8.292 -0.3990  0.4273  0.4764
   76CHL1  H21A 8083   6.044   3.217   8.381 -0.4425 -1.9759 -1.2533
   76CHL1  H21B 8084   6.089   3.220   8.207 -2.6949 -0.7409  0.3406
   76CHL1  H21C 8085   5.960   3.338   8.270  0.4065  1.3847 -0.6299
   76CHL1   C22 8086   6.095   3.483   8.450  0.1154 -0.2975 -0.5159
   76CHL1  H22A 8087   6.174   3.556   8.480  0.2559 -0.9228  0.6634
   76CHL1  H22B 8088   5.998   3.531   8.426  0.7868  0.4160 -1.8206
   76CHL1   C23 8089   6.086   3.400   8.581  0.2531 -0.7189  0.1870
   76CHL1  H23A 8090   5.999   3.332   8.564  0.8684 -1.4424 -0.0858
   76CHL1  H23B 8091   6.171   3.329   8.586  0.0344 -0.9478  0.7330
   76CHL1   C24 8092   6.076   3.485   8.712  0.0819  0.5397  0.4089
   76CHL1  H24A 8093   6.160   3.558   8.704 -0.7795  1.6320  1.2184
   76CHL1  H24B 8094   5.984   3.546   8.704  0.3773  0.8905 -0.3844
   76CHL1   C25 8095   6.078   3.411   8.848  0.0708  0.1670 -0.2436
   76CHL1   H25 8096   6.172   3.353   8.853  1.3866  2.2779 -0.0920
   76CHL1   C26 8097   6.077   3.518   8.953 -0.3027 -0.3365 -0.9124
   76CHL1  H26A 8098   5.984   3.578   8.947  0.1460  0.3396 -1.1794
   76CHL1  H26B 8099   6.086   3.482   9.058 -0.2942  0.3809 -0.6626
   76CHL1  H26C 8100   6.164   3.587   8.942  0.5377 -1.4771 -1.4661
   76CHL1   C27 8101   5.955   3.315   8.854 -0.5682 -0.0876 -1.1180
   76CHL1  H27A 8102   5.861   3.372   8.842 -2.6101 -3.3437 -1.3376
   76CHL1  H27B 8103   5.966   3.250   8.765 -0.7531  0.3906 -1.4882
   76CHL1  H27C 8104   5.966   3.266   8.953 -1.7748  2.6891  0.4544
   77CHL1    C3 8105   0.554   1.567   6.837 -0.2425 -0.5074  0.3785
   77CHL1    H3 8106   0.513   1.465   6.856 -2.7474  0.2208 -0.8543
   77CHL1    O3 8107   0.553   1.605   6.702  0.4385 -0.6867  0.2834
   77CHL1   H3' 8108   0.611   1.681   6.701 -0.7157  0.2058  0.1217
   77CHL1    C4 8109   0.473   1.668   6.920  0.0457 -0.7389  0.1826
   77CHL1   H4A 8110   0.527   1.764   6.911  1.7776 -1.7729 -0.8792
   77CHL1   H4B 8111   0.369   1.688   6.885 -0.1191  0.8270  1.5428
   77CHL1    C5 8112   0.467   1.631   7.065 -0.5925 -0.3111  0.2596
   77CHL1    C6 8113   0.355   1.630   7.139  0.2846 -0.0007 -0.1938
   77CHL1    H6 8114   0.265   1.659   7.084  1.7139  1.3272 -1.8884
   77CHL1    C7 8115   0.351   1.612   7.287 -0.2404 -0.5091 -0.3796
   77CHL1   H7A 8116   0.277   1.686   7.324 -0.9137 -1.0533 -0.6111
   77CHL1   H7B 8117   0.297   1.519   7.317 -0.5259  0.5364  2.5019
   77CHL1    C8 8118   0.489   1.625   7.352  0.1239 -1.2691 -0.1769
   77CHL1    H8 8119   0.521   1.731   7.359 -0.3036 -1.0101 -1.9063
   77CHL1   C14 8120   0.486   1.576   7.494 -0.3483 -0.6506  0.0198
   77CHL1   H14 8121   0.476   1.466   7.482 -1.5779 -0.4944 -0.4764
   77CHL1   C15 8122   0.372   1.614   7.587 -0.0589 -1.6723  0.7061
   77CHL1  H15A 8123   0.342   1.718   7.564  1.0616 -1.9706 -2.3378
   77CHL1  H15B 8124   0.287   1.548   7.557 -0.5535  0.1081 -1.9328
   77CHL1   C16 8125   0.426   1.593   7.729  0.7278 -0.5576 -0.4247
   77CHL1  H16A 8126   0.423   1.684   7.793 -1.2268 -1.7970  1.3030
   77CHL1  H16B 8127   0.359   1.523   7.782 -0.9282  1.9078  0.8527
   77CHL1   C17 8128   0.575   1.536   7.710  0.0824 -0.0694  0.7198
   77CHL1   H17 8129   0.565   1.427   7.693  0.6175 -0.1223  0.7245
   77CHL1   C13 8130   0.617   1.591   7.573 -0.1946  0.2093 -0.5079
   77CHL1   C18 8131   0.653   1.736   7.580 -0.5963  0.6353  0.6040
   77CHL1  H18A 8132   0.692   1.780   7.486  0.9337 -2.9294 -0.5167
   77CHL1  H18B 8133   0.574   1.807   7.611 -2.6064 -0.1156 -2.6283
   77CHL1  H18C 8134   0.735   1.749   7.654 -0.2330 -2.6845  0.8716
   77CHL1   C12 8135   0.723   1.507   7.496 -0.1790  0.4992 -0.2356
   77CHL1  H12A 8136   0.823   1.523   7.541 -0.3378  0.2675  0.1986
   77CHL1  H12B 8137   0.696   1.400   7.508 -0.9600  0.3642 -2.9179
   77CHL1   C11 8138   0.724   1.533   7.347  0.1057  0.3725 -0.3355
   77CHL1  H11A 8139   0.780   1.629   7.344  3.2141 -1.2760  2.3141
   77CHL1  H11B 8140   0.785   1.459   7.291 -0.3018  1.9937 -2.9998
   77CHL1    C9 8141   0.591   1.545   7.274  0.2900 -0.1415 -0.1407
   77CHL1    H9 8142   0.549   1.443   7.266  4.3299 -1.8442 -1.1018
   77CHL1   C10 8143   0.598   1.607   7.129  0.0732  0.6015  0.5362
   77CHL1   C19 8144   0.666   1.750   7.133 -0.0935 -0.0154 -0.5086
   77CHL1  H19A 8145   0.603   1.818   7.194  1.7550 -0.8181  2.3391
   77CHL1  H19B 8146   0.769   1.756   7.174 -0.7748  0.0898  1.2254
   77CHL1  H19C 8147   0.684   1.791   7.031 -1.1513  0.4734 -0.5120
   77CHL1    C1 8148   0.690   1.523   7.042 -0.3299  0.4576  0.1464
   77CHL1   H1A 8149   0.792   1.509   7.083 -1.0937 -0.1956  1.8920
   77CHL1   H1B 8150   0.646   1.421   7.036 -1.6742  0.9587  1.0841
   77CHL1    C2 8151   0.699   1.551   6.889  0.3259 -0.7677 -0.2569
   77CHL1   H2A 8152   0.750   1.472   6.830  0.8741  1.3882 -2.7828
   77CHL1   H2B 8153   0.748   1.649   6.870 -1.3570  0.5972  2.2235
   77CHL1   C20 8154   0.667   1.549   7.836  0.4640 -0.0330 -0.4897
   77CHL1   H20 8155   0.707   1.653   7.829 -0.7924  0.3678 -2.2140
   77CHL1   C21 8156   0.787   1.453   7.815 -0.1051 -0.2451 -0.8412
   77CHL1  H21A 8157   0.853   1.452   7.904  1.4200  0.5310 -1.9571
   77CHL1  H21B 8158   0.848   1.492   7.732 -2.6500  1.2814 -2.0676
   77CHL1  H21C 8159   0.759   1.346   7.802 -1.2513 -0.0279 -0.3212
   77CHL1   C22 8160   0.598   1.519   7.974 -0.1432 -0.1704  0.3787
   77CHL1  H22A 8161   0.514   1.590   7.980 -0.6483 -0.8738  1.9090
   77CHL1  H22B 8162   0.555   1.416   7.971  1.8660 -1.0419  0.1490
   77CHL1   C23 8163   0.681   1.555   8.102  0.6172 -0.1218  0.1801
   77CHL1  H23A 8164   0.768   1.486   8.095  0.0806 -0.6857 -1.2201
   77CHL1  H23B 8165   0.719   1.659   8.109 -0.1607  0.0507  2.1633
   77CHL1   C24 8166   0.600   1.515   8.227  0.0643  0.1005 -0.1767
   77CHL1  H24A 8167   0.495   1.554   8.233  0.5815  1.5242 -0.1902
   77CHL1  H24B 8168   0.574   1.408   8.219  0.4914 -0.0844  0.8066
   77CHL1   C25 8169   0.674   1.532   8.366 -0.0154 -0.0376  0.3217
   77CHL1   H25 8170   0.750   1.451   8.369  0.1350  0.0885 -0.1436
   77CHL1   C26 8171   0.755   1.664   8.373 -0.1478 -0.4734  0.1063
   77CHL1  H26A 8172   0.844   1.649   8.309  0.4852 -1.1774  1.1421
   77CHL1  H26B 8173   0.691   1.751   8.344  2.4278  0.9908 -1.3634
   77CHL1  H26C 8174   0.791   1.684   8.476  1.2897 -3.3454  0.1967
   77CHL1   C27 8175   0.559   1.504   8.479  0.4488 -0.6208 -0.2052
   77CHL1  H27A 8176   0.503   1.412   8.452  0.8229 -0.8172 -0.3256
   77CHL1  H27B 8177   0.607   1.488   8.578 -0.3749  2.3974  0.7356
   77CHL1  H27C 8178   0.490   1.590   8.491  0.6717 -0.4951  0.1779
   78CHL1    C3 8179   3.162   3.517   6.682 -0.1347  0.3172 -0.9809
   78CHL1    H3 8180   3.074   3.464   6.639 -0.4914 -1.7662  2.1282
   78CHL1    O3 8181   3.251   3.532   6.571  0.6285  1.1419  0.1033
   78CHL1   H3' 8182   3.255   3.444   6.530 -0.3545  2.5666 -3.2372
   78CHL1    C4 8183   3.114   3.646   6.754  0.3520  0.1092  0.1138
   78CHL1   H4A 8184   3.204   3.711   6.757  2.4476 -2.5280 -2.4209
   78CHL1   H4B 8185   3.046   3.699   6.684 -0.1583  0.0266  0.5418
   78CHL1    C5 8186   3.056   3.627   6.899 -0.3670 -0.1786  0.1906
   78CHL1    C6 8187   2.947   3.699   6.930 -0.1158 -0.3032  0.3375
   78CHL1    H6 8188   2.908   3.772   6.856  1.8163  1.8889  1.4093
   78CHL1    C7 8189   2.873   3.687   7.066 -0.1321  0.1767  0.7094
   78CHL1   H7A 8190   2.868   3.790   7.109  1.6824  0.5115  0.1725
   78CHL1   H7B 8191   2.772   3.643   7.052  0.3247 -0.2270 -1.3342
   78CHL1    C8 8192   2.952   3.597   7.168 -0.6634  0.4088  0.7870
   78CHL1    H8 8193   3.032   3.661   7.210  0.3114  1.0387 -1.9120
   78CHL1   C14 8194   2.868   3.550   7.284  0.5760  0.2276 -0.0804
   78CHL1   H14 8195   2.784   3.483   7.257  0.0157  0.6926  0.4981
   78CHL1   C15 8196   2.798   3.669   7.354 -0.1981  0.1298 -0.5046
   78CHL1  H15A 8197   2.863   3.756   7.378 -0.5769  0.8395 -1.9916
   78CHL1  H15B 8198   2.708   3.705   7.298  0.2545 -0.4182 -1.5886
   78CHL1   C16 8199   2.757   3.600   7.488 -0.6590 -0.5711 -0.6459
   78CHL1  H16A 8200   2.799   3.662   7.570 -1.6485 -1.3903  0.5018
   78CHL1  H16B 8201   2.649   3.594   7.510 -0.5929 -0.3713 -0.2745
   78CHL1   C17 8202   2.840   3.468   7.497 -0.0959 -0.2397  0.0785
   78CHL1   H17 8203   2.769   3.389   7.465  1.2860 -1.0242 -1.1189
   78CHL1   C13 8204   2.948   3.481   7.386  0.1360  0.2882 -0.5130
   78CHL1   C18 8205   3.062   3.565   7.444 -0.6046  0.4950 -0.0675
   78CHL1  H18A 8206   3.145   3.583   7.373 -1.9915  0.8362 -1.6253
   78CHL1  H18B 8207   3.021   3.666   7.468 -1.2247  0.5326 -1.2713
   78CHL1  H18C 8208   3.093   3.522   7.542 -1.0203  0.1760 -0.0717
   78CHL1   C12 8209   3.006   3.351   7.326 -0.1060  0.2256  0.2367
   78CHL1  H12A 8210   3.071   3.288   7.390  1.5490 -0.0030 -1.6392
   78CHL1  H12B 8211   2.918   3.296   7.286 -0.1945 -2.0014  3.2568
   78CHL1   C11 8212   3.091   3.386   7.207 -0.9579  0.4621  0.1970
   78CHL1  H11A 8213   3.189   3.414   7.250 -0.0769 -2.4512  0.1947
   78CHL1  H11B 8214   3.106   3.283   7.167 -0.9645  0.4737  0.1640
   78CHL1    C9 8215   3.026   3.481   7.102  0.2758  0.8252 -0.8372
   78CHL1    H9 8216   2.939   3.422   7.067 -0.2316  0.3012  1.2319
   78CHL1   C10 8217   3.121   3.519   6.985  0.1009 -0.8625 -0.1600
   78CHL1   C19 8218   3.249   3.575   7.045  0.1136 -0.4911  0.2512
   78CHL1  H19A 8219   3.297   3.511   7.122 -0.8391  0.0564  1.3159
   78CHL1  H19B 8220   3.323   3.595   6.964  0.7591 -0.0608  0.9382
   78CHL1  H19C 8221   3.225   3.677   7.082  0.2204 -0.4547  0.2173
   78CHL1    C1 8222   3.158   3.386   6.911  0.9634 -0.0706  0.2599
   78CHL1   H1A 8223   3.217   3.320   6.977 -1.4370 -1.0685  1.4916
   78CHL1   H1B 8224   3.063   3.331   6.893  1.2159 -0.7520  0.9979
   78CHL1    C2 8225   3.231   3.414   6.777 -0.0019 -0.3146 -1.2578
   78CHL1   H2A 8226   3.246   3.322   6.716  0.2212 -2.0009  1.2771
   78CHL1   H2B 8227   3.331   3.454   6.801 -1.6308  5.3080 -3.0327
   78CHL1   C20 8228   2.874   3.429   7.641 -0.3126  0.7283 -0.5990
   78CHL1   H20 8229   2.942   3.505   7.684 -0.5251 -0.6737  2.3170
   78CHL1   C21 8230   2.928   3.280   7.652 -0.1496  0.5177 -0.2736
   78CHL1  H21A 8231   2.845   3.211   7.631  0.6131  0.1560 -2.1998
   78CHL1  H21B 8232   2.977   3.264   7.751 -0.3362 -1.0126 -0.4271
   78CHL1  H21C 8233   3.014   3.261   7.585 -0.0452  1.7654 -0.5101
   78CHL1   C22 8234   2.751   3.430   7.737 -0.3858 -0.0364  0.1575
   78CHL1  H22A 8235   2.683   3.515   7.716 -0.4199 -0.5142 -1.7925
   78CHL1  H22B 8236   2.694   3.338   7.715 -1.8651  1.3891 -2.2384
   78CHL1   C23 8237   2.784   3.412   7.892  0.2205 -0.0687 -0.6762
   78CHL1  H23A 8238   2.695   3.374   7.948 -1.6064  0.8053 -2.9058
   78CHL1  H23B 8239   2.879   3.358   7.912  0.4048  1.1085  1.8477
   78CHL1   C24 8240   2.809   3.549   7.961 -0.8969  0.2365 -0.3891
   78CHL1  H24A 8241   2.892   3.600   7.908  0.7773 -4.6817 -2.8379
   78CHL1  H24B 8242   2.719   3.615   7.954 -1.2565  0.3482  3.7291
   78CHL1   C25 8243   2.845   3.548   8.116  0.2582 -1.1268  0.0736
   78CHL1   H25 8244   2.930   3.481   8.141  0.9038 -0.5049 -0.4393
   78CHL1   C26 8245   2.891   3.685   8.165  0.3861 -0.3260 -0.2075
   78CHL1  H26A 8246   2.805   3.755   8.160 -0.5114 -1.1264  2.7670
   78CHL1  H26B 8247   2.933   3.675   8.268 -1.0797 -1.8218  0.2746
   78CHL1  H26C 8248   2.971   3.718   8.096  0.3921  0.8759  0.3720
   78CHL1   C27 8249   2.726   3.494   8.194 -0.2355 -0.3530 -0.0041
   78CHL1  H27A 8250   2.631   3.542   8.162 -0.6339 -0.2590  1.2711
   78CHL1  H27B 8251   2.718   3.385   8.174 -1.2247 -0.2900  0.0231
   78CHL1  H27C 8252   2.744   3.518   8.301  0.4156 -0.1782 -0.1487
   79CHL1    C3 8253   1.101   3.548   7.199  0.0464  0.0388 -0.5127
   79CHL1    H3 8254   1.049   3.451   7.211 -1.8782  1.0121 -0.9384
   79CHL1    O3 8255   1.146   3.544   7.063  0.7144 -0.0110  0.5140
   79CHL1   H3' 8256   1.096   3.483   7.008 -0.5183  1.0098  0.4940
   79CHL1    C4 8257   1.001   3.658   7.213  0.5561  0.6783 -0.3404
   79CHL1   H4A 8258   1.057   3.748   7.179  0.1494  1.1232  0.1584
   79CHL1   H4B 8259   0.919   3.638   7.141  0.1984  3.2634 -0.7227
   79CHL1    C5 8260   0.952   3.678   7.354 -0.0147  0.1844  0.0883
   79CHL1    C6 8261   0.822   3.675   7.386 -0.2875  0.6034 -0.2496
   79CHL1    H6 8262   0.750   3.666   7.304  0.6115  1.8165 -1.1833
   79CHL1    C7 8263   0.766   3.699   7.527  0.0909 -0.5632  0.6115
   79CHL1   H7A 8264   0.683   3.772   7.522  0.9983  0.3600 -1.6223
   79CHL1   H7B 8265   0.721   3.605   7.564 -0.3716  0.0932  1.7312
   79CHL1    C8 8266   0.875   3.751   7.624  1.0293 -0.3371 -0.1650
   79CHL1    H8 8267   0.875   3.861   7.612 -0.3033 -0.4521 -1.4043
   79CHL1   C14 8268   0.832   3.733   7.766 -0.4435  0.4892 -0.5584
   79CHL1   H14 8269   0.831   3.622   7.778  1.4129  0.3666 -1.4399
   79CHL1   C15 8270   0.692   3.786   7.810  0.3501  0.0307  0.6319
   79CHL1  H15A 8271   0.670   3.886   7.768 -0.4446 -1.1322 -1.7712
   79CHL1  H15B 8272   0.599   3.732   7.780  0.9221 -0.5913 -0.0261
   79CHL1   C16 8273   0.705   3.792   7.964 -0.5613 -0.4063  0.8731
   79CHL1  H16A 8274   0.682   3.897   7.991  3.1823  0.4484  1.0700
   79CHL1  H16B 8275   0.633   3.718   8.006  0.6209 -1.0658  1.7596
   79CHL1   C17 8276   0.853   3.756   8.000 -0.8269 -0.3060  0.2770
   79CHL1   H17 8277   0.852   3.648   8.025 -0.0806 -0.6550 -1.1645
   79CHL1   C13 8278   0.931   3.790   7.869  0.5105  0.0727  0.0202
   79CHL1   C18 8279   0.950   3.942   7.861 -0.0191  0.0133  0.1088
   79CHL1  H18A 8280   1.015   3.965   7.949 -0.0053 -0.9897  0.3642
   79CHL1  H18B 8281   0.993   3.976   7.764  0.9409 -3.0019 -0.5875
   79CHL1  H18C 8282   0.853   3.995   7.869  0.2098  0.5995 -0.8219
   79CHL1   C12 8283   1.063   3.711   7.863 -0.0708 -0.5174  1.1307
   79CHL1  H12A 8284   1.144   3.756   7.924 -0.6110 -0.9766  2.1983
   79CHL1  H12B 8285   1.050   3.603   7.887 -1.1945 -1.4550 -3.2801
   79CHL1   C11 8286   1.115   3.722   7.717  0.2166 -0.3461  0.1548
   79CHL1  H11A 8287   1.145   3.827   7.696 -0.0257 -0.3298 -0.1128
   79CHL1  H11B 8288   1.213   3.668   7.716  1.0421  1.1212  0.0978
   79CHL1    C9 8289   1.015   3.688   7.607  0.2746 -0.1046  0.2310
   79CHL1    H9 8290   0.993   3.581   7.623 -3.4218  0.5438 -0.0924
   79CHL1   C10 8291   1.069   3.707   7.461  0.1217  0.3504  0.3026
   79CHL1   C19 8292   1.133   3.838   7.418  0.4976 -0.3750 -0.2349
   79CHL1  H19A 8293   1.195   3.835   7.326  2.1518  1.4450  0.8038
   79CHL1  H19B 8294   1.066   3.925   7.434 -0.2232 -0.6261 -1.7903
   79CHL1  H19C 8295   1.211   3.858   7.494 -0.5867 -0.2080  0.8423
   79CHL1    C1 8296   1.173   3.588   7.442 -0.1418 -0.5243 -0.1644
   79CHL1   H1A 8297   1.257   3.599   7.514 -0.1437  0.0916 -0.2560
   79CHL1   H1B 8298   1.109   3.504   7.477  1.1910 -0.7663  1.7442
   79CHL1    C2 8299   1.222   3.567   7.295  0.0675 -0.5663 -0.5274
   79CHL1   H2A 8300   1.290   3.480   7.287  0.5935 -0.2309  0.3216
   79CHL1   H2B 8301   1.284   3.648   7.251 -0.5881  0.0879 -0.2511
   79CHL1   C20 8302   0.886   3.816   8.134 -1.3749  0.0281  0.4669
   79CHL1   H20 8303   0.884   3.926   8.125  2.5134  0.0650 -0.4907
   79CHL1   C21 8304   1.023   3.776   8.192 -0.3651  0.4572 -0.5473
   79CHL1  H21A 8305   1.112   3.837   8.165 -0.6138  0.9527 -0.2285
   79CHL1  H21B 8306   1.049   3.674   8.157  0.6491  0.0234  1.3833
   79CHL1  H21C 8307   1.013   3.773   8.302  0.7073 -0.0810 -0.4502
   79CHL1   C22 8308   0.776   3.790   8.247  0.3736  0.4545  0.2255
   79CHL1  H22A 8309   0.819   3.824   8.343 -0.4886 -1.5907  1.3554
   79CHL1  H22B 8310   0.683   3.844   8.218  0.7149  0.4394 -0.9629
   79CHL1   C23 8311   0.739   3.650   8.285  0.3146  0.1280 -0.1645
   79CHL1  H23A 8312   0.703   3.595   8.195  0.4560 -0.3618  0.0784
   79CHL1  H23B 8313   0.825   3.594   8.327  0.3567 -1.6365 -2.5130
   79CHL1   C24 8314   0.627   3.643   8.394 -0.1343 -0.0142  0.5129
   79CHL1  H24A 8315   0.659   3.715   8.472  0.3742 -0.0456  0.3353
   79CHL1  H24B 8316   0.534   3.692   8.360  1.1536  2.9023  1.0522
   79CHL1   C25 8317   0.598   3.499   8.452 -0.1548 -0.2674  0.3174
   79CHL1   H25 8318   0.693   3.443   8.463 -0.0707 -0.2822 -0.5233
   79CHL1   C26 8319   0.533   3.515   8.590  0.0794  0.5678  0.0489
   79CHL1  H26A 8320   0.433   3.560   8.580 -1.2748 -2.5952 -1.4502
   79CHL1  H26B 8321   0.511   3.417   8.639  0.0593  0.5478 -0.0019
   79CHL1  H26C 8322   0.595   3.563   8.669 -0.3431  2.1230 -0.5694
   79CHL1   C27 8323   0.515   3.416   8.354  0.8872  0.3679  0.0145
   79CHL1  H27A 8324   0.562   3.426   8.254 -1.0208 -1.1780 -1.0650
   79CHL1  H27B 8325   0.519   3.308   8.380 -3.9176  0.4099  1.4662
   79CHL1  H27C 8326   0.410   3.449   8.345  0.6006 -0.5645 -0.1765
   80CHL1    C3 8327   6.122   6.710   7.127 -0.1648 -0.3434  0.2512
   80CHL1    H3 8328   6.173   6.612   7.139  1.0025  0.4845  2.4147
   80CHL1    O3 8329   6.072   6.732   6.995  0.6472 -1.0446  0.6208
   80CHL1   H3' 8330   6.034   6.820   7.004  4.3674  0.6050  0.8894
   80CHL1    C4 8331   6.004   6.725   7.230  0.8937  0.8958  0.4728
   80CHL1   H4A 8332   5.962   6.827   7.222  1.2465  0.9593 -0.5222
   80CHL1   H4B 8333   5.924   6.655   7.197  1.3667  1.1238 -1.1824
   80CHL1    C5 8334   6.044   6.705   7.374 -0.2229 -0.0175  0.8433
   80CHL1    C6 8335   5.991   6.616   7.459  0.3230  0.0689 -0.1364
   80CHL1    H6 8336   5.909   6.552   7.423 -0.6656  1.7507 -0.9411
   80CHL1    C7 8337   6.035   6.594   7.599  0.1416  1.5807  0.4243
   80CHL1   H7A 8338   5.947   6.566   7.660  0.7984 -2.2801 -0.2545
   80CHL1   H7B 8339   6.110   6.514   7.620 -1.1006 -0.5329 -2.7663
   80CHL1    C8 8340   6.124   6.706   7.659  0.3056 -0.4721 -0.7120
   80CHL1    H8 8341   6.046   6.784   7.669 -2.7467 -3.1312 -2.7087
   80CHL1   C14 8342   6.196   6.659   7.786 -0.3660  0.5553  0.6313
   80CHL1   H14 8343   6.263   6.578   7.749 -2.3522 -0.6997 -0.3009
   80CHL1   C15 8344   6.119   6.599   7.904 -0.8557  0.2191 -0.1047
   80CHL1  H15A 8345   6.031   6.660   7.932 -0.7045  0.2127  0.3918
   80CHL1  H15B 8346   6.085   6.496   7.880 -0.5547 -0.0481  0.5916
   80CHL1   C16 8347   6.217   6.608   8.019 -0.2712  0.5034 -0.1212
   80CHL1  H16A 8348   6.167   6.633   8.115 -0.3325  2.0236 -0.5275
   80CHL1  H16B 8349   6.269   6.510   8.031  0.3987  0.9058  0.3351
   80CHL1   C17 8350   6.322   6.719   7.981 -0.4472  0.2620 -0.4359
   80CHL1   H17 8351   6.411   6.658   7.957 -1.9952 -2.8615  1.3966
   80CHL1   C13 8352   6.269   6.779   7.854 -0.3681  0.3051 -0.1457
   80CHL1   C18 8353   6.168   6.885   7.884  0.6227 -0.5261 -0.0704
   80CHL1  H18A 8354   6.107   6.864   7.975  1.3470 -0.9410  0.3267
   80CHL1  H18B 8355   6.230   6.971   7.915 -0.6908  0.7484 -0.9166
   80CHL1  H18C 8356   6.109   6.926   7.800  0.5732  0.0849  0.2650
   80CHL1   C12 8357   6.385   6.831   7.761  0.0370 -0.3747  0.6761
   80CHL1  H12A 8358   6.428   6.921   7.810  1.1732 -1.0912  1.0152
   80CHL1  H12B 8359   6.472   6.763   7.749  0.0977 -0.1919  0.0707
   80CHL1   C11 8360   6.336   6.855   7.615  0.3897 -0.2324 -0.0159
   80CHL1  H11A 8361   6.286   6.954   7.618 -1.3845 -1.1372  0.6771
   80CHL1  H11B 8362   6.427   6.866   7.552  0.6046 -0.0033  0.3339
   80CHL1    C9 8363   6.226   6.755   7.553  0.2748  0.2774 -0.0180
   80CHL1    H9 8364   6.292   6.670   7.524 -0.2561  0.3485 -1.4647
   80CHL1   C10 8365   6.162   6.794   7.415 -0.3439  0.2251  0.3468
   80CHL1   C19 8366   6.110   6.930   7.423 -0.8282 -0.1300 -0.3200
   80CHL1  H19A 8367   6.085   6.973   7.324  1.5980  0.3986 -0.7371
   80CHL1  H19B 8368   6.024   6.939   7.493  0.5743 -0.2277  1.4413
   80CHL1  H19C 8369   6.185   7.005   7.456 -1.5068 -0.5161  2.1470
   80CHL1    C1 8370   6.281   6.783   7.309 -0.3081  0.3641  0.3898
   80CHL1   H1A 8371   6.367   6.849   7.329 -1.2983  2.2678 -1.4250
   80CHL1   H1B 8372   6.316   6.677   7.313  0.4579  0.5904 -0.3242
   80CHL1    C2 8373   6.240   6.807   7.160 -0.1498 -0.2859 -0.2363
   80CHL1   H2A 8374   6.328   6.776   7.101  1.2403 -0.0707  1.7040
   80CHL1   H2B 8375   6.209   6.913   7.143  0.0090 -0.4801 -1.7866
   80CHL1   C20 8376   6.354   6.805   8.111  0.1655 -0.2384 -0.8620
   80CHL1   H20 8377   6.265   6.864   8.142  0.7248  0.2647 -0.2258
   80CHL1   C21 8378   6.473   6.901   8.085  0.7349 -1.0214  0.6167
   80CHL1  H21A 8379   6.511   6.956   8.174  0.6250  1.6365 -0.9489
   80CHL1  H21B 8380   6.432   6.975   8.013  1.7687 -0.3953  0.6723
   80CHL1  H21C 8381   6.553   6.838   8.042  0.7006 -0.1080 -0.7741
   80CHL1   C22 8382   6.390   6.720   8.236 -0.1482 -0.0704 -0.1898
   80CHL1  H22A 8383   6.325   6.630   8.249  0.0592 -0.4221 -1.4646
   80CHL1  H22B 8384   6.485   6.664   8.224 -0.0444  0.1090 -0.1989
   80CHL1   C23 8385   6.390   6.791   8.376  0.0891  0.4168  0.1376
   80CHL1  H23A 8386   6.423   6.718   8.452 -1.1350  0.5131  0.7620
   80CHL1  H23B 8387   6.462   6.876   8.377  0.2950  0.2342  1.2595
   80CHL1   C24 8388   6.252   6.843   8.419 -0.1347  0.5502 -0.4739
   80CHL1  H24A 8389   6.217   6.918   8.345  1.8632  2.4455  0.4646
   80CHL1  H24B 8390   6.183   6.755   8.418  0.5304  0.0192 -1.5293
   80CHL1   C25 8391   6.246   6.903   8.562 -0.1982  0.4843  0.3451
   80CHL1   H25 8392   6.316   6.989   8.563  1.2311 -0.6706  0.9070
   80CHL1   C26 8393   6.106   6.959   8.597  0.2556  0.3794 -0.0344
   80CHL1  H26A 8394   6.068   7.020   8.512  1.2225 -1.1247 -1.5782
   80CHL1  H26B 8395   6.038   6.875   8.622  1.8320 -0.6461  0.8922
   80CHL1  H26C 8396   6.115   7.015   8.693 -0.7819 -3.2598  2.2767
   80CHL1   C27 8397   6.286   6.812   8.674 -0.6825 -0.0394  0.1721
   80CHL1  H27A 8398   6.396   6.797   8.678 -0.4307  1.2676 -1.2009
   80CHL1  H27B 8399   6.288   6.873   8.767  0.2990 -0.6522  0.5500
   80CHL1  H27C 8400   6.222   6.721   8.678 -1.8929  0.7478 -0.7009
   81CHL1    C3 8401   3.391   0.935   6.809  0.1527  0.3749  0.4850
   81CHL1    H3 8402   3.420   0.838   6.855 -1.4702 -0.9024 -1.1078
   81CHL1    O3 8403   3.422   0.926   6.672  0.0471 -0.1607  0.9153
   81CHL1   H3' 8404   3.472   0.845   6.660  0.0935 -0.2795  1.9201
   81CHL1    C4 8405   3.240   0.969   6.820 -0.3173 -0.0170 -0.6433
   81CHL1   H4A 8406   3.223   1.053   6.749 -0.6807 -0.4794 -1.1064
   81CHL1   H4B 8407   3.176   0.889   6.776 -1.0899  0.7369 -0.9194
   81CHL1    C5 8408   3.191   1.010   6.960  0.2301  0.4550 -0.4190
   81CHL1    C6 8409   3.083   0.957   7.010  0.1447 -0.3099 -0.2173
   81CHL1    H6 8410   3.027   0.884   6.950 -0.8527  0.1209  0.1738
   81CHL1    C7 8411   3.036   0.977   7.157  0.4249  0.2061  0.5276
   81CHL1   H7A 8412   2.931   1.012   7.140  0.6404  1.1962  1.1900
   81CHL1   H7B 8413   3.038   0.883   7.216 -0.5370  0.7388  1.4257
   81CHL1    C8 8414   3.114   1.075   7.238 -0.5151 -0.4391 -0.1204
   81CHL1    H8 8415   3.076   1.177   7.219  0.9884 -0.0173 -0.8523
   81CHL1   C14 8416   3.089   1.037   7.386  0.2638  0.1280  0.3979
   81CHL1   H14 8417   3.130   0.934   7.389 -0.7829 -0.3604 -1.3293
   81CHL1   C15 8418   2.941   1.031   7.432  0.4110  0.4443  0.1488
   81CHL1  H15A 8419   2.884   1.118   7.393 -1.0301 -0.6080 -0.0956
   81CHL1  H15B 8420   2.895   0.936   7.399  1.0990  0.1505  0.0182
   81CHL1   C16 8421   2.958   1.046   7.588 -0.1338 -0.0193 -0.5128
   81CHL1  H16A 8422   2.899   1.136   7.617 -1.6726 -1.7739  1.9356
   81CHL1  H16B 8423   2.911   0.954   7.630  1.2262  0.3837  1.9546
   81CHL1   C17 8424   3.112   1.064   7.614  0.1587  0.1761  0.1085
   81CHL1   H17 8425   3.165   0.967   7.622 -0.0348  0.3020  3.4934
   81CHL1   C13 8426   3.156   1.127   7.480  0.5286 -0.5508  0.0141
   81CHL1   C18 8427   3.100   1.271   7.474  0.7510  0.0505 -0.4527
   81CHL1  H18A 8428   2.990   1.274   7.490  0.8416 -0.7417  0.3451
   81CHL1  H18B 8429   3.148   1.343   7.543 -1.3502 -0.3023  1.4395
   81CHL1  H18C 8430   3.124   1.310   7.373  0.3079 -2.9967 -1.8002
   81CHL1   C12 8431   3.309   1.128   7.442  0.4602 -0.8049  0.0914
   81CHL1  H12A 8432   3.371   1.183   7.515  1.1217  0.1300 -1.1434
   81CHL1  H12B 8433   3.346   1.023   7.439 -0.2713 -1.0340 -1.5966
   81CHL1   C11 8434   3.335   1.173   7.299  0.0952 -0.1878  0.0771
   81CHL1  H11A 8435   3.317   1.277   7.265 -0.4999 -0.5950 -0.8844
   81CHL1  H11B 8436   3.440   1.147   7.274  0.6040  3.2494 -1.6297
   81CHL1    C9 8437   3.265   1.074   7.206  0.0210  0.1849 -0.4267
   81CHL1    H9 8438   3.305   0.973   7.233 -0.3929 -0.0268 -0.6095
   81CHL1   C10 8439   3.291   1.093   7.054 -0.2118  0.2700  0.1265
   81CHL1   C19 8440   3.253   1.243   7.020  0.6313 -0.3082 -1.1198
   81CHL1  H19A 8441   3.255   1.268   6.912 -2.5531 -1.4134 -1.4852
   81CHL1  H19B 8442   3.146   1.261   7.044  0.4827 -2.8374  0.3865
   81CHL1  H19C 8443   3.329   1.316   7.054  0.6416 -0.8185 -0.0172
   81CHL1    C1 8444   3.438   1.060   7.022 -0.7187  0.7903  0.3831
   81CHL1   H1A 8445   3.506   1.131   7.074  0.0320 -1.1228  2.0738
   81CHL1   H1B 8446   3.451   0.961   7.070 -1.4280  0.0004 -1.0300
   81CHL1    C2 8447   3.470   1.050   6.871 -0.1825 -0.1471  0.3332
   81CHL1   H2A 8448   3.576   1.022   6.858 -0.1353 -0.9568  2.2228
   81CHL1   H2B 8449   3.447   1.141   6.812 -0.2514  0.3636  1.1483
   81CHL1   C20 8450   3.158   1.141   7.738  0.4675  0.7636 -0.2184
   81CHL1   H20 8451   3.143   1.251   7.729 -3.0748  0.1108 -3.5859
   81CHL1   C21 8452   3.302   1.106   7.770  0.9846 -0.6657  0.1124
   81CHL1  H21A 8453   3.379   1.149   7.703  0.4444 -1.4660 -1.0378
   81CHL1  H21B 8454   3.323   0.998   7.780 -1.7230 -1.1166  1.4572
   81CHL1  H21C 8455   3.322   1.145   7.872  0.5927 -1.3671  0.4597
   81CHL1   C22 8456   3.061   1.107   7.862  0.6350 -0.5673  0.2734
   81CHL1  H22A 8457   3.076   1.184   7.940 -1.0916  0.8179 -0.7303
   81CHL1  H22B 8458   2.954   1.114   7.832  0.5810 -0.8836  0.3954
   81CHL1   C23 8459   3.091   0.969   7.929 -0.3634  0.7783 -0.1536
   81CHL1  H23A 8460   3.116   0.896   7.849  1.6317  2.4074 -1.0763
   81CHL1  H23B 8461   3.187   0.980   7.984 -0.8124  1.1192  0.5773
   81CHL1   C24 8462   2.986   0.925   8.033  0.2353 -0.0378  0.1114
   81CHL1  H24A 8463   2.967   1.012   8.099  0.2868  0.8168 -1.0007
   81CHL1  H24B 8464   2.891   0.889   7.988  0.1083  2.1588 -1.4276
   81CHL1   C25 8465   3.035   0.804   8.122 -0.0540 -0.3977 -0.3070
   81CHL1   H25 8466   3.134   0.839   8.159 -0.6457  1.8278 -0.8077
   81CHL1   C26 8467   2.945   0.776   8.243  0.3366 -0.3562  0.1169
   81CHL1  H26A 8468   2.856   0.745   8.183  0.4952 -0.3127 -0.1420
   81CHL1  H26B 8469   2.979   0.688   8.301 -1.6218 -1.0573  0.2468
   81CHL1  H26C 8470   2.912   0.863   8.303 -2.6170 -2.2201  1.2977
   81CHL1   C27 8471   3.066   0.679   8.044 -0.3702  0.2837 -0.0698
   81CHL1  H27A 8472   3.154   0.704   7.981 -0.2488  0.3918  0.1419
   81CHL1  H27B 8473   3.086   0.602   8.121 -0.8141  0.7686  0.5358
   81CHL1  H27C 8474   2.988   0.625   7.986 -0.2025 -1.0392  0.9348
   82CHL1    C3 8475   4.117   1.489   7.035 -0.3732  0.7168 -0.1742
   82CHL1    H3 8476   4.062   1.586   7.033  0.3640  1.1514  0.3269
   82CHL1    O3 8477   4.123   1.435   6.906 -0.4562  0.2936 -0.1261
   82CHL1   H3' 8478   4.178   1.356   6.906 -3.1899 -1.6654  0.3267
   82CHL1    C4 8479   4.261   1.508   7.088 -1.0924 -0.2603  0.5240
   82CHL1   H4A 8480   4.317   1.412   7.086  1.4881  1.2279 -0.1547
   82CHL1   H4B 8481   4.313   1.583   7.024  1.1279 -0.6116  1.8428
   82CHL1    C5 8482   4.280   1.548   7.230  0.2312  0.1908 -0.0418
   82CHL1    C6 8483   4.354   1.652   7.270  0.2221 -0.1869 -0.2384
   82CHL1    H6 8484   4.399   1.718   7.194  1.3352  0.7077  1.1735
   82CHL1    C7 8485   4.379   1.684   7.414  0.1065  0.4586 -0.1363
   82CHL1   H7A 8486   4.486   1.701   7.439  1.5118 -4.1345 -2.3727
   82CHL1   H7B 8487   4.315   1.773   7.428 -0.9296 -0.3229  0.1504
   82CHL1    C8 8488   4.334   1.576   7.521  0.9803 -0.5494  0.0974
   82CHL1    H8 8489   4.417   1.502   7.524  0.3402 -1.3511 -1.3730
   82CHL1   C14 8490   4.303   1.652   7.647  0.0578 -0.7645  0.3917
   82CHL1   H14 8491   4.226   1.727   7.620 -0.1318 -0.8329  0.7338
   82CHL1   C15 8492   4.412   1.735   7.716 -0.8299 -0.1944 -0.0705
   82CHL1  H15A 8493   4.506   1.677   7.724 -2.5079 -3.2922 -1.6162
   82CHL1  H15B 8494   4.442   1.828   7.662  1.0501 -0.7387 -0.0105
   82CHL1   C16 8495   4.354   1.766   7.847  0.4062  0.6889  0.2975
   82CHL1  H16A 8496   4.433   1.763   7.924  0.1570 -2.7477  0.5383
   82CHL1  H16B 8497   4.318   1.871   7.845 -0.6222  0.3365 -0.5900
   82CHL1   C17 8498   4.238   1.672   7.874  0.3443  0.4859  0.0573
   82CHL1   H17 8499   4.154   1.736   7.838 -1.2076 -2.0180 -0.8834
   82CHL1   C13 8500   4.249   1.568   7.758  0.3418 -0.2375 -1.5782
   82CHL1   C18 8501   4.350   1.457   7.788 -0.2322  0.4482 -0.7469
   82CHL1  H18A 8502   4.316   1.376   7.856 -0.1804 -0.7130 -2.0790
   82CHL1  H18B 8503   4.374   1.396   7.698 -2.2119 -1.7848  0.1624
   82CHL1  H18C 8504   4.445   1.488   7.836 -0.0705  0.8229 -1.3037
   82CHL1   C12 8505   4.114   1.497   7.711 -0.0004 -0.2416 -0.5332
   82CHL1  H12A 8506   4.074   1.425   7.785 -0.8284  0.0355 -0.7103
   82CHL1  H12B 8507   4.033   1.573   7.702 -0.0921 -0.5278 -2.4010
   82CHL1   C11 8508   4.143   1.428   7.577  0.1553 -0.3657  0.1816
   82CHL1  H11A 8509   4.217   1.347   7.596 -0.3115 -0.4059  1.9319
   82CHL1  H11B 8510   4.049   1.382   7.540 -0.8709  0.1255  2.1057
   82CHL1    C9 8511   4.207   1.522   7.466  0.5117 -0.0033  0.4406
   82CHL1    H9 8512   4.141   1.611   7.466 -1.0293 -1.1153  2.5560
   82CHL1   C10 8513   4.203   1.462   7.323 -0.3095 -0.0596  0.3237
   82CHL1   C19 8514   4.270   1.324   7.336  0.1578 -0.3486 -0.7614
   82CHL1  H19A 8515   4.368   1.329   7.387 -0.9174  1.3284  1.1809
   82CHL1  H19B 8516   4.219   1.264   7.415 -1.3085  0.6221 -0.9630
   82CHL1  H19C 8517   4.277   1.272   7.238 -1.2523 -2.8890  0.4234
   82CHL1    C1 8518   4.055   1.442   7.279 -0.2600  0.1675 -0.6164
   82CHL1   H1A 8519   4.003   1.366   7.341 -1.0058  0.7517 -0.5241
   82CHL1   H1B 8520   4.005   1.541   7.279 -0.0515  0.2928 -2.3698
   82CHL1    C2 8521   4.044   1.391   7.132  0.1555  0.1572  0.5810
   82CHL1   H2A 8522   3.940   1.389   7.093  0.5393  2.1123 -0.5972
   82CHL1   H2B 8523   4.087   1.288   7.124 -1.6236 -0.5950  0.4295
   82CHL1   C20 8524   4.205   1.629   8.016  0.1007 -0.5533  0.0646
   82CHL1   H20 8525   4.145   1.537   8.003 -1.4659  0.4168  0.3216
   82CHL1   C21 8526   4.115   1.729   8.093  0.1198 -0.8160 -0.5020
   82CHL1  H21A 8527   4.065   1.682   8.180  0.1298  0.2016  0.0613
   82CHL1  H21B 8528   4.034   1.768   8.027 -0.1502 -1.7779 -0.7411
   82CHL1  H21C 8529   4.167   1.816   8.137  1.2041 -1.0848 -1.2427
   82CHL1   C22 8530   4.316   1.591   8.114 -0.7813  0.1926  0.5726
   82CHL1  H22A 8531   4.395   1.528   8.067  1.7162  1.5773  2.8029
   82CHL1  H22B 8532   4.367   1.684   8.146  0.0076  0.3339 -1.0337
   82CHL1   C23 8533   4.276   1.505   8.239  0.0754  0.0178  0.0990
   82CHL1  H23A 8534   4.191   1.558   8.287 -0.1792  0.4168 -0.7866
   82CHL1  H23B 8535   4.248   1.400   8.215  0.1092  0.6595 -3.0048
   82CHL1   C24 8536   4.380   1.489   8.348 -0.0491  0.7867 -0.2580
   82CHL1  H24A 8537   4.481   1.463   8.310 -0.1156 -0.4048  0.3321
   82CHL1  H24B 8538   4.370   1.582   8.408  1.9769  0.7449  0.1560
   82CHL1   C25 8539   4.369   1.375   8.447  0.0118  0.0223 -0.4250
   82CHL1   H25 8540   4.267   1.384   8.489  0.4471 -0.1935  0.7003
   82CHL1   C26 8541   4.382   1.238   8.387  0.4010  0.3868 -0.0095
   82CHL1  H26A 8542   4.354   1.170   8.471 -2.6196  1.9486  0.3090
   82CHL1  H26B 8543   4.317   1.217   8.299 -0.5652  2.7935  0.0910
   82CHL1  H26C 8544   4.487   1.220   8.357  1.1828 -2.1174  3.7636
   82CHL1   C27 8545   4.471   1.388   8.555  0.6725  0.0264 -0.0425
   82CHL1  H27A 8546   4.569   1.419   8.513 -0.1379  2.1923 -0.3710
   82CHL1  H27B 8547   4.450   1.473   8.623  1.0203  0.4635 -0.4751
   82CHL1  H27C 8548   4.489   1.296   8.614  1.2342 -0.2296 -0.6050
   83CHL1    C3 8549   0.653   2.685   6.926  0.1067 -0.6299 -0.0688
   83CHL1    H3 8550   0.568   2.623   6.962  1.6442 -1.8480  1.5566
   83CHL1    O3 8551   0.646   2.678   6.782 -0.4115 -0.2289 -0.0748
   83CHL1   H3' 8552   0.637   2.769   6.753  1.3485 -0.2274 -0.6918
   83CHL1    C4 8553   0.631   2.825   6.985 -0.3036  0.2085 -0.1331
   83CHL1   H4A 8554   0.712   2.890   6.947  1.7400 -3.6257 -2.6472
   83CHL1   H4B 8555   0.532   2.867   6.954 -1.2651 -0.7614  1.5626
   83CHL1    C5 8556   0.624   2.808   7.138 -0.3162 -0.0903 -0.0159
   83CHL1    C6 8557   0.514   2.844   7.205 -0.4232 -0.4599  0.4083
   83CHL1    H6 8558   0.434   2.896   7.149 -1.7207 -1.7170  1.0697
   83CHL1    C7 8559   0.499   2.844   7.355  0.8908  0.3411  0.1257
   83CHL1   H7A 8560   0.450   2.936   7.393  1.0786  0.5931 -0.2362
   83CHL1   H7B 8561   0.433   2.758   7.379  0.5273  0.8974  1.1265
   83CHL1    C8 8562   0.636   2.818   7.420  0.1783  0.1778  0.0659
   83CHL1    H8 8563   0.690   2.916   7.419 -1.0676  0.8750 -1.3787
   83CHL1   C14 8564   0.602   2.770   7.561  0.3818  0.1030  0.2066
   83CHL1   H14 8565   0.566   2.668   7.539 -0.0453  0.3998 -0.4777
   83CHL1   C15 8566   0.512   2.851   7.661 -0.7153  0.6813  0.4576
   83CHL1  H15A 8567   0.539   2.958   7.649 -0.4649  0.4754 -0.9107
   83CHL1  H15B 8568   0.406   2.831   7.632 -0.4336  1.7391 -1.4037
   83CHL1   C16 8569   0.548   2.797   7.797  0.2020 -0.4389  0.0668
   83CHL1  H16A 8570   0.585   2.887   7.852 -0.8491  0.8668 -1.3089
   83CHL1  H16B 8571   0.466   2.761   7.862  1.3706 -1.1593  1.1588
   83CHL1   C17 8572   0.661   2.692   7.767  0.3221  0.4303  0.2136
   83CHL1   H17 8573   0.607   2.599   7.739 -0.3598  0.3538  1.7290
   83CHL1   C13 8574   0.728   2.742   7.641  0.3813  0.7977  0.5174
   83CHL1   C18 8575   0.802   2.873   7.674 -0.3321 -0.6204  0.4928
   83CHL1  H18A 8576   0.879   2.872   7.753  1.7435 -0.2502 -1.4760
   83CHL1  H18B 8577   0.850   2.919   7.585 -1.7024 -0.0660  0.0125
   83CHL1  H18C 8578   0.743   2.956   7.719  0.1912  0.6964 -1.1974
   83CHL1   C12 8579   0.814   2.630   7.572 -0.0626  0.5113 -0.2540
   83CHL1  H12A 8580   0.908   2.601   7.624  0.9755  2.0764 -1.2176
   83CHL1  H12B 8581   0.754   2.537   7.579  1.0410 -0.1874  0.0854
   83CHL1   C11 8582   0.842   2.673   7.435  0.3421  0.8633 -0.2808
   83CHL1  H11A 8583   0.920   2.749   7.454  0.1111  0.2598  3.5317
   83CHL1  H11B 8584   0.891   2.593   7.375 -0.9740 -0.9288  0.9529
   83CHL1    C9 8585   0.719   2.709   7.357 -0.0604 -0.2873 -0.3144
   83CHL1    H9 8586   0.658   2.617   7.344 -0.2790 -0.0371 -1.0931
   83CHL1   C10 8587   0.745   2.742   7.205 -0.9391 -0.6571  0.6029
   83CHL1   C19 8588   0.871   2.835   7.188 -0.9976 -0.4875  0.2539
   83CHL1  H19A 8589   0.862   2.879   7.086  1.1599  1.9605  1.0507
   83CHL1  H19B 8590   0.873   2.928   7.248 -0.7058  0.1566 -0.7326
   83CHL1  H19C 8591   0.965   2.777   7.198  0.8077  1.5252 -3.7970
   83CHL1    C1 8592   0.785   2.609   7.127  0.0485  0.4635 -0.2227
   83CHL1   H1A 8593   0.890   2.582   7.154  0.7949 -0.1648 -3.5402
   83CHL1   H1B 8594   0.719   2.524   7.156  0.0372  1.4010  2.6287
   83CHL1    C2 8595   0.783   2.615   6.974 -0.0939  0.4423 -0.4165
   83CHL1   H2A 8596   0.787   2.514   6.928 -2.2853 -1.0652  2.5088
   83CHL1   H2B 8597   0.863   2.683   6.938  1.7150  0.3790  3.1736
   83CHL1   C20 8598   0.751   2.648   7.885  0.3572  0.4636  0.1855
   83CHL1   H20 8599   0.853   2.633   7.843 -0.3819  1.4645 -2.0220
   83CHL1   C21 8600   0.694   2.507   7.932 -0.0881 -0.0543  0.2901
   83CHL1  H21A 8601   0.683   2.428   7.855 -1.9203  1.3853 -0.9663
   83CHL1  H21B 8602   0.588   2.518   7.963 -0.3321 -2.1467  0.2455
   83CHL1  H21C 8603   0.755   2.459   8.012 -0.6369 -3.3827 -1.2436
   83CHL1   C22 8604   0.765   2.755   7.994  0.0078  0.3830  0.4982
   83CHL1  H22A 8605   0.796   2.853   7.953 -0.5451  0.1895 -0.3887
   83CHL1  H22B 8606   0.672   2.752   8.055  0.5390 -1.2955  1.2612
   83CHL1   C23 8607   0.883   2.716   8.092 -0.2773  0.1820 -1.0382
   83CHL1  H23A 8608   0.867   2.620   8.145  1.2125  0.8983  0.7711
   83CHL1  H23B 8609   0.969   2.689   8.026 -2.2937  0.9642 -4.1061
   83CHL1   C24 8610   0.895   2.830   8.192 -0.1928  0.1621 -0.6821
   83CHL1  H24A 8611   0.938   2.918   8.141  0.5232  1.2574  1.7628
   83CHL1  H24B 8612   0.797   2.844   8.243  0.5489 -2.4290  1.5448
   83CHL1   C25 8613   0.999   2.806   8.298 -0.2370 -0.6100 -0.6543
   83CHL1   H25 8614   1.022   2.906   8.341  1.3576 -1.5646  0.7836
   83CHL1   C26 8615   0.936   2.732   8.414 -0.2137  0.8194  0.7681
   83CHL1  H26A 8616   0.890   2.638   8.376 -1.0143  2.3267 -2.1498
   83CHL1  H26B 8617   1.013   2.711   8.491  0.2843  0.0439  0.0655
   83CHL1  H26C 8618   0.852   2.788   8.461 -2.3115 -1.0349 -0.6760
   83CHL1   C27 8619   1.142   2.753   8.262 -0.1590 -0.0921  0.7405
   83CHL1  H27A 8620   1.210   2.829   8.218  0.0981 -1.2014 -0.8042
   83CHL1  H27B 8621   1.193   2.724   8.357  0.6335 -0.0293  0.3457
   83CHL1  H27C 8622   1.143   2.660   8.201 -1.0562 -0.7192  1.6609
   84CHL1    C3 8623   3.268   5.998   6.919 -0.0385 -0.2829 -0.2067
   84CHL1    H3 8624   3.230   6.101   6.936 -1.8764 -0.9257 -0.2696
   84CHL1    O3 8625   3.281   5.963   6.774  0.2904  0.4543 -0.0497
   84CHL1   H3' 8626   3.192   5.964   6.740  0.7408  2.2371 -1.2777
   84CHL1    C4 8627   3.408   5.974   6.986  0.1349 -0.3154  0.9641
   84CHL1   H4A 8628   3.422   5.868   6.956 -0.5535  0.4642 -2.3420
   84CHL1   H4B 8629   3.482   6.034   6.929  0.0653 -3.3449 -2.5163
   84CHL1    C5 8630   3.397   5.990   7.137 -0.6307  0.4894  0.2433
   84CHL1    C6 8631   3.470   6.081   7.192  0.0362  0.3739  0.3108
   84CHL1    H6 8632   3.536   6.136   7.123  2.2262 -1.8449  0.5528
   84CHL1    C7 8633   3.485   6.117   7.340  0.2347 -0.0614  0.2052
   84CHL1   H7A 8634   3.594   6.126   7.361  0.7438 -3.6032 -0.6082
   84CHL1   H7B 8635   3.429   6.213   7.349  2.9740  1.3742  3.1729
   84CHL1    C8 8636   3.420   6.009   7.423 -0.4387 -0.4325 -0.7718
   84CHL1    H8 8637   3.490   5.923   7.421  1.4752  1.0975 -1.3459
   84CHL1   C14 8638   3.394   6.051   7.567 -0.1907 -0.2976 -0.5625
   84CHL1   H14 8639   3.312   6.126   7.561 -0.0455 -0.2803 -2.5706
   84CHL1   C15 8640   3.507   6.117   7.645  0.3920  0.4826 -0.1820
   84CHL1  H15A 8641   3.592   6.046   7.644 -1.2654 -1.5263 -1.4898
   84CHL1  H15B 8642   3.547   6.217   7.616  1.4012 -0.5508 -2.4923
   84CHL1   C16 8643   3.456   6.110   7.793 -0.1371 -0.1011  0.4775
   84CHL1  H16A 8644   3.538   6.078   7.860  0.4248  0.1518 -0.0814
   84CHL1  H16B 8645   3.425   6.212   7.826  3.6643  1.5232 -0.7618
   84CHL1   C17 8646   3.336   6.014   7.785  0.2147  0.2051  0.1355
   84CHL1   H17 8647   3.249   6.081   7.766  0.4010  0.7164  1.0775
   84CHL1   C13 8648   3.343   5.939   7.656 -0.3641  0.8346 -0.3531
   84CHL1   C18 8649   3.443   5.810   7.676 -0.3963 -0.0058 -0.5074
   84CHL1  H18A 8650   3.454   5.759   7.577 -1.2243  0.2726 -0.7530
   84CHL1  H18B 8651   3.542   5.843   7.713 -0.5818  0.5200 -0.4819
   84CHL1  H18C 8652   3.400   5.734   7.745 -0.9531  0.2465 -0.5721
   84CHL1   C12 8653   3.205   5.893   7.606 -0.0915  0.1690 -1.1025
   84CHL1  H12A 8654   3.191   5.801   7.667 -0.1816  0.7525 -0.2318
   84CHL1  H12B 8655   3.126   5.968   7.626  0.4078  0.3525  0.2485
   84CHL1   C11 8656   3.210   5.854   7.463 -0.0470 -0.4678 -0.4092
   84CHL1  H11A 8657   3.270   5.760   7.460 -0.8258 -0.9916  0.2423
   84CHL1  H11B 8658   3.106   5.842   7.427 -0.3760  0.8415  0.0725
   84CHL1    C9 8659   3.286   5.959   7.364  0.0192  0.5785  0.3794
   84CHL1    H9 8660   3.229   6.055   7.367  1.2584  1.4703 -2.8633
   84CHL1   C10 8661   3.292   5.903   7.216 -0.3817 -0.1934 -0.1502
   84CHL1   C19 8662   3.336   5.755   7.219 -0.0272  0.6838  0.2200
   84CHL1  H19A 8663   3.422   5.729   7.284 -0.7307 -1.5168  0.3333
   84CHL1  H19B 8664   3.247   5.700   7.259 -0.0924  0.0525 -0.7977
   84CHL1  H19C 8665   3.353   5.719   7.116  1.9649 -0.0272  0.7737
   84CHL1    C1 8666   3.160   5.917   7.143  1.0971  0.4925  0.5487
   84CHL1   H1A 8667   3.085   5.847   7.184 -0.4678  2.4740  1.1794
   84CHL1   H1B 8668   3.112   6.017   7.148 -0.0704 -0.1145  2.0211
   84CHL1    C2 8669   3.161   5.904   6.989  0.1549  0.5774  0.1797
   84CHL1   H2A 8670   3.059   5.921   6.950  0.9961  1.2174 -1.8072
   84CHL1   H2B 8671   3.183   5.799   6.958 -0.4935  0.2769  0.7253
   84CHL1   C20 8672   3.303   5.931   7.914 -0.5520  0.0188  0.2918
   84CHL1   H20 8673   3.257   5.832   7.895  3.5858 -2.3007  1.9657
   84CHL1   C21 8674   3.179   6.000   7.977 -0.3982  0.5682 -0.1289
   84CHL1  H21A 8675   3.211   6.105   7.999  2.7421 -0.1309 -1.0375
   84CHL1  H21B 8676   3.147   5.941   8.066  2.8039  0.1703  0.8297
   84CHL1  H21C 8677   3.095   6.017   7.906  0.8570  1.2278 -1.4857
   84CHL1   C22 8678   3.414   5.914   8.020 -0.7641  0.4252 -0.1136
   84CHL1  H22A 8679   3.507   5.872   7.974 -1.4837  2.2673 -3.4691
   84CHL1  H22B 8680   3.432   6.014   8.066  0.5979 -0.4682  1.3361
   84CHL1   C23 8681   3.369   5.815   8.134 -0.5534 -0.1211 -0.5968
   84CHL1  H23A 8682   3.285   5.858   8.192 -0.1157 -0.8156  0.5713
   84CHL1  H23B 8683   3.316   5.730   8.084 -1.4510 -0.3312  0.7076
   84CHL1   C24 8684   3.477   5.759   8.228 -0.4345  0.8060  0.0797
   84CHL1  H24A 8685   3.427   5.681   8.290  2.7103 -1.2421  0.1787
   84CHL1  H24B 8686   3.561   5.714   8.170 -0.1268  1.0722  0.3167
   84CHL1   C25 8687   3.546   5.858   8.328  0.2442 -0.1582  0.3684
   84CHL1   H25 8688   3.629   5.910   8.275 -0.6165 -0.8660 -1.7294
   84CHL1   C26 8689   3.450   5.943   8.411  0.1923  0.5779 -0.3787
   84CHL1  H26A 8690   3.503   6.012   8.481 -1.5260  0.5564  0.9887
   84CHL1  H26B 8691   3.385   6.002   8.343 -1.1502  1.7122  1.7980
   84CHL1  H26C 8692   3.380   5.878   8.468 -0.0879  0.8260 -0.4327
   84CHL1   C27 8693   3.630   5.777   8.426  0.0840  0.0488  0.3568
   84CHL1  H27A 8694   3.572   5.716   8.499  2.3033 -2.0857  0.3925
   84CHL1  H27B 8695   3.694   5.712   8.362  2.0660  0.8340  1.4859
   84CHL1  H27C 8696   3.684   5.847   8.494 -2.4123  2.6008 -0.1623
   85CHL1    C3 8697   2.765   3.386   6.731 -0.0350  0.1054 -0.2134
   85CHL1    H3 8698   2.855   3.448   6.746  0.0500 -0.0843  0.0539
   85CHL1    O3 8699   2.735   3.414   6.594  0.3779 -0.2275  0.5141
   85CHL1   H3' 8700   2.739   3.328   6.552  2.6781 -0.1474  0.5030
   85CHL1    C4 8701   2.796   3.237   6.740  0.1519 -0.5731  0.2525
   85CHL1   H4A 8702   2.720   3.178   6.684 -1.0793  2.2523 -1.1234
   85CHL1   H4B 8703   2.897   3.211   6.700 -0.4418 -0.9008 -1.0462
   85CHL1    C5 8704   2.800   3.179   6.881  0.6742  0.5125 -0.7869
   85CHL1    C6 8705   2.902   3.108   6.928 -0.3998 -0.1977  0.3075
   85CHL1    H6 8706   2.990   3.087   6.864 -1.3608 -0.6567 -0.8827
   85CHL1    C7 8707   2.903   3.057   7.065  0.2561 -0.6024  0.0574
   85CHL1   H7A 8708   2.941   2.953   7.061 -0.1602 -0.7240 -1.0064
   85CHL1   H7B 8709   2.966   3.120   7.130 -1.4413  1.7578 -0.5222
   85CHL1    C8 8710   2.761   3.050   7.131  0.3312 -0.4729 -0.8076
   85CHL1    H8 8711   2.713   2.965   7.079 -1.3250 -0.8254  1.2094
   85CHL1   C14 8712   2.774   3.020   7.283  0.3381  0.3456  0.4319
   85CHL1   H14 8713   2.824   3.108   7.328  1.5945  1.4092 -2.9070
   85CHL1   C15 8714   2.848   2.899   7.331  0.9180  0.3895  0.2483
   85CHL1  H15A 8715   2.813   2.808   7.276  0.4654 -1.5132  3.5742
   85CHL1  H15B 8716   2.958   2.890   7.322  0.8314  0.7515 -1.4028
   85CHL1   C16 8717   2.803   2.885   7.472 -0.5992 -0.1023 -0.1809
   85CHL1  H16A 8718   2.792   2.775   7.486  0.7784 -0.0384  1.6179
   85CHL1  H16B 8719   2.875   2.924   7.547 -0.4295 -0.1858 -0.3026
   85CHL1   C17 8720   2.677   2.972   7.493  0.1013 -1.0653 -0.8060
   85CHL1   H17 8721   2.699   3.069   7.543 -2.0053 -0.2035 -1.5098
   85CHL1   C13 8722   2.633   3.011   7.352 -0.1366  0.7034  0.1676
   85CHL1   C18 8723   2.557   2.888   7.291 -0.3794  0.5039 -0.2456
   85CHL1  H18A 8724   2.464   2.866   7.348 -0.7603  0.0132 -1.0477
   85CHL1  H18B 8725   2.537   2.891   7.182 -1.1353  0.9433 -0.0986
   85CHL1  H18C 8726   2.617   2.795   7.299 -2.6917 -0.9800  0.3926
   85CHL1   C12 8727   2.569   3.144   7.335  0.4350 -0.2406  0.4684
   85CHL1  H12A 8728   2.483   3.143   7.405 -0.5107  1.3316 -0.6457
   85CHL1  H12B 8729   2.641   3.221   7.370 -0.1771  0.3266  0.4733
   85CHL1   C11 8730   2.532   3.176   7.194 -0.3767 -0.7834  0.7761
   85CHL1  H11A 8731   2.461   3.102   7.152 -1.1919 -1.0075  2.4862
   85CHL1  H11B 8732   2.492   3.280   7.189 -2.0495 -1.4547  0.0410
   85CHL1    C9 8733   2.679   3.178   7.114 -0.3199 -0.2966 -1.0514
   85CHL1    H9 8734   2.734   3.257   7.170  1.6934 -2.3263 -0.1137
   85CHL1   C10 8735   2.674   3.215   6.969  0.2647 -0.1417 -0.1118
   85CHL1   C19 8736   2.553   3.138   6.902 -0.1055  0.0868  0.2216
   85CHL1  H19A 8737   2.460   3.182   6.944  0.6173  2.1552 -0.2382
   85CHL1  H19B 8738   2.538   3.147   6.793 -0.1359 -1.3375  0.0995
   85CHL1  H19C 8739   2.558   3.029   6.921 -2.6271 -0.0516  0.1475
   85CHL1    C1 8740   2.639   3.364   6.958 -0.7987 -0.2853  1.1693
   85CHL1   H1A 8741   2.536   3.386   6.992 -0.8482  1.6232 -0.1152
   85CHL1   H1B 8742   2.708   3.423   7.023 -1.2279  1.9278 -0.3363
   85CHL1    C2 8743   2.641   3.418   6.818 -0.8959  0.5561 -0.2994
   85CHL1   H2A 8744   2.613   3.525   6.815  2.1124  1.3673 -0.5608
   85CHL1   H2B 8745   2.550   3.374   6.772 -0.1071 -2.0132  0.5098
   85CHL1   C20 8746   2.572   2.897   7.584 -0.0620 -0.0706  0.5209
   85CHL1   H20 8747   2.537   2.814   7.520  0.1780  0.3761 -0.1939
   85CHL1   C21 8748   2.458   2.988   7.624 -0.3813  0.2373  0.1222
   85CHL1  H21A 8749   2.405   3.014   7.530  0.4548  1.6032  0.0184
   85CHL1  H21B 8750   2.484   3.087   7.668  0.7508 -0.4987  1.1559
   85CHL1  H21C 8751   2.388   2.945   7.699 -1.2188 -0.5474 -1.0922
   85CHL1   C22 8752   2.622   2.823   7.706  0.1571  0.1174  0.1681
   85CHL1  H22A 8753   2.542   2.769   7.761 -1.2293  1.3961 -0.5427
   85CHL1  H22B 8754   2.698   2.747   7.682 -0.3043 -0.0817 -0.6834
   85CHL1   C23 8755   2.702   2.908   7.820  0.1067 -0.5248 -0.0807
   85CHL1  H23A 8756   2.791   2.965   7.786  0.1651  0.2668  1.3820
   85CHL1  H23B 8757   2.646   2.992   7.867 -0.6910 -1.1402  0.0770
   85CHL1   C24 8758   2.741   2.804   7.930  0.1060  0.3740 -0.4397
   85CHL1  H24A 8759   2.650   2.749   7.963  1.0904  0.5976  2.7659
   85CHL1  H24B 8760   2.807   2.721   7.897  1.2173 -0.2738  3.2435
   85CHL1   C25 8761   2.812   2.869   8.047 -0.2951  0.7617 -0.1057
   85CHL1   H25 8762   2.753   2.958   8.080 -2.6793 -0.3958 -1.0882
   85CHL1   C26 8763   2.817   2.768   8.164  0.4411 -0.3914 -0.4948
   85CHL1  H26A 8764   2.881   2.679   8.148  0.8252 -0.0644 -0.8079
   85CHL1  H26B 8765   2.862   2.831   8.243 -2.1797 -0.1407  0.8294
   85CHL1  H26C 8766   2.721   2.722   8.193  0.3029  0.9627  1.2458
   85CHL1   C27 8767   2.951   2.911   8.008 -0.1897 -0.6163 -0.0506
   85CHL1  H27A 8768   2.951   3.006   7.951 -1.9456 -1.1738 -1.0106
   85CHL1  H27B 8769   3.018   2.941   8.091  0.2557 -1.1482 -0.2100
   85CHL1  H27C 8770   3.009   2.843   7.943 -1.4600 -1.2896 -0.4991
   86CHL1    C3 8771   4.852   0.783   6.990 -0.2045  0.2296  0.0140
   86CHL1    H3 8772   4.785   0.870   7.003 -2.1208 -1.2994  0.6328
   86CHL1    O3 8773   4.889   0.776   6.851 -0.3132 -0.3569  0.3265
   86CHL1   H3' 8774   4.815   0.789   6.791 -0.3715  1.1056  0.7150
   86CHL1    C4 8775   4.976   0.814   7.074  0.2188 -0.0706 -0.1840
   86CHL1   H4A 8776   5.056   0.740   7.053  1.8213  1.4207  0.5996
   86CHL1   H4B 8777   5.026   0.911   7.051 -0.9967  1.1335  2.1590
   86CHL1    C5 8778   4.937   0.808   7.226  0.2261 -0.2291  0.4699
   86CHL1    C6 8779   4.949   0.918   7.298  0.0208  0.1556 -0.0613
   86CHL1    H6 8780   5.000   1.001   7.247 -0.3726 -0.0167 -0.7521
   86CHL1    C7 8781   4.921   0.916   7.441 -0.5693 -0.2323 -0.3195
   86CHL1   H7A 8782   5.007   0.961   7.496 -0.7325  0.3380 -0.5221
   86CHL1   H7B 8783   4.822   0.956   7.472 -0.7574 -0.3185 -0.8005
   86CHL1    C8 8784   4.904   0.776   7.508 -0.2265 -0.4848 -0.1626
   86CHL1    H8 8785   5.006   0.733   7.514 -0.0803  0.0254  1.4170
   86CHL1   C14 8786   4.861   0.776   7.655 -0.1863 -0.2755  0.1025
   86CHL1   H14 8787   4.759   0.819   7.657 -0.1861 -0.2869  0.5829
   86CHL1   C15 8788   4.938   0.872   7.755  0.5149  0.4018  0.9510
   86CHL1  H15A 8789   5.048   0.879   7.746  0.3507  0.4651 -1.2272
   86CHL1  H15B 8790   4.891   0.972   7.742 -0.3009 -0.3179 -1.9618
   86CHL1   C16 8791   4.893   0.806   7.892  0.1180  0.2601 -0.1339
   86CHL1  H16A 8792   4.989   0.779   7.941 -0.1764 -0.8704 -0.1692
   86CHL1  H16B 8793   4.839   0.873   7.961  0.1309  2.1353 -1.8879
   86CHL1   C17 8794   4.814   0.675   7.859 -0.1320 -0.3328  0.0917
   86CHL1   H17 8795   4.707   0.702   7.852 -1.0232 -3.6117  0.4258
   86CHL1   C13 8796   4.850   0.639   7.714 -0.2388 -0.1391  0.0475
   86CHL1   C18 8797   4.985   0.558   7.711  0.1850  0.3540  0.3476
   86CHL1  H18A 8798   5.059   0.604   7.779  3.6576 -1.2152 -2.2355
   86CHL1  H18B 8799   4.975   0.454   7.749  0.9174  0.7891  1.7704
   86CHL1  H18C 8800   5.030   0.554   7.610 -0.2869  0.6161  0.1292
   86CHL1   C12 8801   4.737   0.567   7.637 -0.2476  0.5394  0.4616
   86CHL1  H12A 8802   4.729   0.469   7.689  0.0089  0.5131  0.4535
   86CHL1  H12B 8803   4.650   0.635   7.648 -0.9635 -0.5635  1.8542
   86CHL1   C11 8804   4.769   0.544   7.485  0.2680 -0.2101  0.7126
   86CHL1  H11A 8805   4.849   0.466   7.482 -0.4513 -0.9174 -1.6033
   86CHL1  H11B 8806   4.696   0.500   7.413  2.3608  0.3080 -1.8071
   86CHL1    C9 8807   4.811   0.691   7.420 -0.0885 -0.4620 -0.2965
   86CHL1    H9 8808   4.717   0.749   7.414  0.4072  0.2435 -1.2627
   86CHL1   C10 8809   4.863   0.675   7.275 -0.6192 -0.4944 -0.6081
   86CHL1   C19 8810   4.956   0.554   7.262  0.4342 -0.4591  0.1962
   86CHL1  H19A 8811   4.907   0.457   7.283  1.2911 -0.8507  0.4087
   86CHL1  H19B 8812   5.007   0.555   7.163  3.6878  0.4194  1.7835
   86CHL1  H19C 8813   5.040   0.549   7.336  2.0974  0.8706 -1.5397
   86CHL1    C1 8814   4.746   0.651   7.178  0.3845  0.7658  0.9984
   86CHL1   H1A 8815   4.720   0.545   7.196  0.4523  0.5558 -0.1570
   86CHL1   H1B 8816   4.656   0.713   7.200  0.0710  1.0384 -0.9989
   86CHL1    C2 8817   4.779   0.645   7.029 -0.4984  0.1009  0.3352
   86CHL1   H2A 8818   4.683   0.626   6.976 -0.0809  1.9351 -1.1392
   86CHL1   H2B 8819   4.845   0.563   6.994 -1.0540 -0.8189  1.4273
   86CHL1   C20 8820   4.840   0.571   7.973  0.6055 -0.4795  0.3684
   86CHL1   H20 8821   4.944   0.531   7.968  0.6552 -0.1346 -1.7162
   86CHL1   C21 8822   4.749   0.445   7.951  0.1232 -0.2860 -0.5182
   86CHL1  H21A 8823   4.646   0.477   7.924  0.7119 -0.0084 -2.5282
   86CHL1  H21B 8824   4.743   0.367   8.029 -0.3047 -0.4666 -0.7320
   86CHL1  H21C 8825   4.770   0.381   7.862 -1.5771 -2.3228  0.5000
   86CHL1   C22 8826   4.803   0.623   8.119 -0.4941  0.0953 -0.3716
   86CHL1  H22A 8827   4.817   0.531   8.180 -0.6479 -0.8882 -1.7916
   86CHL1  H22B 8828   4.885   0.691   8.151 -0.8845 -0.3833  1.7132
   86CHL1   C23 8829   4.657   0.677   8.143 -0.4135 -0.0354  0.3275
   86CHL1  H23A 8830   4.658   0.780   8.101  1.6732 -0.0114  0.3930
   86CHL1  H23B 8831   4.592   0.613   8.079  0.3153  0.4219 -0.8893
   86CHL1   C24 8832   4.618   0.676   8.297  0.1726 -0.1466  0.2777
   86CHL1  H24A 8833   4.610   0.573   8.338 -0.0275 -0.7429 -1.2238
   86CHL1  H24B 8834   4.704   0.723   8.349  0.9074 -2.5427  1.2919
   86CHL1   C25 8835   4.490   0.751   8.340 -0.1062 -0.2688  0.2343
   86CHL1   H25 8836   4.411   0.718   8.269 -1.2907  0.8042  1.0308
   86CHL1   C26 8837   4.442   0.719   8.488 -0.1970  0.5774 -0.6298
   86CHL1  H26A 8838   4.465   0.611   8.499  1.7983  0.9601 -0.8035
   86CHL1  H26B 8839   4.494   0.777   8.567 -1.2391 -0.1490  0.5983
   86CHL1  H26C 8840   4.333   0.740   8.492 -0.5193 -0.7023 -1.9147
   86CHL1   C27 8841   4.511   0.904   8.328  0.2967 -0.1756  0.0541
   86CHL1  H27A 8842   4.593   0.934   8.398 -1.0682  0.9440  1.2134
   86CHL1  H27B 8843   4.547   0.938   8.229 -1.5273 -1.8463 -1.2048
   86CHL1  H27C 8844   4.426   0.966   8.365 -1.0865 -1.6488 -0.6159
   87CHL1    C3 8845   4.898   5.935   7.015  0.6422  0.8925  0.3540
   87CHL1    H3 8846   4.797   5.897   7.042  0.6619 -0.3282 -1.2355
   87CHL1    O3 8847   4.931   5.913   6.877 -0.3591  0.5892  0.2957
   87CHL1   H3' 8848   4.862   5.959   6.830 -0.9764  0.6367  1.2380
   87CHL1    C4 8849   4.899   6.087   7.043  0.2898  0.9038 -0.3737
   87CHL1   H4A 8850   4.994   6.120   6.995  1.0238 -0.9792 -0.2702
   87CHL1   H4B 8851   4.823   6.137   6.979 -0.7229 -1.1958 -0.8457
   87CHL1    C5 8852   4.895   6.129   7.190  0.6442 -0.3384 -0.0446
   87CHL1    C6 8853   4.807   6.221   7.225  0.0951 -0.1445  0.0186
   87CHL1    H6 8854   4.734   6.249   7.148  0.3256  1.0305  0.2202
   87CHL1    C7 8855   4.784   6.273   7.363 -0.2733 -0.1789 -0.6338
   87CHL1   H7A 8856   4.773   6.383   7.376 -0.3568 -0.3790  1.1452
   87CHL1   H7B 8857   4.694   6.224   7.406 -2.1021  1.9995 -1.8550
   87CHL1    C8 8858   4.909   6.244   7.452 -1.0160  0.3318 -0.5534
   87CHL1    H8 8859   4.993   6.310   7.422 -1.1798  0.0195 -1.7444
   87CHL1   C14 8860   4.869   6.262   7.598  0.1686  0.1062 -0.1490
   87CHL1   H14 8861   4.797   6.180   7.616 -0.0123  0.0316 -1.1755
   87CHL1   C15 8862   4.803   6.388   7.641  0.0695 -0.2089  0.1683
   87CHL1  H15A 8863   4.854   6.477   7.597 -3.7539  2.2674  0.4622
   87CHL1  H15B 8864   4.695   6.396   7.614 -0.2199 -0.1757  1.3314
   87CHL1   C16 8865   4.805   6.383   7.797 -0.0356 -0.1288  0.4688
   87CHL1  H16A 8866   4.852   6.478   7.831 -1.1107  0.6680 -0.2266
   87CHL1  H16B 8867   4.710   6.378   7.855  1.0318  1.0868  2.3636
   87CHL1   C17 8868   4.912   6.266   7.827  0.1153 -0.2289 -0.2219
   87CHL1   H17 8869   4.859   6.172   7.853 -1.3757  0.8311  0.6251
   87CHL1   C13 8870   4.986   6.236   7.694  1.1411  0.5501 -0.4975
   87CHL1   C18 8871   5.108   6.331   7.672 -1.2480 -0.3217 -0.2491
   87CHL1  H18A 8872   5.077   6.437   7.680  3.0065  0.8790  2.0851
   87CHL1  H18B 8873   5.179   6.313   7.755 -1.2417 -1.3964 -0.4796
   87CHL1  H18C 8874   5.171   6.308   7.582  0.7651  2.1821  0.4683
   87CHL1   C12 8875   5.033   6.091   7.669  0.1648  0.7298  0.2777
   87CHL1  H12A 8876   5.126   6.087   7.730  1.0170  1.3892 -0.9378
   87CHL1  H12B 8877   4.970   6.016   7.721  2.3407  0.4268  2.5829
   87CHL1   C11 8878   5.062   6.056   7.529  0.3621  0.0686  0.0926
   87CHL1  H11A 8879   5.158   6.102   7.496  0.6026 -0.4223  0.0946
   87CHL1  H11B 8880   5.086   5.948   7.521 -0.0372 -0.0321  0.2551
   87CHL1    C9 8881   4.955   6.092   7.425  0.6289  0.4927 -0.0444
   87CHL1    H9 8882   4.876   6.019   7.453 -0.0045  2.0624  2.3001
   87CHL1   C10 8883   4.993   6.060   7.281 -0.3190  0.3396 -0.5500
   87CHL1   C19 8884   5.131   6.107   7.245 -0.4107 -0.1132 -0.3061
   87CHL1  H19A 8885   5.213   6.045   7.288  0.9182  1.6571 -0.2443
   87CHL1  H19B 8886   5.152   6.102   7.136  2.1954 -2.1491  0.2350
   87CHL1  H19C 8887   5.143   6.215   7.266 -3.8577  0.2105  0.1974
   87CHL1    C1 8888   4.976   5.905   7.257  0.3488  0.9399 -0.7385
   87CHL1   H1A 8889   5.050   5.848   7.317 -0.3542  2.0971  1.2732
   87CHL1   H1B 8890   4.871   5.882   7.286  0.2218  1.4806 -0.7767
   87CHL1    C2 8891   5.006   5.866   7.107 -0.3469  0.5630  0.0484
   87CHL1   H2A 8892   4.998   5.755   7.110 -0.7374  0.6051  0.6130
   87CHL1   H2B 8893   5.113   5.882   7.083 -0.2221 -0.6762 -0.2527
   87CHL1   C20 8894   5.001   6.287   7.956 -0.0365  0.0720 -0.2181
   87CHL1   H20 8895   5.066   6.370   7.919  0.3572  0.4199  1.2419
   87CHL1   C21 8896   5.097   6.176   7.990 -0.4484 -0.2204  0.2514
   87CHL1  H21A 8897   5.164   6.164   7.902  1.3174  3.7578  0.9598
   87CHL1  H21B 8898   5.035   6.084   8.006  0.7964 -1.2560 -0.7408
   87CHL1  H21C 8899   5.157   6.200   8.079 -1.2043  0.0901  0.6805
   87CHL1   C22 8900   4.922   6.350   8.076 -0.4966  0.5059  0.3070
   87CHL1  H22A 8901   5.002   6.370   8.150  1.7704  0.7720 -2.1479
   87CHL1  H22B 8902   4.880   6.449   8.050  1.4560  1.8289  2.1045
   87CHL1   C23 8903   4.814   6.268   8.153 -0.6946 -0.7113  0.1745
   87CHL1  H23A 8904   4.721   6.272   8.093 -2.3883  4.5050  2.7774
   87CHL1  H23B 8905   4.849   6.163   8.162  1.3453 -0.2123 -1.5233
   87CHL1   C24 8906   4.780   6.325   8.293  0.2523 -0.5362 -0.0677
   87CHL1  H24A 8907   4.854   6.286   8.367  0.0792 -2.7365 -1.0087
   87CHL1  H24B 8908   4.789   6.436   8.287 -1.0619 -0.3635  0.7934
   87CHL1   C25 8909   4.643   6.275   8.348 -0.5042 -0.1487 -0.4297
   87CHL1   H25 8910   4.575   6.297   8.263 -0.9354 -3.5092 -1.0217
   87CHL1   C26 8911   4.650   6.122   8.367 -0.2327 -0.4659 -1.3360
   87CHL1  H26A 8912   4.682   6.102   8.472  0.7210 -2.4292 -1.9678
   87CHL1  H26B 8913   4.545   6.087   8.362 -1.3282  2.7715 -1.7022
   87CHL1  H26C 8914   4.711   6.066   8.292 -0.1806 -1.0538 -0.8561
   87CHL1   C27 8915   4.602   6.348   8.476  0.0183 -0.6408  0.3502
   87CHL1  H27A 8916   4.583   6.456   8.456  0.3405 -0.9723 -1.8537
   87CHL1  H27B 8917   4.510   6.305   8.520  0.5690 -2.2027 -0.0067
   87CHL1  H27C 8918   4.682   6.338   8.552 -0.6484  1.7325  1.4312
   88CHL1    C3 8919   2.260   4.592   6.817 -0.2093 -0.1661  0.0031
   88CHL1    H3 8920   2.160   4.593   6.865  1.0296  0.5143  2.7241
   88CHL1    O3 8921   2.250   4.595   6.677  0.0432  0.3177  0.6989
   88CHL1   H3' 8922   2.340   4.600   6.645 -0.2423 -0.0938 -0.1858
   88CHL1    C4 8923   2.348   4.703   6.880 -0.1875  0.9154  0.2617
   88CHL1   H4A 8924   2.446   4.694   6.830  0.3008  1.3421  1.1362
   88CHL1   H4B 8925   2.311   4.807   6.865 -2.7026  0.2562  1.5618
   88CHL1    C5 8926   2.396   4.688   7.026 -0.3541  0.4356 -0.0674
   88CHL1    C6 8927   2.389   4.796   7.110 -0.2635  0.2860 -0.3880
   88CHL1    H6 8928   2.343   4.881   7.058 -2.1746 -0.4020  0.1278
   88CHL1    C7 8929   2.427   4.784   7.255 -0.5914 -0.8441 -0.1722
   88CHL1   H7A 8930   2.494   4.868   7.286 -3.0519  0.8110  0.7993
   88CHL1   H7B 8931   2.343   4.789   7.328 -1.3141  0.0718 -1.0665
   88CHL1    C8 8932   2.506   4.655   7.286  0.5822 -0.6324 -0.1126
   88CHL1    H8 8933   2.609   4.681   7.254  0.8888  2.0565  2.8227
   88CHL1   C14 8934   2.499   4.623   7.436 -0.5834  0.5402  0.2836
   88CHL1   H14 8935   2.396   4.584   7.449  0.2256 -1.6191  0.4977
   88CHL1   C15 8936   2.515   4.737   7.535 -0.3811  0.8895  0.2439
   88CHL1  H15A 8937   2.604   4.799   7.508 -0.3541  0.8078  0.1489
   88CHL1  H15B 8938   2.429   4.805   7.554 -1.2879 -0.3435  0.5662
   88CHL1   C16 8939   2.556   4.679   7.673  0.5284  0.1580 -0.0702
   88CHL1  H16A 8940   2.657   4.714   7.701  0.1347  1.2102  0.0450
   88CHL1  H16B 8941   2.491   4.695   7.761 -0.1237  1.0489 -0.7057
   88CHL1   C17 8942   2.573   4.526   7.641 -0.0954 -0.5779 -0.8439
   88CHL1   H17 8943   2.476   4.478   7.666  0.3068  0.1066  2.2416
   88CHL1   C13 8944   2.588   4.515   7.490 -0.0840 -0.1845  0.4111
   88CHL1   C18 8945   2.737   4.534   7.453  0.8427  0.3002  0.0712
   88CHL1  H18A 8946   2.758   4.540   7.344 -0.7087 -4.7148 -0.6194
   88CHL1  H18B 8947   2.780   4.628   7.494 -2.1520  0.5181  2.9818
   88CHL1  H18C 8948   2.809   4.456   7.486 -0.5401 -0.5749  1.0725
   88CHL1   C12 8949   2.531   4.381   7.421 -0.0140  0.0270  0.2085
   88CHL1  H12A 8950   2.594   4.292   7.446  2.5257  1.2259 -1.7523
   88CHL1  H12B 8951   2.424   4.376   7.450 -0.7069 -0.8374 -2.4207
   88CHL1   C11 8952   2.531   4.397   7.268 -0.7101 -0.0169 -0.4674
   88CHL1  H11A 8953   2.635   4.411   7.229 -0.4515  1.6110  0.7681
   88CHL1  H11B 8954   2.484   4.308   7.221 -2.8531  0.7442  0.2032
   88CHL1    C9 8955   2.456   4.529   7.216  0.4264  0.2294  0.3914
   88CHL1    H9 8956   2.349   4.510   7.241  0.5505 -1.8992 -0.6664
   88CHL1   C10 8957   2.446   4.547   7.063  0.0162  0.3211 -0.2859
   88CHL1   C19 8958   2.584   4.521   7.001  0.1274 -0.0428  0.2509
   88CHL1  H19A 8959   2.660   4.567   7.067  0.3161  0.1673 -0.1156
   88CHL1  H19B 8960   2.589   4.411   6.985 -2.9415  0.1081 -2.2841
   88CHL1  H19C 8961   2.607   4.568   6.904 -0.1976 -0.4980 -0.0479
   88CHL1    C1 8962   2.354   4.442   6.997 -0.4011  0.3455 -0.0869
   88CHL1   H1A 8963   2.387   4.337   7.016  2.8865  1.3791  0.2614
   88CHL1   H1B 8964   2.259   4.444   7.055  0.4876 -1.5139  1.5323
   88CHL1    C2 8965   2.327   4.463   6.846  0.0372  0.6803  0.7632
   88CHL1   H2A 8966   2.267   4.373   6.822  0.7647  0.7301 -1.3460
   88CHL1   H2B 8967   2.421   4.441   6.791 -1.6694  0.4128 -2.1013
   88CHL1   C20 8968   2.682   4.459   7.736  0.3545 -1.2417 -0.2233
   88CHL1   H20 8969   2.771   4.525   7.727  1.5427 -3.0458 -1.9045
   88CHL1   C21 8970   2.707   4.316   7.698 -0.4778  0.3395  0.3637
   88CHL1  H21A 8971   2.733   4.298   7.592  0.4497  2.4043  0.2298
   88CHL1  H21B 8972   2.615   4.264   7.734 -0.6652  1.8723  2.1825
   88CHL1  H21C 8973   2.799   4.291   7.755  0.6600 -0.6175 -1.8502
   88CHL1   C22 8974   2.647   4.474   7.890 -0.4288 -0.2579  0.2615
   88CHL1  H22A 8975   2.730   4.449   7.959 -2.0715  0.4670  2.5219
   88CHL1  H22B 8976   2.644   4.585   7.889  1.0931 -0.1925  0.8398
   88CHL1   C23 8977   2.522   4.406   7.945 -0.1882 -0.6593 -0.7883
   88CHL1  H23A 8978   2.440   4.402   7.870 -0.9957 -1.8966  0.1314
   88CHL1  H23B 8979   2.552   4.300   7.953  1.7393 -0.2760 -2.6147
   88CHL1   C24 8980   2.467   4.455   8.079  0.1128  0.2534  0.6694
   88CHL1  H24A 8981   2.561   4.449   8.138 -0.0135 -1.2569  0.7250
   88CHL1  H24B 8982   2.434   4.561   8.077 -1.0073 -0.0993 -0.0209
   88CHL1   C25 8983   2.356   4.371   8.145  0.6504  0.7408 -0.3145
   88CHL1   H25 8984   2.392   4.268   8.126  0.6600  0.3722  1.6649
   88CHL1   C26 8985   2.348   4.397   8.298  0.4424  0.0639 -0.4338
   88CHL1  H26A 8986   2.432   4.364   8.362  0.2714 -0.8283 -0.6668
   88CHL1  H26B 8987   2.325   4.506   8.311 -0.8751 -0.2433 -0.0800
   88CHL1  H26C 8988   2.259   4.343   8.338 -0.3884  1.4100 -0.3921
   88CHL1   C27 8989   2.215   4.397   8.091 -0.3862  0.4785  0.0422
   88CHL1  H27A 8990   2.206   4.363   7.985 -3.1867 -1.3966  0.8365
   88CHL1  H27B 8991   2.138   4.343   8.149 -0.0941 -0.2565 -0.2516
   88CHL1  H27C 8992   2.193   4.505   8.107 -1.0478  0.0968  1.6864
   89CHL1    C3 8993   5.465   0.778   7.213  0.1503 -0.2636 -0.0588
   89CHL1    H3 8994   5.516   0.870   7.246 -1.0303  0.7535 -1.0189
   89CHL1    O3 8995   5.445   0.778   7.074  0.0561 -0.4988  0.2596
   89CHL1   H3' 8996   5.506   0.712   7.042  0.3899  0.8712 -2.0821
   89CHL1    C4 8997   5.544   0.648   7.247  0.4787 -0.6536 -0.0441
   89CHL1   H4A 8998   5.480   0.560   7.222 -0.9366 -0.0716  1.4079
   89CHL1   H4B 8999   5.638   0.630   7.192  0.4917 -1.6968  0.3083
   89CHL1    C5 9000   5.563   0.636   7.400 -0.0289  0.6449 -0.5535
   89CHL1    C6 9001   5.687   0.635   7.452  0.0712 -0.5594  0.5217
   89CHL1    H6 9002   5.766   0.652   7.377 -0.9427 -3.1700 -1.1804
   89CHL1    C7 9003   5.723   0.645   7.595 -0.0619  0.0425 -0.4436
   89CHL1   H7A 9004   5.799   0.570   7.624 -2.7925 -2.6167  0.0676
   89CHL1   H7B 9005   5.757   0.744   7.633  1.9586 -0.7886 -0.0047
   89CHL1    C8 9006   5.605   0.623   7.691 -0.5623 -0.0610  0.5040
   89CHL1    H8 9007   5.572   0.516   7.687 -1.6980  0.2488  1.1797
   89CHL1   C14 9008   5.637   0.656   7.840  0.6312  0.6361 -0.6741
   89CHL1   H14 9009   5.657   0.765   7.849 -0.9326  0.8730  0.0693
   89CHL1   C15 9010   5.749   0.585   7.917  0.1476 -0.0302  0.2587
   89CHL1  H15A 9011   5.762   0.477   7.894  1.7187  0.4414 -1.1482
   89CHL1  H15B 9012   5.842   0.640   7.891  0.3433 -0.7686 -0.6620
   89CHL1   C16 9013   5.709   0.615   8.066  0.0089 -0.3760  0.7863
   89CHL1  H16A 9014   5.731   0.522   8.122 -1.6135 -0.4135  1.3991
   89CHL1  H16B 9015   5.769   0.697   8.110  3.7345 -1.1145 -2.6027
   89CHL1   C17 9016   5.564   0.665   8.070 -0.6227 -0.0575  0.6214
   89CHL1   H17 9017   5.562   0.776   8.065  0.5973 -0.1187 -1.8547
   89CHL1   C13 9018   5.514   0.632   7.929 -0.4589 -0.2389 -0.2735
   89CHL1   C18 9019   5.476   0.477   7.921 -0.1716 -0.5715  0.1073
   89CHL1  H18A 9020   5.553   0.407   7.959 -1.8310 -3.6601 -2.0352
   89CHL1  H18B 9021   5.384   0.459   7.981 -0.9165 -0.1237 -0.8837
   89CHL1  H18C 9022   5.443   0.433   7.825  0.9491 -1.4685  0.1281
   89CHL1   C12 9023   5.406   0.730   7.881  0.4201  0.1052 -0.0700
   89CHL1  H12A 9024   5.323   0.703   7.950  0.1792  1.1994  0.0687
   89CHL1  H12B 9025   5.437   0.836   7.886  2.8566 -0.5235 -1.0561
   89CHL1   C11 9026   5.358   0.693   7.737  0.3635  0.6864 -0.1133
   89CHL1  H11A 9027   5.312   0.592   7.737  2.8806 -0.4935  0.0431
   89CHL1  H11B 9028   5.280   0.763   7.700  0.5870 -0.2256 -2.3681
   89CHL1    C9 9029   5.479   0.699   7.639  0.1278  0.6144  1.2319
   89CHL1    H9 9030   5.521   0.802   7.639  3.0069 -0.5050 -0.9243
   89CHL1   C10 9031   5.446   0.656   7.499 -0.0511 -0.9882 -0.3538
   89CHL1   C19 9032   5.366   0.522   7.502 -0.2984  0.2476 -0.6141
   89CHL1  H19A 9033   5.262   0.529   7.538  0.8536  2.3328  2.5755
   89CHL1  H19B 9034   5.363   0.483   7.398 -0.6930 -1.3125 -0.0295
   89CHL1  H19C 9035   5.431   0.455   7.562  0.3678  0.5486 -0.9798
   89CHL1    C1 9036   5.349   0.772   7.436 -0.6636 -0.1847  0.4700
   89CHL1   H1A 9037   5.245   0.748   7.469 -0.5662  0.2750  1.1180
   89CHL1   H1B 9038   5.364   0.871   7.483  1.8116 -0.8314  1.1002
   89CHL1    C2 9039   5.331   0.775   7.287 -0.4626  0.1492  0.7429
   89CHL1   H2A 9040   5.271   0.867   7.271 -1.2419 -0.5241 -0.2769
   89CHL1   H2B 9041   5.278   0.692   7.236  0.1777  0.8148 -1.0614
   89CHL1   C20 9042   5.472   0.631   8.188  0.9964  0.4891 -0.5720
   89CHL1   H20 9043   5.367   0.654   8.162  0.4303  1.2374  2.1866
   89CHL1   C21 9044   5.512   0.729   8.298  0.0821 -0.0571  0.2334
   89CHL1  H21A 9045   5.428   0.737   8.371 -0.9355 -3.7408 -0.4491
   89CHL1  H21B 9046   5.538   0.827   8.252 -1.4681  0.4168  0.3289
   89CHL1  H21C 9047   5.609   0.701   8.345 -0.8134 -1.7095  1.1645
   89CHL1   C22 9048   5.484   0.490   8.248 -0.3820  1.0447 -0.2695
   89CHL1  H22A 9049   5.490   0.410   8.171 -0.8347  0.6689  0.0821
   89CHL1  H22B 9050   5.579   0.488   8.305 -0.8356  1.9573  0.5274
   89CHL1   C23 9051   5.370   0.455   8.351  0.0897  0.3659  0.5330
   89CHL1  H23A 9052   5.410   0.371   8.411  0.7236  0.8438  0.7954
   89CHL1  H23B 9053   5.363   0.548   8.412 -0.6961  1.8853 -1.8170
   89CHL1   C24 9054   5.239   0.420   8.275  0.6726 -0.5078  0.0277
   89CHL1  H24A 9055   5.198   0.504   8.216  1.4653 -0.0516  0.1162
   89CHL1  H24B 9056   5.257   0.328   8.215  1.9567  0.2600 -0.7774
   89CHL1   C25 9057   5.123   0.377   8.367 -0.8697 -0.5925 -0.2259
   89CHL1   H25 9058   5.171   0.319   8.449 -1.8669 -2.2155 -0.7605
   89CHL1   C26 9059   5.043   0.500   8.418 -0.5957 -0.3965  0.0591
   89CHL1  H26A 9060   5.100   0.570   8.482  2.4597 -1.8343 -0.9741
   89CHL1  H26B 9061   5.009   0.566   8.335  0.8570 -0.3830 -0.5415
   89CHL1  H26C 9062   4.945   0.472   8.463 -0.2599 -2.7059 -0.5891
   89CHL1   C27 9063   5.027   0.274   8.302  0.4950  0.5009  0.0630
   89CHL1  H27A 9064   5.076   0.176   8.281  1.8284  1.1728  0.0056
   89CHL1  H27B 9065   4.940   0.249   8.366  0.7595  0.0080  0.2325
   89CHL1  H27C 9066   4.983   0.317   8.210  0.4413 -0.0770 -0.1842
   90CHL1    C3 9067   6.560   2.410   7.012  0.6627  0.1428  0.6766
   90CHL1    H3 9068   6.452   2.429   7.028  0.5045 -0.2197  0.0631
   90CHL1    O3 9069   6.585   2.411   6.872 -0.0855  0.0142  0.2700
   90CHL1   H3' 9070   6.677   2.386   6.866  0.5694  1.1338  4.0770
   90CHL1    C4 9071   6.642   2.509   7.096  0.1897 -0.0522 -0.3102
   90CHL1   H4A 9072   6.749   2.502   7.070  0.2393  1.8954 -0.6995
   90CHL1   H4B 9073   6.616   2.612   7.064  0.8008  0.7761  1.7752
   90CHL1    C5 9074   6.631   2.480   7.245 -0.3413 -0.1445  0.2911
   90CHL1    C6 9075   6.597   2.581   7.328  0.0120 -0.2895  0.8662
   90CHL1    H6 9076   6.580   2.683   7.289 -1.8210 -0.2949  1.5857
   90CHL1    C7 9077   6.569   2.567   7.472 -0.0556 -0.2642  0.0500
   90CHL1   H7A 9078   6.616   2.644   7.536  2.2498 -0.4556 -1.3669
   90CHL1   H7B 9079   6.460   2.576   7.492  0.1870  1.0867  0.7908
   90CHL1    C8 9080   6.624   2.430   7.522 -0.7601 -0.1728  0.1607
   90CHL1    H8 9081   6.734   2.446   7.521 -0.6327 -0.9593 -1.6909
   90CHL1   C14 9082   6.588   2.399   7.666  0.7599  0.4584  0.1272
   90CHL1   H14 9083   6.478   2.394   7.679  0.4158 -1.8828 -3.1312
   90CHL1   C15 9084   6.626   2.503   7.766  0.2876  0.3419  0.3096
   90CHL1  H15A 9085   6.725   2.546   7.739 -0.3732  1.4937 -0.3279
   90CHL1  H15B 9086   6.553   2.586   7.776  0.8002  1.0627 -1.5914
   90CHL1   C16 9087   6.643   2.422   7.891  0.1932 -0.4745  0.0693
   90CHL1  H16A 9088   6.750   2.435   7.915  0.5026 -0.6146 -1.2451
   90CHL1  H16B 9089   6.581   2.475   7.967 -1.4644 -1.0077 -0.8690
   90CHL1   C17 9090   6.602   2.273   7.868  0.2858  0.0405  0.4846
   90CHL1   H17 9091   6.494   2.257   7.886  0.0951 -0.1630 -0.8061
   90CHL1   C13 9092   6.630   2.259   7.712 -0.1265 -0.0979  0.1044
   90CHL1   C18 9093   6.784   2.252   7.695  0.0687 -0.4589  0.9299
   90CHL1  H18A 9094   6.814   2.150   7.729  0.6396 -0.1900  1.2392
   90CHL1  H18B 9095   6.822   2.274   7.593 -1.3580  1.0550  0.7053
   90CHL1  H18C 9096   6.827   2.332   7.758  1.1139 -2.0854  2.3257
   90CHL1   C12 9097   6.549   2.153   7.636 -0.9827 -0.9735  0.3119
   90CHL1  H12A 9098   6.584   2.048   7.653  0.6611 -0.4948 -0.0655
   90CHL1  H12B 9099   6.438   2.155   7.646 -0.9861 -1.1246  0.3140
   90CHL1   C11 9100   6.592   2.176   7.488 -0.0907  0.1257  0.4304
   90CHL1  H11A 9101   6.696   2.139   7.474 -0.5621 -1.3106  0.6452
   90CHL1  H11B 9102   6.527   2.109   7.428  1.8488 -1.7787  0.4014
   90CHL1    C9 9103   6.574   2.321   7.432  0.1865 -0.0780 -0.3141
   90CHL1    H9 9104   6.464   2.329   7.421  0.3251  0.6534 -1.1976
   90CHL1   C10 9105   6.633   2.333   7.291  0.1987  0.9013 -0.0909
   90CHL1   C19 9106   6.788   2.295   7.291 -0.3690  0.8001 -0.2895
   90CHL1  H19A 9107   6.807   2.192   7.328 -0.4273  1.7966  2.6209
   90CHL1  H19B 9108   6.838   2.311   7.193  0.8711  0.3814  0.2674
   90CHL1  H19C 9109   6.841   2.362   7.362  1.0270 -0.8435  0.2658
   90CHL1    C1 9110   6.553   2.244   7.195  0.0516 -0.5006 -0.2576
   90CHL1   H1A 9111   6.560   2.135   7.219  1.5050 -0.2502  0.4949
   90CHL1   H1B 9112   6.446   2.272   7.207  0.4212  0.3605  1.2733
   90CHL1    C2 9113   6.586   2.267   7.056 -0.3837 -0.7288 -0.2266
   90CHL1   H2A 9114   6.538   2.196   6.985  1.2023 -1.8557 -0.2134
   90CHL1   H2B 9115   6.694   2.241   7.055 -0.1478  0.0629  2.3343
   90CHL1   C20 9116   6.675   2.186   7.965  0.8330  0.0196 -0.6023
   90CHL1   H20 9117   6.784   2.203   7.949  0.6179  1.9623 -0.1465
   90CHL1   C21 9118   6.648   2.033   7.948  0.2576  0.0588 -0.4501
   90CHL1  H21A 9119   6.732   1.981   7.998  0.6353  1.4152  0.3694
   90CHL1  H21B 9120   6.642   2.009   7.840  2.4942 -0.5989 -0.4440
   90CHL1  H21C 9121   6.543   2.012   7.979 -1.2579  4.2034 -2.4392
   90CHL1   C22 9122   6.648   2.219   8.111  0.5026  0.2440  0.2573
   90CHL1  H22A 9123   6.652   2.330   8.125 -0.0555  0.2719  0.2265
   90CHL1  H22B 9124   6.547   2.176   8.128  0.4583 -0.9883 -2.9185
   90CHL1   C23 9125   6.751   2.156   8.214  0.0867 -0.1707  0.6330
   90CHL1  H23A 9126   6.726   2.050   8.235  1.8565 -0.5613  0.8932
   90CHL1  H23B 9127   6.848   2.151   8.159 -0.0917 -1.2000  0.3982
   90CHL1   C24 9128   6.756   2.228   8.353  0.1309  0.8797  0.6570
   90CHL1  H24A 9129   6.777   2.337   8.347  1.1853  0.5581 -2.1455
   90CHL1  H24B 9130   6.660   2.211   8.407 -0.1477  1.1369  0.2470
   90CHL1   C25 9131   6.867   2.166   8.440  0.0586 -0.1296 -0.4130
   90CHL1   H25 9132   6.849   2.057   8.445 -1.3294  0.1414  1.1897
   90CHL1   C26 9133   7.004   2.196   8.382 -0.1804 -0.4600  0.2507
   90CHL1  H26A 9134   7.008   2.305   8.362  0.6551 -0.4804  0.2611
   90CHL1  H26B 9135   7.081   2.172   8.459 -0.9438  0.5430  1.3471
   90CHL1  H26C 9136   7.038   2.137   8.295 -1.5141 -2.2652  0.9328
   90CHL1   C27 9137   6.855   2.215   8.587 -0.6567  0.7235 -0.3835
   90CHL1  H27A 9138   6.928   2.166   8.654  1.0070  1.5193 -1.5888
   90CHL1  H27B 9139   6.860   2.326   8.583 -4.2425  0.9751  0.4971
   90CHL1  H27C 9140   6.754   2.190   8.626 -0.3650  1.5051  0.9205
   91CHL1    C3 9141   0.204   3.301   7.272 -0.0453 -0.4940 -0.7692
   91CHL1    H3 9142   0.174   3.407   7.290  0.4836 -0.6227  0.8993
   91CHL1    O3 9143   0.274   3.294   7.148  0.1816  0.5091 -0.2502
   91CHL1   H3' 9144   0.211   3.310   7.077  1.0080  0.5765 -0.9816
   91CHL1    C4 9145   0.296   3.254   7.387  0.4773 -0.3982  0.2857
   91CHL1   H4A 9146   0.353   3.166   7.351 -1.7468 -0.3901 -3.5377
   91CHL1   H4B 9147   0.367   3.332   7.423 -1.6436  1.2350  1.0374
   91CHL1    C5 9148   0.225   3.199   7.509 -0.5075  0.3879  0.1069
   91CHL1    C6 9149   0.261   3.232   7.631 -0.0949 -0.4211 -0.7259
   91CHL1    H6 9150   0.354   3.290   7.642  0.0364 -0.7799  0.1282
   91CHL1    C7 9151   0.199   3.183   7.764 -0.2717 -0.2923 -0.5673
   91CHL1   H7A 9152   0.284   3.157   7.831  0.0291  0.5456 -0.6270
   91CHL1   H7B 9153   0.141   3.262   7.818 -0.3424  0.4255 -1.6901
   91CHL1    C8 9154   0.099   3.069   7.743  0.8798  0.6187  0.4846
   91CHL1    H8 9155   0.158   2.976   7.726  1.5458  1.4107 -1.6541
   91CHL1   C14 9156   0.012   3.040   7.864 -0.4530 -0.3720  0.4403
   91CHL1   H14 9157  -0.042   3.135   7.881 -0.4668 -0.3559  0.3029
   91CHL1   C15 9158   0.087   3.023   7.994 -0.1919 -0.4782  0.7689
   91CHL1  H15A 9159   0.169   2.948   7.982  1.0058  0.6465  1.7307
   91CHL1  H15B 9160   0.130   3.117   8.035  0.6534 -0.3993 -0.2787
   91CHL1   C16 9161  -0.019   2.953   8.085 -0.6951 -0.6556  0.3636
   91CHL1  H16A 9162   0.018   2.857   8.128 -2.3224 -0.7797  1.5267
   91CHL1  H16B 9163  -0.028   3.011   8.179  1.5813 -2.3273  1.6635
   91CHL1   C17 9164  -0.150   2.935   7.999  0.2846  0.4359 -0.5641
   91CHL1   H17 9165  -0.201   3.033   7.995  0.0601  0.2379 -4.2585
   91CHL1   C13 9166  -0.094   2.922   7.854  0.3016 -0.8056 -0.3470
   91CHL1   C18 9167  -0.025   2.783   7.825  0.5348 -0.0641  0.2240
   91CHL1  H18A 9168  -0.062   2.701   7.890 -0.4871  0.8929  0.8723
   91CHL1  H18B 9169  -0.057   2.762   7.720  1.4967  2.0521 -0.5182
   91CHL1  H18C 9170   0.084   2.797   7.832  0.4636  1.0781 -0.7798
   91CHL1   C12 9171  -0.190   2.963   7.748 -0.0252 -0.1938  0.1350
   91CHL1  H12A 9172  -0.264   2.884   7.721 -0.9992  0.6598  0.2537
   91CHL1  H12B 9173  -0.248   3.052   7.783 -1.9239 -0.6758 -1.6611
   91CHL1   C11 9174  -0.118   3.009   7.616  0.2518  0.0849 -0.7051
   91CHL1  H11A 9175  -0.085   2.918   7.562 -0.2667 -1.5036  1.5356
   91CHL1  H11B 9176  -0.194   3.062   7.555 -1.6021 -2.7356 -0.9119
   91CHL1    C9 9177   0.010   3.095   7.625 -0.3836 -0.8432  0.9466
   91CHL1    H9 9178  -0.034   3.196   7.641 -1.8611 -1.2500 -0.4140
   91CHL1   C10 9179   0.094   3.114   7.486 -0.2290 -0.0177 -0.0493
   91CHL1   C19 9180   0.131   2.974   7.424  0.4867  0.0536 -0.3856
   91CHL1  H19A 9181   0.158   2.906   7.508 -0.1425  0.2929  0.0160
   91CHL1  H19B 9182   0.034   2.941   7.381 -1.0460  0.4635  2.6251
   91CHL1  H19C 9183   0.218   2.985   7.358  1.5826 -1.6238  0.7157
   91CHL1    C1 9184  -0.001   3.185   7.392  0.0692 -0.1301  0.2623
   91CHL1   H1A 9185  -0.095   3.130   7.368  0.0497  0.1298 -0.2725
   91CHL1   H1B 9186  -0.016   3.290   7.424 -2.1693 -0.4841  0.4666
   91CHL1    C2 9187   0.078   3.217   7.256  0.6935 -0.0790  0.6318
   91CHL1   H2A 9188  -0.009   3.265   7.207  1.9161  2.0205  0.4673
   91CHL1   H2B 9189   0.096   3.124   7.197 -0.6570 -1.0693  1.7298
   91CHL1   C20 9190  -0.248   2.835   8.057  0.3471 -0.0292  0.6484
   91CHL1   H20 9191  -0.205   2.734   8.038  1.8320  0.2329  2.5195
   91CHL1   C21 9192  -0.391   2.853   8.004 -0.1291 -0.4695  0.4808
   91CHL1  H21A 9193  -0.450   2.759   8.004  1.4145 -1.4883 -0.7802
   91CHL1  H21B 9194  -0.388   2.884   7.897 -0.8612 -0.5227  0.4466
   91CHL1  H21C 9195  -0.443   2.927   8.066 -0.0069 -0.7218  0.8849
   91CHL1   C22 9196  -0.259   2.843   8.214  0.3402  0.7734  0.1580
   91CHL1  H22A 9197  -0.154   2.839   8.248  0.6828 -1.0820 -1.0453
   91CHL1  H22B 9198  -0.316   2.937   8.234  0.9603  1.2507 -0.2777
   91CHL1   C23 9199  -0.320   2.716   8.273  0.7820  0.1401  0.5195
   91CHL1  H23A 9200  -0.419   2.692   8.229  1.4084  2.0478 -2.0183
   91CHL1  H23B 9201  -0.257   2.628   8.246  1.7202  0.6666  0.9673
   91CHL1   C24 9202  -0.330   2.694   8.423 -0.1468  0.9078 -0.2065
   91CHL1  H24A 9203  -0.233   2.670   8.471 -1.4876 -1.8781  1.2464
   91CHL1  H24B 9204  -0.379   2.780   8.473 -1.4727 -0.6036  1.2024
   91CHL1   C25 9205  -0.440   2.579   8.463 -0.0337 -0.2597  0.4862
   91CHL1   H25 9206  -0.538   2.600   8.414  0.0643  0.6065  0.6493
   91CHL1   C26 9207  -0.392   2.445   8.408 -0.2387 -0.5532  0.2414
   91CHL1  H26A 9208  -0.302   2.424   8.470 -1.2442 -0.4250  1.7627
   91CHL1  H26B 9209  -0.463   2.364   8.436  1.2487 -1.8817  0.2194
   91CHL1  H26C 9210  -0.372   2.441   8.298  0.3673 -1.0170  0.3635
   91CHL1   C27 9211  -0.456   2.583   8.614 -0.1499 -0.4377 -0.1981
   91CHL1  H27A 9212  -0.495   2.683   8.643 -1.3962 -0.7821 -0.6515
   91CHL1  H27B 9213  -0.531   2.508   8.645  0.0896 -1.1439 -1.3037
   91CHL1  H27C 9214  -0.357   2.570   8.664  0.6205 -0.9096 -1.7862
   92CHL1    C3 9215   3.076   5.462   6.823 -0.0015 -0.4134 -0.3337
   92CHL1    H3 9216   3.152   5.540   6.847  0.4157 -1.1118  0.6088
   92CHL1    O3 9217   3.092   5.431   6.682  0.1527 -0.2880 -0.0444
   92CHL1   H3' 9218   3.016   5.375   6.668  1.3233 -1.8733 -0.2767
   92CHL1    C4 9219   3.103   5.345   6.916 -0.3819  0.3410 -0.3735
   92CHL1   H4A 9220   3.028   5.268   6.889 -0.9923  0.4289  1.0622
   92CHL1   H4B 9221   3.200   5.300   6.887 -0.9051 -0.0742 -1.4953
   92CHL1    C5 9222   3.089   5.382   7.061  0.5688  0.0338 -0.4471
   92CHL1    C6 9223   3.191   5.370   7.149  0.2053  0.1454 -0.4826
   92CHL1    H6 9224   3.287   5.324   7.122  0.3785  2.3788 -3.9682
   92CHL1    C7 9225   3.179   5.408   7.288  0.3750  0.0860  0.2098
   92CHL1   H7A 9226   3.212   5.322   7.350  0.2862 -0.1541 -0.0730
   92CHL1   H7B 9227   3.242   5.497   7.309  2.0403 -1.5651  2.4209
   92CHL1    C8 9228   3.037   5.433   7.336  0.2879  0.2847  0.1773
   92CHL1    H8 9229   2.985   5.335   7.344 -0.4241  0.1076 -4.8657
   92CHL1   C14 9230   3.044   5.497   7.475  0.0895 -0.3976 -0.2883
   92CHL1   H14 9231   3.100   5.591   7.457 -0.3611 -0.2265 -0.7941
   92CHL1   C15 9232   3.114   5.421   7.589  0.4788  0.4423  0.0840
   92CHL1  H15A 9233   3.087   5.314   7.574 -0.3199  0.9147 -2.1797
   92CHL1  H15B 9234   3.223   5.434   7.597  0.4415  1.4678 -0.8640
   92CHL1   C16 9235   3.054   5.488   7.715  0.4070 -0.3556  1.3907
   92CHL1  H16A 9236   3.011   5.411   7.782 -0.5435 -1.1462 -0.1032
   92CHL1  H16B 9237   3.137   5.538   7.770  0.3640 -1.6795  2.6767
   92CHL1   C17 9238   2.949   5.590   7.671 -0.0427 -0.1391 -0.4245
   92CHL1   H17 9239   3.011   5.682   7.669  0.3002 -0.3708 -0.4594
   92CHL1   C13 9240   2.908   5.545   7.528 -0.3717 -0.0808  0.6164
   92CHL1   C18 9241   2.811   5.426   7.548 -0.6167  0.0258  0.4373
   92CHL1  H18A 9242   2.802   5.374   7.450  2.8624 -0.1731  0.1560
   92CHL1  H18B 9243   2.860   5.357   7.621  0.4950  0.2708 -0.0748
   92CHL1  H18C 9244   2.710   5.462   7.579 -1.3734 -2.2154  0.6906
   92CHL1   C12 9245   2.854   5.647   7.423 -0.6126  0.2176  0.1128
   92CHL1  H12A 9246   2.758   5.689   7.458  0.1820  1.7560  0.5305
   92CHL1  H12B 9247   2.921   5.736   7.425 -1.3290  0.8028 -1.2572
   92CHL1   C11 9248   2.833   5.589   7.286 -0.5313  0.1399  0.2031
   92CHL1  H11A 9249   2.748   5.518   7.299 -1.6352  0.8095 -2.8582
   92CHL1  H11B 9250   2.799   5.666   7.214 -1.0004 -0.9813 -0.7857
   92CHL1    C9 9251   2.963   5.520   7.235 -0.4449  0.3548  0.5941
   92CHL1    H9 9252   3.031   5.605   7.215  3.8975 -3.1677 -0.4413
   92CHL1   C10 9253   2.959   5.458   7.094 -0.2426  0.4208  0.0418
   92CHL1   C19 9254   2.841   5.359   7.087 -0.0522 -0.3096  0.1919
   92CHL1  H19A 9255   2.827   5.328   6.981  0.1886 -0.5916  0.2431
   92CHL1  H19B 9256   2.854   5.270   7.152  1.5723  0.0921  0.4494
   92CHL1  H19C 9257   2.742   5.407   7.104  0.2236 -0.7303  3.2635
   92CHL1    C1 9258   2.933   5.570   6.987 -0.0170 -0.3438 -0.1260
   92CHL1   H1A 9259   2.832   5.610   7.013  0.5482 -0.9280  3.1797
   92CHL1   H1B 9260   3.003   5.657   6.991 -0.8177  0.3063  0.0326
   92CHL1    C2 9261   2.940   5.526   6.842  0.8150 -0.5160  0.2347
   92CHL1   H2A 9262   2.920   5.602   6.764  1.6696  1.3956  1.8274
   92CHL1   H2B 9263   2.862   5.448   6.830  0.7383 -0.3988 -0.0199
   92CHL1   C20 9264   2.836   5.607   7.775 -0.2818 -1.3634 -0.1664
   92CHL1   H20 9265   2.797   5.506   7.799  0.6784 -1.5058  0.8650
   92CHL1   C21 9266   2.727   5.700   7.716 -0.4222  0.4453 -0.5544
   92CHL1  H21A 9267   2.657   5.648   7.648  0.0621 -1.4625  0.3698
   92CHL1  H21B 9268   2.778   5.786   7.668 -1.7444 -0.0314 -2.8413
   92CHL1  H21C 9269   2.670   5.729   7.807  0.9216 -0.4416  0.5964
   92CHL1   C22 9270   2.882   5.672   7.912 -0.3770  0.6320  0.3921
   92CHL1  H22A 9271   2.943   5.762   7.886 -3.2847  2.0615 -1.7828
   92CHL1  H22B 9272   2.794   5.717   7.964 -0.8751 -0.6260  0.6433
   92CHL1   C23 9273   2.947   5.578   8.012  0.0153 -0.3066 -0.0259
   92CHL1  H23A 9274   2.873   5.498   8.035  1.0201 -1.5064 -0.9504
   92CHL1  H23B 9275   3.030   5.529   7.957 -0.1013 -0.5007 -0.0278
   92CHL1   C24 9276   2.982   5.650   8.144  0.5639  0.0804  0.6405
   92CHL1  H24A 9277   3.064   5.722   8.125  0.5325 -0.1339 -0.3756
   92CHL1  H24B 9278   2.895   5.712   8.176  1.9354  1.5270  1.6016
   92CHL1   C25 9279   3.014   5.555   8.255  0.5554  0.6305 -0.1397
   92CHL1   H25 9280   2.920   5.502   8.284  0.8127  0.1009 -0.2797
   92CHL1   C26 9281   3.111   5.450   8.208 -0.5060  0.1189  0.6277
   92CHL1  H26A 9282   3.068   5.381   8.132  0.8756 -0.8038  0.6554
   92CHL1  H26B 9283   3.185   5.504   8.144  0.6829 -1.1040  0.9310
   92CHL1  H26C 9284   3.155   5.392   8.292 -1.2035 -0.2841  0.7082
   92CHL1   C27 9285   3.065   5.634   8.374 -0.0785 -0.1771  0.2769
   92CHL1  H27A 9286   2.994   5.717   8.395  1.9251  1.0865  2.3609
   92CHL1  H27B 9287   3.082   5.560   8.455  0.8754  0.4377  0.6511
   92CHL1  H27C 9288   3.160   5.686   8.350 -1.1568  1.0475 -1.4371
   93CHL1    C3 9289   1.256   2.716   6.791  0.6539  0.2603 -0.3347
   93CHL1    H3 9290   1.223   2.821   6.777 -1.3335 -0.3660 -0.5255
   93CHL1    O3 9291   1.252   2.671   6.661 -0.0903  0.6600 -0.1666
   93CHL1   H3' 9292   1.339   2.693   6.625  0.1782 -1.2521 -0.7477
   93CHL1    C4 9293   1.404   2.702   6.841 -0.0439 -0.4951 -0.3005
   93CHL1   H4A 9294   1.433   2.595   6.847 -0.4525 -0.5824  0.2519
   93CHL1   H4B 9295   1.473   2.757   6.774 -2.7205  1.3489 -1.6585
   93CHL1    C5 9296   1.405   2.747   6.991 -0.7011 -0.6542  0.6427
   93CHL1    C6 9297   1.479   2.851   7.023  0.2652  0.2078 -0.1971
   93CHL1    H6 9298   1.534   2.916   6.952  0.1138 -0.6355 -1.1059
   93CHL1    C7 9299   1.514   2.877   7.169 -0.2189  0.0755 -0.0392
   93CHL1   H7A 9300   1.623   2.864   7.189  0.4120  2.7994 -1.4419
   93CHL1   H7B 9301   1.490   2.982   7.198 -0.5389  0.3419 -1.2408
   93CHL1    C8 9302   1.452   2.775   7.271  0.7457 -0.4309  0.0719
   93CHL1    H8 9303   1.517   2.686   7.282  0.0423 -1.0423 -0.7158
   93CHL1   C14 9304   1.444   2.847   7.410 -0.3418  0.1030  0.0686
   93CHL1   H14 9305   1.384   2.938   7.389  1.7106  1.5309  0.2533
   93CHL1   C15 9306   1.578   2.901   7.471  1.0295 -0.5062  0.0672
   93CHL1  H15A 9307   1.645   2.815   7.490 -0.1871 -1.9599 -2.0016
   93CHL1  H15B 9308   1.621   2.981   7.407 -0.9614  0.8543  0.3618
   93CHL1   C16 9309   1.524   2.947   7.610 -0.6924 -0.9683 -0.3173
   93CHL1  H16A 9310   1.582   2.898   7.691 -0.1275  0.2154  0.0202
   93CHL1  H16B 9311   1.521   3.058   7.622 -1.7783 -1.3148  3.1950
   93CHL1   C17 9312   1.375   2.891   7.625 -0.7008  0.5748 -0.2005
   93CHL1   H17 9313   1.309   2.975   7.595 -0.1510  2.1099  2.6868
   93CHL1   C13 9314   1.364   2.777   7.520 -0.1993 -0.2588  0.1668
   93CHL1   C18 9315   1.438   2.647   7.567  0.1852 -0.6547  0.5531
   93CHL1  H18A 9316   1.388   2.588   7.646 -1.0849  1.5806  1.4774
   93CHL1  H18B 9317   1.469   2.580   7.485  3.7512  1.2150  0.2532
   93CHL1  H18C 9318   1.534   2.672   7.618  1.1670 -3.3001  0.0553
   93CHL1   C12 9319   1.220   2.744   7.471 -0.6724  0.0525  0.4287
   93CHL1  H12A 9320   1.167   2.681   7.546 -0.9802 -1.6467 -1.1797
   93CHL1  H12B 9321   1.160   2.836   7.457  0.3360  0.6889  0.2503
   93CHL1   C11 9322   1.229   2.672   7.337 -0.4667 -0.2457 -0.5338
   93CHL1  H11A 9323   1.263   2.570   7.363 -1.3680  0.0254  1.8785
   93CHL1  H11B 9324   1.125   2.669   7.298 -0.7963 -0.2424  0.3342
   93CHL1    C9 9325   1.311   2.737   7.225 -0.1112 -0.8338 -1.0150
   93CHL1    H9 9326   1.255   2.832   7.211 -0.2384 -0.7248  0.1660
   93CHL1   C10 9327   1.325   2.660   7.092 -0.3485 -0.4857 -0.3204
   93CHL1   C19 9328   1.377   2.522   7.104 -0.1224 -0.3331 -0.6234
   93CHL1  H19A 9329   1.396   2.466   7.010 -0.1706  0.5495 -1.1655
   93CHL1  H19B 9330   1.471   2.511   7.161 -1.0998 -1.0779  0.8884
   93CHL1  H19C 9331   1.309   2.456   7.163  1.7204 -1.6057  0.1092
   93CHL1    C1 9332   1.181   2.664   7.029 -0.4743  0.3687 -0.3766
   93CHL1   H1A 9333   1.129   2.585   7.088  0.3431  1.1531  1.4131
   93CHL1   H1B 9334   1.133   2.763   7.045 -3.2575 -1.1491  1.0330
   93CHL1    C2 9335   1.169   2.626   6.877  0.1783  0.0077  0.1175
   93CHL1   H2A 9336   1.060   2.633   6.857  0.3401  0.7376 -0.5490
   93CHL1   H2B 9337   1.207   2.523   6.860  1.3116  0.4797 -0.2884
   93CHL1   C20 9338   1.339   2.864   7.775  1.0256  0.1410  0.2963
   93CHL1   H20 9339   1.406   2.778   7.799  2.0106  0.8924  0.2888
   93CHL1   C21 9340   1.195   2.822   7.802  0.4450  0.9010 -0.4234
   93CHL1  H21A 9341   1.180   2.716   7.774  1.3286  0.7575 -0.3522
   93CHL1  H21B 9342   1.118   2.889   7.758 -1.6324 -1.0227  0.1642
   93CHL1  H21C 9343   1.182   2.830   7.912 -1.1457  0.6976 -0.5804
   93CHL1   C22 9344   1.386   2.986   7.861 -0.0079  0.2806 -0.1612
   93CHL1  H22A 9345   1.497   2.991   7.857 -0.0190 -0.8942 -2.2599
   93CHL1  H22B 9346   1.342   3.078   7.818 -1.4442  0.6288  1.9674
   93CHL1   C23 9347   1.345   2.986   8.007 -0.3222  0.1891  0.7633
   93CHL1  H23A 9348   1.237   2.985   8.031 -0.5692 -0.0654 -0.3689
   93CHL1  H23B 9349   1.385   2.904   8.071  0.5323 -1.6736 -2.0929
   93CHL1   C24 9350   1.394   3.113   8.070 -0.6782  0.0434  0.4353
   93CHL1  H24A 9351   1.504   3.124   8.057 -0.3433 -0.6480  2.5686
   93CHL1  H24B 9352   1.361   3.203   8.013 -3.0457 -1.0774  0.0082
   93CHL1   C25 9353   1.354   3.123   8.217  0.5100  0.4096  0.2934
   93CHL1   H25 9354   1.261   3.064   8.232  0.9071 -0.1287  0.6507
   93CHL1   C26 9355   1.463   3.069   8.315  0.9037 -0.2833  0.0439
   93CHL1  H26A 9356   1.550   3.137   8.301  0.9753 -0.1077  1.3272
   93CHL1  H26B 9357   1.422   3.076   8.418  2.7178  1.6064  0.6674
   93CHL1  H26C 9358   1.504   2.969   8.290 -0.2827 -0.6901 -0.3295
   93CHL1   C27 9359   1.331   3.266   8.258  0.2712  0.5304  0.0647
   93CHL1  H27A 9360   1.266   3.318   8.184  0.4138 -0.6338 -0.9122
   93CHL1  H27B 9361   1.281   3.277   8.356 -0.4989  1.2285 -0.4000
   93CHL1  H27C 9362   1.424   3.325   8.261  0.1365  0.6463  2.4644
   94CHL1    C3 9363   3.900   6.180   6.869 -0.5709 -0.9111  0.5590
   94CHL1    H3 9364   3.826   6.261   6.886  2.1604  2.0538 -1.0611
   94CHL1    O3 9365   3.933   6.175   6.732  0.1976  0.2319 -0.1539
   94CHL1   H3' 9366   3.992   6.101   6.715 -0.0270  0.1488 -0.5888
   94CHL1    C4 9367   4.033   6.196   6.945 -0.0466 -0.3484 -0.9329
   94CHL1   H4A 9368   4.103   6.120   6.905  0.8397  0.7220 -1.4347
   94CHL1   H4B 9369   4.072   6.297   6.919  0.5153 -0.6815 -1.3937
   94CHL1    C5 9370   4.015   6.181   7.098 -0.3572  0.0721 -0.1259
   94CHL1    C6 9371   4.057   6.279   7.184 -0.9594 -0.1988 -0.2501
   94CHL1    H6 9372   4.108   6.368   7.143 -0.9263  0.3571  0.9735
   94CHL1    C7 9373   4.035   6.281   7.334  0.3141  0.2774  0.3179
   94CHL1   H7A 9374   4.124   6.319   7.389 -0.0978 -1.2807  2.1317
   94CHL1   H7B 9375   3.947   6.341   7.365  0.9538 -0.0799  2.9768
   94CHL1    C8 9376   4.008   6.140   7.393  0.3257 -0.1911 -0.8297
   94CHL1    H8 9377   4.101   6.081   7.377 -1.3944 -3.4364  0.8354
   94CHL1   C14 9378   3.948   6.148   7.528  0.3946  0.9820 -0.1735
   94CHL1   H14 9379   3.850   6.198   7.515  0.3969  1.2390  0.7339
   94CHL1   C15 9380   4.035   6.231   7.613  0.3578 -0.2243 -0.3564
   94CHL1  H15A 9381   4.140   6.205   7.586  0.0240 -2.3501  0.3280
   94CHL1  H15B 9382   4.040   6.339   7.588 -0.2510  0.0417  0.6751
   94CHL1   C16 9383   3.989   6.195   7.754  0.4845  0.0641  0.0629
   94CHL1  H16A 9384   4.079   6.170   7.814 -0.2197 -0.6801  0.8166
   94CHL1  H16B 9385   3.925   6.270   7.806  0.5790  1.3359 -1.6067
   94CHL1   C17 9386   3.898   6.071   7.745 -0.1658 -0.2441  0.4184
   94CHL1   H17 9387   3.789   6.094   7.738 -0.2089 -0.3036  0.8504
   94CHL1   C13 9388   3.921   6.016   7.598 -0.8334 -0.0008  0.1384
   94CHL1   C18 9389   4.054   5.930   7.606 -0.8604 -0.3097 -0.6798
   94CHL1  H18A 9390   4.029   5.832   7.652  1.2888  0.5029  2.3434
   94CHL1  H18B 9391   4.098   5.911   7.506 -2.5253 -0.7630 -1.3373
   94CHL1  H18C 9392   4.129   5.988   7.665 -1.5692 -0.6895  0.6191
   94CHL1   C12 9393   3.816   5.946   7.510  0.0391 -0.1260 -0.6318
   94CHL1  H12A 9394   3.795   5.842   7.543  1.3933 -0.1161  0.3111
   94CHL1  H12B 9395   3.721   6.004   7.514  0.3799  0.3239  1.4166
   94CHL1   C11 9396   3.844   5.937   7.362 -0.3600 -0.0065  0.6119
   94CHL1  H11A 9397   3.909   5.850   7.336  1.0911  1.3558 -0.4121
   94CHL1  H11B 9398   3.744   5.927   7.315  0.1840  2.3705 -1.1441
   94CHL1    C9 9399   3.907   6.066   7.302 -0.5185 -0.4151 -0.5318
   94CHL1    H9 9400   3.825   6.140   7.293 -0.5240 -0.1177  1.6861
   94CHL1   C10 9401   3.948   6.053   7.150  0.4703 -0.4493 -0.2709
   94CHL1   C19 9402   4.039   5.929   7.142 -0.1911 -0.0753  0.5124
   94CHL1  H19A 9403   3.976   5.837   7.139 -1.5851  0.8889 -0.5055
   94CHL1  H19B 9404   4.101   5.925   7.050 -0.2128 -0.9475  0.5326
   94CHL1  H19C 9405   4.117   5.919   7.220  0.5527  0.0213 -0.2180
   94CHL1    C1 9406   3.818   6.039   7.064  0.0542  0.1733 -0.2766
   94CHL1   H1A 9407   3.766   5.946   7.095  0.2937  0.4691  1.0521
   94CHL1   H1B 9408   3.750   6.126   7.078 -0.1572  0.1623 -1.2141
   94CHL1    C2 9409   3.843   6.044   6.915  0.5016 -0.5568  0.0817
   94CHL1   H2A 9410   3.746   6.051   6.861  0.5850 -1.0617 -0.1414
   94CHL1   H2B 9411   3.898   5.954   6.879  1.0834 -1.1734  2.4717
   94CHL1   C20 9412   3.918   5.969   7.859 -0.0679  0.3278 -0.3009
   94CHL1   H20 9413   4.017   5.919   7.854  0.0371  0.4445  0.5941
   94CHL1   C21 9414   3.821   5.850   7.847  0.2630 -0.4592  0.4400
   94CHL1  H21A 9415   3.830   5.782   7.934  1.2191 -1.5960 -0.5349
   94CHL1  H21B 9416   3.834   5.794   7.752  2.6977  0.6548  0.0900
   94CHL1  H21C 9417   3.715   5.885   7.851  0.2184 -0.4500 -0.6967
   94CHL1   C22 9418   3.922   6.033   7.997 -0.3662  0.3621 -0.4945
   94CHL1  H22A 9419   3.934   5.960   8.080 -2.4582  0.2657 -0.2363
   94CHL1  H22B 9420   4.012   6.098   8.000  1.7671 -2.3749 -2.6141
   94CHL1   C23 9421   3.789   6.109   8.033 -0.8269 -0.2868  0.0495
   94CHL1  H23A 9422   3.770   6.185   7.954 -0.2358 -1.2648 -1.0502
   94CHL1  H23B 9423   3.710   6.032   8.026 -2.0707  0.8855  1.1161
   94CHL1   C24 9424   3.792   6.178   8.166  0.1792  0.6499 -1.2114
   94CHL1  H24A 9425   3.845   6.111   8.236 -1.5604  0.8025  0.3054
   94CHL1  H24B 9426   3.857   6.269   8.167 -0.9647  1.4793 -0.4996
   94CHL1   C25 9427   3.650   6.205   8.217  0.4358 -0.3435  0.4271
   94CHL1   H25 9428   3.607   6.103   8.230 -0.1397  0.0877  2.0655
   94CHL1   C26 9429   3.661   6.274   8.352 -0.6703 -0.3115  0.3629
   94CHL1  H26A 9430   3.696   6.202   8.429 -3.6955 -1.5552  0.6277
   94CHL1  H26B 9431   3.732   6.360   8.344  0.9071 -1.6932 -0.9422
   94CHL1  H26C 9432   3.567   6.319   8.389  0.5530  0.6830  2.4080
   94CHL1   C27 9433   3.559   6.280   8.114  0.3948  0.4112 -0.1686
   94CHL1  H27A 9434   3.551   6.224   8.018  0.6427  0.2056 -0.0664
   94CHL1  H27B 9435   3.466   6.289   8.175 -0.7800 -0.0620 -1.8569
   94CHL1  H27C 9436   3.599   6.382   8.093  0.0773  0.9733  1.8951
   95CHL1    C3 9437   4.025   4.896   6.841  0.4568  0.3579 -0.8223
   95CHL1    H3 9438   3.914   4.902   6.844  0.6320  3.7778 -0.2329
   95CHL1    O3 9439   4.056   4.902   6.706  0.1601  0.0635 -0.2009
   95CHL1   H3' 9440   4.045   4.995   6.683 -2.2275 -0.7151 -2.5023
   95CHL1    C4 9441   4.086   5.014   6.910 -0.8764 -0.2311 -1.0482
   95CHL1   H4A 9442   4.197   5.021   6.903 -0.7483  0.4302  1.2625
   95CHL1   H4B 9443   4.042   5.104   6.862  0.6055  1.6723  1.0584
   95CHL1    C5 9444   4.044   5.020   7.056 -0.5313 -0.7039  0.1268
   95CHL1    C6 9445   3.972   5.127   7.102  0.2216 -0.1553  0.0919
   95CHL1    H6 9446   3.951   5.216   7.041 -0.9754 -1.6380 -1.7104
   95CHL1    C7 9447   3.939   5.143   7.247 -0.5530  1.0499  0.2589
   95CHL1   H7A 9448   3.966   5.246   7.277  1.7594  1.2938 -2.4193
   95CHL1   H7B 9449   3.831   5.130   7.269  0.2954 -1.2471  3.4048
   95CHL1    C8 9450   4.014   5.036   7.340  0.5944 -0.2417 -0.1181
   95CHL1    H8 9451   4.118   5.070   7.359  1.6874 -2.6268 -1.6077
   95CHL1   C14 9452   3.941   5.031   7.474 -0.0642  0.6094  0.5601
   95CHL1   H14 9453   3.833   5.019   7.453 -0.1764 -1.1392  2.0441
   95CHL1   C15 9454   3.939   5.155   7.561 -0.0518  0.1017  0.3795
   95CHL1  H15A 9455   4.042   5.188   7.585  0.2620 -0.5402 -0.1010
   95CHL1  H15B 9456   3.897   5.245   7.511  2.1194 -0.1922 -2.0755
   95CHL1   C16 9457   3.878   5.109   7.699  0.0463 -0.2052  0.8491
   95CHL1  H16A 9458   3.931   5.166   7.778  1.4488  1.2127 -1.0631
   95CHL1  H16B 9459   3.770   5.138   7.706 -0.2115 -1.2974  1.5459
   95CHL1   C17 9460   3.893   4.958   7.698 -0.5333 -0.6584  0.4888
   95CHL1   H17 9461   3.791   4.915   7.683 -1.1424  0.5429  1.1011
   95CHL1   C13 9462   3.984   4.918   7.572 -0.2399  0.1140 -0.6443
   95CHL1   C18 9463   4.137   4.931   7.607  0.1919  0.1959 -0.1346
   95CHL1  H18A 9464   4.202   4.917   7.518 -1.0225  1.1899 -1.2058
   95CHL1  H18B 9465   4.173   5.023   7.659  1.4454  0.3272 -1.2042
   95CHL1  H18C 9466   4.170   4.841   7.663  0.4336  0.6803  0.5093
   95CHL1   C12 9467   3.968   4.779   7.497  0.2231 -0.8020  0.5478
   95CHL1  H12A 9468   4.008   4.699   7.564  1.2667  0.2728  1.2345
   95CHL1  H12B 9469   3.859   4.758   7.489  0.1816 -1.0363  1.6167
   95CHL1   C11 9470   4.032   4.777   7.359 -0.2318 -0.5483 -0.5884
   95CHL1  H11A 9471   4.143   4.766   7.370  0.0215  3.0191  1.2702
   95CHL1  H11B 9472   4.005   4.683   7.307 -2.2446  0.7892 -2.0183
   95CHL1    C9 9473   4.008   4.900   7.269  0.6166  0.2578 -0.6117
   95CHL1    H9 9474   3.900   4.883   7.249  0.6966 -1.9998  0.6580
   95CHL1   C10 9475   4.075   4.894   7.131  0.2199 -0.0765  0.2465
   95CHL1   C19 9476   4.225   4.895   7.161  0.0364 -1.1783  0.5572
   95CHL1  H19A 9477   4.255   4.988   7.214 -0.7679 -0.4937 -0.1644
   95CHL1  H19B 9478   4.253   4.806   7.222  2.8147 -0.2809  0.6359
   95CHL1  H19C 9479   4.284   4.902   7.067  0.9020  0.7938  1.2180
   95CHL1    C1 9480   4.029   4.770   7.053 -0.5102  0.2796 -0.4159
   95CHL1   H1A 9481   4.087   4.688   7.101  0.5006  0.5522 -1.1449
   95CHL1   H1B 9482   3.924   4.755   7.086 -0.3321 -3.2660 -1.1814
   95CHL1    C2 9483   4.062   4.767   6.907  0.5119  0.7571  0.6104
   95CHL1   H2A 9484   3.997   4.688   6.864 -0.2303  0.0560  2.9170
   95CHL1   H2B 9485   4.167   4.736   6.889 -0.0734  0.1539 -1.9138
   95CHL1   C20 9486   3.935   4.904   7.837  0.3540  0.9302 -0.2539
   95CHL1   H20 9487   4.042   4.931   7.850  0.7572 -0.6347 -0.1480
   95CHL1   C21 9488   3.935   4.753   7.842 -0.3101 -0.0785  0.4414
   95CHL1  H21A 9489   4.006   4.717   7.764  1.0455  2.0885  0.6379
   95CHL1  H21B 9490   3.835   4.706   7.830 -0.1953 -0.8557  2.3174
   95CHL1  H21C 9491   3.981   4.709   7.933 -0.6708 -1.9643 -0.2767
   95CHL1   C22 9492   3.855   4.962   7.958 -0.4971  0.2571 -0.4978
   95CHL1  H22A 9493   3.858   5.073   7.961 -1.3508  0.2606  0.4833
   95CHL1  H22B 9494   3.746   4.943   7.946 -0.3737 -0.4541 -0.5306
   95CHL1   C23 9495   3.917   4.905   8.093  0.5007 -0.0038  0.0328
   95CHL1  H23A 9496   3.910   4.795   8.081 -0.8231  0.0642  0.0817
   95CHL1  H23B 9497   4.024   4.935   8.098  0.8472 -0.8352 -1.9828
   95CHL1   C24 9498   3.843   4.955   8.221  0.0517  0.6509  0.7745
   95CHL1  H24A 9499   3.736   4.953   8.193  0.4284 -1.3463 -0.6151
   95CHL1  H24B 9500   3.858   4.879   8.300  1.8288 -1.5616 -1.6332
   95CHL1   C25 9501   3.874   5.097   8.272 -0.8494 -0.4545  1.1116
   95CHL1   H25 9502   3.849   5.167   8.190 -0.5627 -0.7645  0.7557
   95CHL1   C26 9503   3.795   5.147   8.392 -0.0336  0.4098  0.5309
   95CHL1  H26A 9504   3.687   5.152   8.367 -0.0904  0.0182  0.6975
   95CHL1  H26B 9505   3.811   5.082   8.480 -0.7923 -0.8826 -0.2720
   95CHL1  H26C 9506   3.832   5.251   8.409 -0.2935  0.7221 -0.7627
   95CHL1   C27 9507   4.022   5.108   8.312  0.8590 -0.1222  0.0862
   95CHL1  H27A 9508   4.044   5.028   8.386 -0.5199 -0.7966 -0.2302
   95CHL1  H27B 9509   4.094   5.089   8.230 -1.7905 -4.1107 -1.4245
   95CHL1  H27C 9510   4.038   5.209   8.358  1.8983 -0.2839  0.1054
   96CHL1    C3 9511   3.626   5.046   6.848 -1.0843 -0.0142  0.1417
   96CHL1    H3 9512   3.735   5.037   6.867 -0.8866  1.0299 -0.4654
   96CHL1    O3 9513   3.617   5.062   6.710 -0.0336  0.5854  0.0797
   96CHL1   H3' 9514   3.524   5.064   6.688 -0.1138  0.3717  0.3922
   96CHL1    C4 9515   3.557   4.909   6.876  0.2553  0.4001  0.1474
   96CHL1   H4A 9516   3.457   4.920   6.827 -0.0949  0.2724  0.8255
   96CHL1   H4B 9517   3.600   4.826   6.816 -0.7320 -0.1620  0.2024
   96CHL1    C5 9518   3.555   4.879   7.024  0.0672 -0.1751 -0.3231
   96CHL1    C6 9519   3.620   4.769   7.070 -0.1159 -0.4258 -0.1139
   96CHL1    H6 9520   3.654   4.696   6.995  0.0477 -0.5483  0.0760
   96CHL1    C7 9521   3.619   4.731   7.219  0.2375 -0.1015 -0.1439
   96CHL1   H7A 9522   3.601   4.622   7.232 -1.3723 -0.0886 -2.1199
   96CHL1   H7B 9523   3.712   4.766   7.268 -2.4581  2.4621  3.3677
   96CHL1    C8 9524   3.516   4.819   7.298  0.0214 -0.1015 -0.1089
   96CHL1    H8 9525   3.415   4.777   7.278 -0.0796 -0.0888  0.3667
   96CHL1   C14 9526   3.533   4.798   7.454  0.0793 -0.4580  0.5990
   96CHL1   H14 9527   3.635   4.842   7.466 -0.0282  0.1040 -0.4259
   96CHL1   C15 9528   3.529   4.651   7.505 -0.3086 -0.5076  0.5231
   96CHL1  H15A 9529   3.438   4.600   7.467 -0.0917  0.8957 -1.9654
   96CHL1  H15B 9530   3.628   4.602   7.497  0.3927  0.9181  0.3783
   96CHL1   C16 9531   3.509   4.677   7.654  0.2297 -0.3540 -0.7005
   96CHL1  H16A 9532   3.409   4.635   7.678 -0.8488  2.1647 -0.5876
   96CHL1  H16B 9533   3.589   4.640   7.722  0.6209  1.8683  0.1067
   96CHL1   C17 9534   3.482   4.827   7.687  0.6092 -0.8819  0.2465
   96CHL1   H17 9535   3.577   4.877   7.714  1.4835 -1.4956 -1.6032
   96CHL1   C13 9536   3.439   4.877   7.545  0.0097 -0.2154 -0.6615
   96CHL1   C18 9537   3.287   4.845   7.528  0.4502 -0.4559 -0.4022
   96CHL1  H18A 9538   3.264   4.738   7.546  1.0648 -0.6254 -0.6084
   96CHL1  H18B 9539   3.224   4.902   7.598  2.1166  1.1422 -0.1655
   96CHL1  H18C 9540   3.250   4.860   7.424 -0.4045 -0.0520 -0.0453
   96CHL1   C12 9541   3.463   5.028   7.514 -0.2542 -0.2800 -0.6993
   96CHL1  H12A 9542   3.386   5.090   7.566  1.0138  1.9095 -1.3740
   96CHL1  H12B 9543   3.565   5.064   7.538 -0.5226  0.2169 -0.2869
   96CHL1   C11 9544   3.440   5.057   7.361 -0.1636 -0.1045  0.0617
   96CHL1  H11A 9545   3.334   5.032   7.337  0.0713  1.1761 -2.4454
   96CHL1  H11B 9546   3.451   5.163   7.332  1.3564 -0.5368 -0.9807
   96CHL1    C9 9547   3.522   4.969   7.262  0.1336 -0.3470  0.4946
   96CHL1    H9 9548   3.627   5.003   7.277 -1.1916  3.5364  1.5350
   96CHL1   C10 9549   3.491   4.989   7.110 -0.2574 -0.6386  0.2876
   96CHL1   C19 9550   3.334   4.992   7.083  0.6684  0.5705  0.0753
   96CHL1  H19A 9551   3.293   5.070   7.150  3.2562  2.4847 -0.4852
   96CHL1  H19B 9552   3.322   5.021   6.976 -0.2754 -1.1494 -0.3030
   96CHL1  H19C 9553   3.298   4.890   7.108  1.8221  0.0949 -0.1464
   96CHL1    C1 9554   3.556   5.127   7.074  0.2540  0.1732 -0.8932
   96CHL1   H1A 9555   3.506   5.212   7.125 -1.1465 -1.1210 -0.0765
   96CHL1   H1B 9556   3.663   5.135   7.102 -0.0817 -0.5293  0.6095
   96CHL1    C2 9557   3.557   5.157   6.918  0.1238 -0.2216  0.1996
   96CHL1   H2A 9558   3.603   5.257   6.900  0.3329 -0.4523 -0.5854
   96CHL1   H2B 9559   3.451   5.177   6.892  0.9686  4.1366 -0.2483
   96CHL1   C20 9560   3.399   4.849   7.812  0.1378 -0.0118  0.0133
   96CHL1   H20 9561   3.296   4.814   7.794  0.2749  0.2254 -1.2572
   96CHL1   C21 9562   3.395   5.003   7.833  0.2000 -0.0473  0.3316
   96CHL1  H21A 9563   3.351   5.041   7.928 -0.5321  0.1421 -0.0789
   96CHL1  H21B 9564   3.326   5.051   7.761  0.0951 -0.7852 -0.0547
   96CHL1  H21C 9565   3.496   5.050   7.830 -0.6746  1.8500  0.1024
   96CHL1   C22 9566   3.456   4.776   7.928  0.3592  0.4270 -0.5848
   96CHL1  H22A 9567   3.432   4.669   7.910 -1.1914  0.9646 -1.8174
   96CHL1  H22B 9568   3.567   4.785   7.933  0.3962 -0.8818  2.3835
   96CHL1   C23 9569   3.409   4.812   8.075  0.5398  1.0636 -0.0479
   96CHL1  H23A 9570   3.436   4.919   8.088  1.3091  0.9729 -0.8434
   96CHL1  H23B 9571   3.302   4.788   8.089  1.6308 -3.7564  0.9578
   96CHL1   C24 9572   3.484   4.721   8.175  0.0965 -0.0193  0.0896
   96CHL1  H24A 9573   3.452   4.615   8.161 -0.4292  0.4405 -2.3985
   96CHL1  H24B 9574   3.594   4.724   8.159  0.4533 -0.0137  2.3562
   96CHL1   C25 9575   3.453   4.764   8.320  0.2424  0.1072  0.1354
   96CHL1   H25 9576   3.484   4.871   8.319  2.6537 -0.5581  0.7470
   96CHL1   C26 9577   3.302   4.769   8.355  0.1514 -0.2168  0.1065
   96CHL1  H26A 9578   3.236   4.792   8.269 -0.6293  1.1134  1.0355
   96CHL1  H26B 9579   3.270   4.667   8.385  1.7388 -1.8907 -3.5882
   96CHL1  H26C 9580   3.265   4.826   8.443  0.2219 -0.2043  0.1275
   96CHL1   C27 9581   3.539   4.680   8.422 -0.1734  0.0209 -0.3793
   96CHL1  H27A 9582   3.519   4.718   8.524 -0.2274 -2.3075  0.5187
   96CHL1  H27B 9583   3.515   4.571   8.423 -0.7197  0.1381 -0.5229
   96CHL1  H27C 9584   3.646   4.694   8.398 -0.4890  0.4598 -1.5624
   97OSM      N 9585   1.492   6.015  11.022  0.9841  0.2041  0.0533
   97OSM    C15 9586   1.625   5.972  11.072  0.3002  0.4190 -0.4085
   97OSM   H15A 9587   1.683   6.056  11.108 -0.4354  1.0634 -0.7132
   97OSM   H15B 9588   1.684   5.919  11.000 -0.3649  0.0419 -0.6766
   97OSM   H15C 9589   1.618   5.910  11.160 -2.1450  0.9808 -0.1564
   97OSM    C14 9590   1.390   6.051  11.122 -0.4238 -0.6516 -0.7003
   97OSM   H14A 9591   1.352   5.953  11.148 -2.2158 -0.0223 -0.9410
   97OSM   H14B 9592   1.306   6.101  11.077  0.6883  0.6249 -1.3967
   97OSM   H14C 9593   1.418   6.102  11.213  1.0481  0.1769 -1.5892
   97OSM    C13 9594   1.530   6.131  10.950  0.6622  0.0974  1.2134
   97OSM   H13A 9595   1.446   6.174  10.899  1.6542  0.0750 -0.4702
   97OSM   H13B 9596   1.613   6.114  10.882 -1.0313 -2.1370 -0.3658
   97OSM   H13C 9597   1.565   6.210  11.014  3.0430  0.4589 -0.4531
   97OSM    C12 9598   1.437   5.911  10.929  0.1602  0.0506 -0.7278
   97OSM   H12A 9599   1.444   5.821  10.989  0.7947  0.6782  0.1541
   97OSM   H12B 9600   1.505   5.904  10.845 -0.7879  0.3100 -1.5285
   97OSM    C11 9601   1.297   5.931  10.877  0.2110 -0.5371 -0.3888
   97OSM   H11A 9602   1.285   5.858  10.794 -0.8793  1.1171 -1.7382
   97OSM   H11B 9603   1.298   6.033  10.833  2.8440 -0.4816 -0.2463
   97OSM      P 9604   1.143   5.812  11.067 -0.0395  0.2384  0.1836
   97OSM    O13 9605   1.254   5.764  11.151  0.3392  0.3852 -0.2544
   97OSM    O14 9606   1.023   5.869  11.141 -0.7718  0.5479 -0.3558
   97OSM    O11 9607   1.098   5.711  10.954  0.7363 -0.0851 -0.6263
   97OSM    O12 9608   1.193   5.923  10.969  0.0431 -0.0306 -0.7212
   97OSM    C1S 9609   0.983   5.741  10.871 -0.2635 -0.0378 -0.0100
   97OSM    H1S 9610   0.969   5.851  10.865  2.1842  0.3232  0.3236
   97OSM    H1T 9611   0.887   5.696  10.904 -0.3859  0.2628  0.0475
   97OSM     NF 9612   0.880   5.707  10.650 -0.2827  0.8340  0.3720
   97OSM    HNF 9613   0.823   5.626  10.638  0.1318  0.8035 -1.6435
   97OSM    C2S 9614   1.004   5.679  10.728  0.0229 -0.2269  0.2259
   97OSM    H2S 9615   1.092   5.732  10.687  0.8422  0.1365  2.3893
   97OSM    C3S 9616   1.054   5.533  10.735  0.1267 -0.2314  0.2204
   97OSM    H3S 9617   0.985   5.461  10.784  1.7226 -1.9078  0.0392
   97OSM     O3 9618   1.170   5.516  10.814 -0.0576 -0.0280 -0.1956
   97OSM    HO3 9619   1.165   5.587  10.878 -1.1572 -1.2838  1.1056
   97OSM    C4S 9620   1.060   5.481  10.595  0.3355 -0.7998 -0.0538
   97OSM    H4S 9621   0.964   5.438  10.562 -1.1760  1.3658  1.4173
   97OSM    C5S 9622   1.172   5.489  10.516  0.4995 -0.1497 -0.3932
   97OSM    H5S 9623   1.263   5.539  10.553  1.7786 -2.0519 -0.9215
   97OSM    C6S 9624   1.183   5.453  10.371  0.9038  0.6012  0.2450
   97OSM    H6S 9625   1.121   5.361  10.360  1.4433  0.4928 -2.0264
   97OSM    H6T 9626   1.286   5.421  10.345  0.5215 -0.5553  0.1411
   97OSM    C7S 9627   1.162   5.567  10.261 -0.1894 -0.2684 -0.5257
   97OSM    H7S 9628   1.262   5.614  10.255  0.9835 -2.4800  0.8722
   97OSM    H7T 9629   1.088   5.647  10.284  0.0631  0.7865 -3.2697
   97OSM    C8S 9630   1.132   5.524  10.117  0.6351 -0.5548  0.2081
   97OSM    H8S 9631   1.136   5.616  10.055  0.7547 -0.8157 -0.1733
   97OSM    H8T 9632   1.024   5.499  10.107  0.1978  1.3111  0.0801
   97OSM    C9S 9633   1.211   5.408  10.070  0.4748  0.4888  0.4360
   97OSM    H9S 9634   1.177   5.324  10.135  0.6110 -0.4710 -0.7033
   97OSM    H9T 9635   1.320   5.426  10.083  0.5258 -0.9390  2.1755
   97OSM   C10S 9636   1.184   5.381   9.921 -0.8878 -0.4998 -0.1014
   97OSM   H10S 9637   1.078   5.407   9.901 -0.5408 -0.0416 -1.3491
   97OSM   H10T 9638   1.194   5.270   9.914  2.8680 -0.2215 -0.1294
   97OSM   C11S 9639   1.284   5.456   9.832  0.9297  0.1210  0.3065
   97OSM   H11S 9640   1.391   5.432   9.855  0.7588 -1.3206 -0.3196
   97OSM   H11T 9641   1.275   5.562   9.864  3.3896  0.3766  0.2333
   97OSM   C12S 9642   1.278   5.440   9.681  0.0367 -0.2951  1.2839
   97OSM   H12S 9643   1.356   5.508   9.640  0.4955 -2.5213 -1.6262
   97OSM   H12T 9644   1.181   5.467   9.635  0.3478  0.6112  1.1536
   97OSM   C13S 9645   1.315   5.288   9.653  0.1922  0.0526  0.4098
   97OSM   H13S 9646   1.258   5.213   9.711 -0.8224  1.7656  1.6585
   97OSM   H13T 9647   1.419   5.263   9.684  0.5960  0.9926 -0.1669
   97OSM   C14S 9648   1.312   5.255   9.504 -0.4495  0.0407 -0.2344
   97OSM   H14S 9649   1.373   5.327   9.445  1.3660 -0.3095  1.1899
   97OSM   H14T 9650   1.207   5.259   9.469 -0.5645  1.0700  0.1879
   97OSM   C15S 9651   1.377   5.126   9.461 -0.1496  0.2915 -0.8285
   97OSM   H15S 9652   1.334   5.039   9.514 -1.3453  2.7895  2.5164
   97OSM   H15T 9653   1.483   5.137   9.492  0.6098 -0.2429 -3.0997
   97OSM   C16S 9654   1.381   5.091   9.311 -0.7871  0.2124 -0.0956
   97OSM   H16S 9655   1.424   5.177   9.255  0.0602 -0.3983 -0.3935
   97OSM   H16T 9656   1.274   5.089   9.280 -1.0726  0.0591  0.8662
   97OSM   C17S 9657   1.454   4.963   9.278 -0.5633  0.2356  0.0223
   97OSM   H17S 9658   1.410   4.938   9.178 -0.2897  1.0309 -0.3012
   97OSM   H17T 9659   1.435   4.874   9.340 -3.7191  1.8002  1.3928
   97OSM   C18S 9660   1.607   4.988   9.257 -0.3182 -0.5849 -0.2814
   97OSM   H18S 9661   1.651   5.001   9.358 -1.3236 -1.7234  0.3180
   97OSM   H18T 9662   1.637   5.080   9.203 -1.1917 -1.0287 -1.5390
   97OSM   H18U 9663   1.653   4.899   9.209  0.8788 -0.2369  0.2049
   97OSM    C1F 9664   0.840   5.827  10.608  0.7173  0.0559  0.3306
   97OSM     OF 9665   0.861   5.929  10.665 -0.0082  0.1940 -0.4350
   97OSM    C2F 9666   0.766   5.832  10.472  0.0129 -0.1959 -0.3856
   97OSM    H2F 9667   0.753   5.939  10.444 -0.7445  1.2628  4.9188
   97OSM    H2G 9668   0.671   5.780  10.497  0.9772 -2.1641 -0.7857
   97OSM    C3F 9669   0.845   5.761  10.372 -0.5087  0.3669 -0.0995
   97OSM    H3F 9670   0.876   5.657  10.399 -0.3612  0.1790 -0.9588
   97OSM    H3G 9671   0.942   5.813  10.356  0.6009 -1.7455 -0.3861
   97OSM    C4F 9672   0.761   5.749  10.246 -0.8190  0.3678 -0.2603
   97OSM    H4F 9673   0.733   5.853  10.220 -0.2081  0.9676  1.4207
   97OSM    H4G 9674   0.665   5.696  10.263  0.4306 -0.7717  3.7680
   97OSM    C5F 9675   0.828   5.681  10.127 -0.7566 -0.5858 -0.6334
   97OSM    H5F 9676   0.824   5.571  10.146  0.1783 -0.0587  2.9068
   97OSM    H5G 9677   0.926   5.730  10.114 -0.9082 -0.2722 -0.5966
   97OSM    C6F 9678   0.757   5.708   9.997  0.5626  0.3292  0.7118
   97OSM    H6F 9679   0.763   5.819   9.985  0.9346  0.1673 -0.6809
   97OSM    H6G 9680   0.651   5.678  10.005  0.3928  0.6164 -0.4391
   97OSM    C7F 9681   0.814   5.631   9.872 -0.7260  0.0957  0.2309
   97OSM    H7F 9682   0.827   5.524   9.900 -0.8314  0.0191 -0.0161
   97OSM    H7G 9683   0.918   5.668   9.864 -1.2852  1.8660  1.0238
   97OSM    C8F 9684   0.730   5.650   9.740 -0.0768 -0.3060 -0.2689
   97OSM    H8F 9685   0.717   5.759   9.726  1.0036 -0.0907  0.3096
   97OSM    H8G 9686   0.630   5.604   9.756 -1.0679  1.0843 -2.2773
   97OSM    C9F 9687   0.801   5.599   9.616 -0.1436 -0.3291 -0.7335
   97OSM    H9F 9688   0.788   5.492   9.593  1.9946 -0.5744 -0.9608
   97OSM   C10F 9689   0.850   5.667   9.510  1.0597  0.4523  0.3591
   97OSM   H10F 9690   0.876   5.607   9.422  3.0498 -1.1857  2.0134
   97OSM   C11F 9691   0.838   5.816   9.486  0.3644  0.4523  0.1204
   97OSM   H11F 9692   0.893   5.853   9.396  2.2971 -1.7669  0.3462
   97OSM   H11G 9693   0.904   5.858   9.565  1.1558  0.9431 -0.7910
   97OSM   C12F 9694   0.702   5.893   9.480 -1.1754  0.0048 -0.4192
   97OSM   H12F 9695   0.725   6.001   9.484  1.7997 -0.6168  1.4729
   97OSM   H12G 9696   0.645   5.867   9.571  1.5171  0.1946  1.3837
   97OSM   C13F 9697   0.621   5.857   9.361  0.0633  0.4310 -1.2784
   97OSM   H13F 9698   0.596   5.749   9.368 -2.5980  1.2190  3.2328
   97OSM   H13G 9699   0.683   5.881   9.273  0.6700  2.2161 -0.3862
   97OSM   C14F 9700   0.487   5.938   9.351 -0.4492  0.5274 -0.1839
   97OSM   H14F 9701   0.509   6.039   9.309  1.6793  0.8574  1.6242
   97OSM   H14G 9702   0.443   5.959   9.451 -3.9470 -1.5647 -1.2015
   97OSM   C15F 9703   0.391   5.877   9.250  0.7338  0.3268  0.0366
   97OSM   H15F 9704   0.290   5.899   9.290 -0.5729 -1.2001 -2.3013
   97OSM   H15G 9705   0.405   5.767   9.253  1.4527  0.2911 -2.6559
   97OSM   C16F 9706   0.393   5.931   9.103 -0.2424  0.3777 -0.4233
   97OSM   H16F 9707   0.491   5.914   9.053 -0.1785  1.0848 -0.5401
   97OSM   H16G 9708   0.383   6.041   9.110 -1.8591  0.2293 -0.3647
   97OSM   C17F 9709   0.288   5.869   9.013 -0.1440 -0.4124  0.4370
   97OSM   H17F 9710   0.320   5.764   8.992  1.7374  0.6344 -2.1994
   97OSM   H17G 9711   0.298   5.918   8.914 -1.3820  1.1731  1.0836
   97OSM   C18F 9712   0.143   5.881   9.059  0.2608  0.0425 -0.4992
   97OSM   H18F 9713   0.116   5.986   9.036  1.8261  0.1472 -1.9529
   97OSM   H18G 9714   0.131   5.856   9.166  0.1758 -0.5938 -0.6513
   97OSM   H18H 9715   0.076   5.808   9.008  0.1148  0.0862 -0.3699
   98OSM      N 9716   0.150   5.468  11.108 -0.9183 -0.0541 -0.1855
   98OSM    C15 9717   0.125   5.355  11.014  0.0207  0.7926  0.8837
   98OSM   H15A 9718   0.196   5.361  10.933 -0.6099  0.9532  0.3487
   98OSM   H15B 9719   0.021   5.354  10.984  0.7554  1.5882 -1.8415
   98OSM   H15C 9720   0.127   5.260  11.066  1.5783 -0.1988 -0.9072
   98OSM    C14 9721   0.116   5.595  11.034  0.3663  0.5304 -1.1412
   98OSM   H14A 9722   0.018   5.592  10.988 -0.7152 -2.3282  1.1934
   98OSM   H14B 9723   0.194   5.610  10.960  2.0541 -1.3929  0.1815
   98OSM   H14C 9724   0.111   5.684  11.095  1.2567 -0.5012  0.4548
   98OSM    C13 9725   0.049   5.447  11.222  0.5011  0.1443 -0.2013
   98OSM   H13A 9726   0.037   5.344  11.252 -1.7174 -0.4849 -2.9883
   98OSM   H13B 9727  -0.050   5.487  11.203  0.7346  1.9889  2.2171
   98OSM   H13C 9728   0.089   5.495  11.310 -3.2576  1.6827  0.7890
   98OSM    C12 9729   0.292   5.466  11.149  0.3386  0.1656 -0.9893
   98OSM   H12A 9730   0.311   5.542  11.223 -0.1590 -1.6505  1.0528
   98OSM   H12B 9731   0.349   5.490  11.061 -1.1053  0.6017 -1.8336
   98OSM    C11 9732   0.357   5.339  11.215 -0.3051  0.1021  0.0470
   98OSM   H11A 9733   0.291   5.321  11.302  0.3082 -1.0268  0.2856
   98OSM   H11B 9734   0.458   5.373  11.250 -0.3315  0.1484  0.0796
   98OSM      P 9735   0.519   5.180  11.079  0.2540  0.5561 -0.5993
   98OSM    O13 9736   0.601   5.293  11.022 -0.1725 -0.2482  0.1119
   98OSM    O14 9737   0.574   5.105  11.194 -0.4494  0.5914 -0.1102
   98OSM    O11 9738   0.500   5.080  10.957  0.6657 -0.6787  0.2189
   98OSM    O12 9739   0.371   5.233  11.119  0.6242 -0.2575 -0.2709
   98OSM    C1S 9740   0.375   5.066  10.887  0.2106 -0.2180 -0.6894
   98OSM    H1S 9741   0.306   5.151  10.910  1.3543  0.3732  0.6966
   98OSM    H1T 9742   0.329   4.975  10.930 -1.2128  1.3555  1.2708
   98OSM     NF 9743   0.249   5.069  10.672  0.9397 -0.0999 -0.1201
   98OSM    HNF 9744   0.196   4.986  10.653 -1.4440  1.1165  0.9499
   98OSM    C2S 9745   0.377   5.060  10.733 -0.5424  0.6892 -0.5744
   98OSM    H2S 9746   0.437   5.149  10.706 -0.3171  0.8249  0.3328
   98OSM    C3S 9747   0.462   4.933  10.700 -0.3099  0.3421 -0.0641
   98OSM    H3S 9748   0.409   4.841  10.734  2.1358 -2.0974 -2.5975
   98OSM     O3 9749   0.590   4.922  10.772 -0.1853  0.0662  0.5599
   98OSM    HO3 9750   0.605   5.008  10.811  0.1108  0.7906 -1.0915
   98OSM    C4S 9751   0.482   4.914  10.549  0.0020 -0.0479  0.5483
   98OSM    H4S 9752   0.392   4.872  10.503  0.8962  1.2892 -2.5291
   98OSM    C5S 9753   0.591   4.931  10.468 -0.5558 -1.0479  0.0805
   98OSM    H5S 9754   0.683   4.965  10.517 -1.0500  1.0861 -0.4370
   98OSM    C6S 9755   0.606   4.899  10.320 -0.0927 -0.4539  0.1708
   98OSM    H6S 9756   0.675   4.813  10.313 -0.2362 -0.5393 -0.2177
   98OSM    H6T 9757   0.667   4.986  10.288  0.2894 -0.1773  1.6276
   98OSM    C7S 9758   0.481   4.869  10.242 -0.2564  0.2193 -0.7212
   98OSM    H7S 9759   0.413   4.957  10.234 -0.5549  0.1757  1.1623
   98OSM    H7T 9760   0.435   4.775  10.280  1.0303  0.0910  0.5704
   98OSM    C8S 9761   0.512   4.813  10.097  0.3720  0.3190 -0.3397
   98OSM    H8S 9762   0.413   4.795  10.050  0.4365 -0.3117 -0.2376
   98OSM    H8T 9763   0.553   4.711  10.108  0.1137  0.0710 -1.6110
   98OSM    C9S 9764   0.599   4.904  10.013 -0.3276  0.4035 -0.6371
   98OSM    H9S 9765   0.702   4.901  10.054 -0.2034 -0.2638 -0.9805
   98OSM    H9T 9766   0.567   5.010  10.002  2.2864  0.9233 -4.1324
   98OSM   C10S 9767   0.617   4.846   9.866 -0.9689  0.2170  0.8360
   98OSM   H10S 9768   0.619   4.735   9.863 -0.3641  0.2641 -0.7960
   98OSM   H10T 9769   0.712   4.892   9.833 -0.5566  0.2994  2.1009
   98OSM   C11S 9770   0.514   4.891   9.765  0.4950  0.4645  0.2676
   98OSM   H11S 9771   0.510   5.002   9.755 -2.5064  0.5281  1.7582
   98OSM   H11T 9772   0.420   4.850   9.807  1.0482  1.2083  2.2940
   98OSM   C12S 9773   0.541   4.833   9.623  0.2176 -0.4588  0.6100
   98OSM   H12S 9774   0.649   4.840   9.600 -0.0939 -2.9954 -1.9090
   98OSM   H12T 9775   0.468   4.891   9.563 -0.0389 -0.8238  0.5646
   98OSM   C13S 9776   0.498   4.690   9.598  0.0517 -0.0825  0.6036
   98OSM   H13S 9777   0.404   4.668   9.653 -1.2988 -1.2274 -2.0637
   98OSM   H13T 9778   0.564   4.617   9.650  1.3157  0.3050 -0.4109
   98OSM   C14S 9779   0.486   4.667   9.444  0.6704 -0.3654  0.5247
   98OSM   H14S 9780   0.382   4.690   9.410  1.3440  2.8277  0.4496
   98OSM   H14T 9781   0.504   4.559   9.427 -0.2108 -0.6868  1.5474
   98OSM   C15S 9782   0.585   4.739   9.353  0.0239 -0.0902  0.1075
   98OSM   H15S 9783   0.690   4.740   9.391 -0.5799 -1.7575  1.9085
   98OSM   H15T 9784   0.558   4.846   9.364 -0.3507 -0.1480 -0.2591
   98OSM   C16S 9785   0.579   4.692   9.208  0.2777 -0.3518  0.0555
   98OSM   H16S 9786   0.611   4.775   9.141  0.2138  1.3099  2.0412
   98OSM   H16T 9787   0.477   4.654   9.183  0.1027  0.6093 -0.7447
   98OSM   C17S 9788   0.687   4.590   9.176 -0.3193  0.2710 -0.1063
   98OSM   H17S 9789   0.652   4.493   9.219 -0.3699  0.8630  1.2104
   98OSM   H17T 9790   0.784   4.600   9.230 -0.5970  1.5306  0.1623
   98OSM   C18S 9791   0.728   4.585   9.029  0.1233  0.0408 -0.1924
   98OSM   H18S 9792   0.648   4.592   8.952  1.7051 -0.5875 -1.9238
   98OSM   H18T 9793   0.772   4.483   9.017  0.7593  0.2415  0.3772
   98OSM   H18U 9794   0.804   4.663   9.012  0.4056 -0.1042  0.3762
   98OSM    C1F 9795   0.182   5.184  10.675  0.7885  0.2434  0.2246
   98OSM     OF 9796   0.232   5.284  10.726 -0.1731 -0.2429 -0.6843
   98OSM    C2F 9797   0.047   5.192  10.608 -0.1499 -0.2387  0.4708
   98OSM    H2F 9798   0.040   5.296  10.570  3.3983  0.5603  1.7763
   98OSM    H2G 9799  -0.040   5.164  10.671 -1.5784 -1.3376 -1.9044
   98OSM    C3F 9800   0.030   5.104  10.475 -0.3196  0.0312  0.0037
   98OSM    H3F 9801  -0.078   5.119  10.453 -1.5414 -3.2602  3.1987
   98OSM    H3G 9802   0.056   4.998  10.499  0.2854  0.3697  0.8567
   98OSM    C4F 9803   0.119   5.147  10.365 -0.2344  0.5022 -0.1254
   98OSM    H4F 9804   0.227   5.139  10.393 -0.1266  2.3481  0.0664
   98OSM    H4G 9805   0.098   5.254  10.344  1.4587  0.3524 -2.8813
   98OSM    C5F 9806   0.090   5.069  10.237  0.1486 -0.3783 -0.2619
   98OSM    H5F 9807  -0.017   5.088  10.213 -0.2154 -1.7009  0.3013
   98OSM    H5G 9808   0.100   4.960  10.256  1.4904  0.2656  3.0792
   98OSM    C6F 9809   0.183   5.105  10.122  0.3873  0.2649  0.1499
   98OSM    H6F 9810   0.288   5.126  10.152  1.1263 -2.0934 -0.6846
   98OSM    H6G 9811   0.149   5.198  10.072 -0.0513 -0.1242 -0.2815
   98OSM    C7F 9812   0.174   4.998  10.009  0.4785 -0.1603  0.5468
   98OSM    H7F 9813   0.179   4.901  10.064 -2.9979 -0.7522 -0.0791
   98OSM    H7G 9814   0.261   5.001   9.939  0.0019  0.7577 -0.0154
   98OSM    C8F 9815   0.046   5.001   9.934  0.4296 -0.8588  0.2754
   98OSM    H8F 9816   0.052   5.104   9.894 -1.4302 -0.9055 -0.1714
   98OSM    H8G 9817  -0.048   4.998   9.993 -0.1547  0.1442 -0.5885
   98OSM    C9F 9818   0.051   4.900   9.829  0.2180 -0.2862  0.5474
   98OSM    H9F 9819  -0.013   4.811   9.843  0.1500  0.1061  2.9695
   98OSM   C10F 9820   0.098   4.920   9.705 -0.1199  0.4694 -0.1510
   98OSM   H10F 9821   0.102   4.834   9.636 -0.4861  0.3210  0.0108
   98OSM   C11F 9822   0.183   5.032   9.653  0.0799 -0.6063 -0.4027
   98OSM   H11F 9823   0.285   4.989   9.646  0.7859  1.0557 -0.4804
   98OSM   H11G 9824   0.174   5.121   9.719  0.6059  1.0361 -2.5024
   98OSM   C12F 9825   0.159   5.076   9.504  0.0671  0.0667 -0.5094
   98OSM   H12F 9826   0.234   5.153   9.478  1.3337 -0.7325  0.7046
   98OSM   H12G 9827   0.063   5.128   9.481  0.1479  0.3313 -0.2523
   98OSM   C13F 9828   0.178   4.958   9.407  0.2790 -0.1446  0.0443
   98OSM   H13F 9829   0.097   4.884   9.424 -0.3679 -0.0011 -2.2573
   98OSM   H13G 9830   0.277   4.908   9.416 -0.2818 -1.3318 -0.3330
   98OSM   C14F 9831   0.180   5.012   9.264 -0.0687  0.3883 -0.0614
   98OSM   H14F 9832   0.260   5.089   9.266 -0.7613  1.1418 -0.7884
   98OSM   H14G 9833   0.082   5.057   9.237 -0.6055 -0.5297  0.3228
   98OSM   C15F 9834   0.213   4.896   9.162  0.3686 -0.5418 -0.1419
   98OSM   H15F 9835   0.126   4.831   9.139 -1.8411  0.5293  4.5039
   98OSM   H15G 9836   0.287   4.830   9.213  1.0277  0.9904  0.9385
   98OSM   C16F 9837   0.284   4.955   9.037  0.2744  0.3103 -0.3764
   98OSM   H16F 9838   0.311   4.866   8.976  1.3520  0.6030 -0.3374
   98OSM   H16G 9839   0.369   5.010   9.083 -0.7164  0.7215  1.0014
   98OSM   C17F 9840   0.192   5.057   8.960  0.2418 -1.0756  0.3423
   98OSM   H17F 9841   0.154   5.129   9.035  0.6822 -2.4204  1.8797
   98OSM   H17G 9842   0.105   5.007   8.912 -0.7144  0.0511  0.8984
   98OSM   C18F 9843   0.269   5.136   8.855 -0.1264  0.1616  0.7801
   98OSM   H18F 9844   0.370   5.166   8.891  0.5536 -1.5737  0.3928
   98OSM   H18G 9845   0.215   5.219   8.805  0.7466  0.4740  0.3270
   98OSM   H18H 9846   0.309   5.070   8.775 -0.6954  1.7644 -0.8547
   99OSM      N 9847   2.656   5.910  11.056 -0.0500  0.1606 -0.0349
   99OSM    C15 9848   2.790   5.904  10.987  1.0966  0.3521 -0.4502
   99OSM   H15A 9849   2.833   5.813  11.026  1.7706  1.0143  0.3667
   99OSM   H15B 9850   2.835   6.001  11.006 -1.3623  1.6856 -1.2249
   99OSM   H15C 9851   2.765   5.900  10.882  1.2441  0.1869 -0.4778
   99OSM    C14 9852   2.683   5.913  11.203  0.5626 -0.2053  0.1128
   99OSM   H14A 9853   2.753   5.994  11.213 -0.4165  0.6791 -0.0260
   99OSM   H14B 9854   2.729   5.819  11.227 -0.2106 -1.0450 -1.6158
   99OSM   H14C 9855   2.589   5.927  11.255 -0.1062 -0.4427 -1.0036
   99OSM    C13 9856   2.600   6.044  11.022 -0.1588 -0.0642 -0.0118
   99OSM   H13A 9857   2.583   6.061  10.916  2.4440  3.2066  0.0064
   99OSM   H13B 9858   2.660   6.129  11.049  0.7130 -0.4737 -0.6080
   99OSM   H13C 9859   2.507   6.059  11.073 -0.6802  0.0998 -0.9916
   99OSM    C12 9860   2.567   5.799  11.015  0.0998 -0.3205 -0.1157
   99OSM   H12A 9861   2.548   5.798  10.908  1.0590 -1.9725 -0.3009
   99OSM   H12B 9862   2.475   5.821  11.066  0.6955  1.9571  0.0056
   99OSM    C11 9863   2.609   5.653  11.049  0.8460  0.0067 -0.4372
   99OSM   H11A 9864   2.519   5.589  11.052  1.2277 -0.4924  0.7800
   99OSM   H11B 9865   2.657   5.648  11.149 -0.9958 -0.8127  0.4147
   99OSM      P 9866   2.652   5.579  10.806 -0.1238 -0.1493  0.3600
   99OSM    O13 9867   2.622   5.712  10.749 -0.1109  0.1218  0.2571
   99OSM    O14 9868   2.742   5.488  10.733 -0.0767  0.0662 -0.4860
   99OSM    O11 9869   2.521   5.494  10.816 -0.0592  0.4217 -0.8127
   99OSM    O12 9870   2.703   5.605  10.954 -0.5087  0.0536 -0.1439
   99OSM    C1S 9871   2.402   5.526  10.737  0.1666 -0.3902  0.3042
   99OSM    H1S 9872   2.390   5.635  10.720  1.0145 -0.4776 -0.9128
   99OSM    H1T 9873   2.313   5.478  10.783 -0.5013  0.2264 -0.3243
   99OSM     NF 9874   2.291   5.509  10.523  0.2600  0.5731 -0.2855
   99OSM    HNF 9875   2.221   5.441  10.507  1.0964 -0.3257 -0.2016
   99OSM    C2S 9876   2.418   5.471  10.592  0.1094  0.1246  0.5507
   99OSM    H2S 9877   2.493   5.529  10.535 -1.5820  0.4022 -1.4359
   99OSM    C3S 9878   2.456   5.322  10.578  0.4949 -0.3637 -0.1597
   99OSM    H3S 9879   2.394   5.270  10.654  0.8057 -2.6181 -1.4053
   99OSM     O3 9880   2.588   5.293  10.608 -0.0588  0.9290 -0.4617
   99OSM    HO3 9881   2.617   5.378  10.643  3.1514 -0.1656 -0.3096
   99OSM    C4S 9882   2.432   5.259  10.439 -0.0543 -0.2975  0.0849
   99OSM    H4S 9883   2.495   5.310  10.364  2.9716 -3.9015  0.0072
   99OSM    C5S 9884   2.361   5.157  10.400  0.5088 -0.1757 -0.7495
   99OSM    H5S 9885   2.315   5.097  10.480 -1.4706 -0.5163 -2.0872
   99OSM    C6S 9886   2.337   5.097  10.266  0.2872 -0.0638  0.2417
   99OSM    H6S 9887   2.237   5.141  10.246  1.9006  3.8770  0.4886
   99OSM    H6T 9888   2.341   4.987  10.280  2.0399  0.3959  4.0441
   99OSM    C7S 9889   2.444   5.139  10.165 -0.3794  0.1419  0.0373
   99OSM    H7S 9890   2.546   5.144  10.210 -1.1586 -0.0758  1.8447
   99OSM    H7T 9891   2.429   5.246  10.141  0.3062 -0.1688 -1.8750
   99OSM    C8S 9892   2.430   5.063  10.028 -0.0650  0.4054  0.1187
   99OSM    H8S 9893   2.325   5.031  10.014 -0.0259  0.7364 -0.9646
   99OSM    H8T 9894   2.496   4.974  10.022 -0.9460 -0.3672  1.5058
   99OSM    C9S 9895   2.480   5.152   9.912  0.4194  0.7270 -0.0678
   99OSM    H9S 9896   2.589   5.162   9.928  0.6727 -1.2242 -0.3736
   99OSM    H9T 9897   2.435   5.253   9.918 -1.3804 -0.0001 -0.9576
   99OSM   C10S 9898   2.456   5.080   9.780 -0.7246  0.0318 -0.7369
   99OSM   H10S 9899   2.351   5.045   9.770 -1.3139  0.4613  3.0095
   99OSM   H10T 9900   2.514   4.988   9.759 -2.2532 -1.2975  0.7052
   99OSM   C11S 9901   2.481   5.168   9.653 -0.8222  0.8068 -0.0474
   99OSM   H11S 9902   2.420   5.261   9.655 -0.1028  1.3479 -2.1464
   99OSM   H11T 9903   2.446   5.111   9.565  1.0231  0.8298 -0.8210
   99OSM   C12S 9904   2.633   5.198   9.636  0.7457  0.0055 -0.1109
   99OSM   H12S 9905   2.663   5.240   9.735 -0.9226  0.8233  0.0693
   99OSM   H12T 9906   2.670   5.098   9.604 -1.4437 -0.6329 -0.7296
   99OSM   C13S 9907   2.678   5.309   9.535  0.7013  0.0732 -0.0276
   99OSM   H13S 9908   2.788   5.320   9.523  0.7285  1.0184  0.9977
   99OSM   H13T 9909   2.646   5.405   9.581 -2.4269 -1.6781  1.5559
   99OSM   C14S 9910   2.613   5.295   9.400 -0.3384 -0.3414  0.3240
   99OSM   H14S 9911   2.502   5.295   9.402 -0.3568  0.4770 -0.5628
   99OSM   H14T 9912   2.642   5.194   9.363 -0.5739 -0.7817  1.3199
   99OSM   C15S 9913   2.662   5.395   9.302  0.5589  0.5039  1.0442
   99OSM   H15S 9914   2.773   5.389   9.295  0.4605  1.5882 -1.8050
   99OSM   H15T 9915   2.633   5.494   9.344  1.0397  0.6043  1.1499
   99OSM   C16S 9916   2.599   5.365   9.163 -0.5335 -0.1350 -0.1111
   99OSM   H16S 9917   2.496   5.407   9.174 -0.2992  0.7744 -1.3303
   99OSM   H16T 9918   2.599   5.256   9.142  0.1013 -0.7535  2.8737
   99OSM   C17S 9919   2.658   5.441   9.044  0.0702  0.0746 -0.5565
   99OSM   H17S 9920   2.765   5.423   9.021  0.1877 -1.5418  1.1286
   99OSM   H17T 9921   2.661   5.551   9.064  1.6680  0.0467 -0.5630
   99OSM   C18S 9922   2.578   5.418   8.920 -0.2749  0.0499 -0.0830
   99OSM   H18S 9923   2.473   5.443   8.945 -0.7560 -3.4719  1.7125
   99OSM   H18T 9924   2.584   5.314   8.882 -1.1394 -0.6338  1.6099
   99OSM   H18U 9925   2.611   5.480   8.834 -0.2603 -1.2557 -1.0321
   99OSM    C1F 9926   2.262   5.630  10.474 -0.2717  0.0047 -0.3535
   99OSM     OF 9927   2.351   5.718  10.483 -0.3632  0.3965 -0.1707
   99OSM    C2F 9928   2.126   5.655  10.415  0.0376 -0.8727  0.0375
   99OSM    H2F 9929   2.054   5.625  10.494 -1.1356  0.1534 -0.6389
   99OSM    H2G 9930   2.119   5.590  10.325 -2.8764 -0.6533  0.0605
   99OSM    C3F 9931   2.131   5.805  10.377  0.0058  0.2298 -0.5004
   99OSM    H3F 9932   2.148   5.864  10.469 -2.8295 -0.9654  0.8376
   99OSM    H3G 9933   2.218   5.831  10.312  2.2809 -0.6772  2.1241
   99OSM    C4F 9934   2.006   5.866  10.317  0.0326  0.6772 -0.2947
   99OSM    H4F 9935   1.918   5.838  10.380  0.6141 -1.4742 -0.4184
   99OSM    H4G 9936   1.991   5.819  10.218  0.3403 -1.7407  0.7526
   99OSM    C5F 9937   2.006   6.016  10.306  0.5674 -0.0817 -0.3768
   99OSM    H5F 9938   2.003   6.072  10.402 -0.1028 -2.5440  1.0970
   99OSM    H5G 9939   1.932   6.053  10.232  1.6468 -0.5292 -1.7195
   99OSM    C6F 9940   2.133   6.064  10.236 -0.0300  0.5071 -0.4563
   99OSM    H6F 9941   2.224   6.050  10.299  0.6192  1.0027 -1.2675
   99OSM    H6G 9942   2.121   6.174  10.222  1.4308  0.5301 -1.5786
   99OSM    C7F 9943   2.140   6.000  10.095 -0.9171  0.2519  1.2054
   99OSM    H7F 9944   2.035   5.997  10.059  0.2246 -0.1667 -2.3542
   99OSM    H7G 9945   2.179   5.897  10.106 -1.2132 -0.1739 -1.4129
   99OSM    C8F 9946   2.242   6.072   9.986  0.2227 -0.2026  1.0831
   99OSM    H8F 9947   2.315   6.123  10.052 -0.3546  3.0620 -0.6818
   99OSM    H8G 9948   2.190   6.152   9.929  3.9734  1.9878  0.5558
   99OSM    C9F 9949   2.309   5.973   9.893  0.7042 -0.2879  0.2955
   99OSM    H9F 9950   2.411   5.965   9.933  1.1008  1.2425 -0.3520
   99OSM   C10F 9951   2.259   5.916   9.786 -0.2872  0.5408 -0.1758
   99OSM   H10F 9952   2.319   5.843   9.730  1.5996  0.7268  1.5596
   99OSM   C11F 9953   2.113   5.932   9.744 -0.3531 -0.4175 -1.0624
   99OSM   H11F 9954   2.069   6.002   9.818  0.4919 -1.9987  0.9803
   99OSM   H11G 9955   2.071   5.830   9.758 -0.8656 -0.2862 -1.6267
   99OSM   C12F 9956   2.093   5.983   9.601 -0.2328 -0.1890 -0.1138
   99OSM   H12F 9957   2.139   5.915   9.527  1.2292  1.9585 -1.2283
   99OSM   H12G 9958   2.142   6.083   9.590 -1.3268  0.3937  0.2128
   99OSM   C13F 9959   1.945   5.994   9.567 -0.1402  1.1820  0.0334
   99OSM   H13F 9960   1.892   6.064   9.635 -1.2757  1.1454 -0.8133
   99OSM   H13G 9961   1.909   5.889   9.568 -1.2218  1.5548  0.9118
   99OSM   C14F 9962   1.938   6.060   9.424 -0.6072  0.3187  0.1097
   99OSM   H14F 9963   1.990   5.992   9.353 -0.2547 -0.9892  1.5773
   99OSM   H14G 9964   1.996   6.153   9.404  0.5412 -0.2479  0.7742
   99OSM   C15F 9965   1.790   6.061   9.367 -1.1941 -0.0017 -0.9564
   99OSM   H15F 9966   1.729   6.134   9.425 -1.0595  1.4384 -2.5751
   99OSM   H15G 9967   1.770   5.953   9.382 -0.4547  0.2008  1.8875
   99OSM   C16F 9968   1.777   6.089   9.215  0.1517 -0.2726  1.0048
   99OSM   H16F 9969   1.845   6.020   9.160 -0.4175  0.4405 -0.6271
   99OSM   H16G 9970   1.812   6.193   9.203  0.1974 -0.3550  0.4079
   99OSM   C17F 9971   1.634   6.074   9.153 -0.1979  0.1787 -0.4557
   99OSM   H17F 9972   1.614   5.964   9.153 -0.7512  0.2781 -0.9987
   99OSM   H17G 9973   1.638   6.113   9.050 -2.0119 -1.1406 -1.0655
   99OSM   C18F 9974   1.520   6.135   9.231  0.6270 -0.4185  0.6450
   99OSM   H18F 9975   1.538   6.241   9.259 -0.4311 -1.0151  3.6793
   99OSM   H18G 9976   1.504   6.074   9.322 -1.0992 -0.8462  0.0679
   99OSM   H18H 9977   1.433   6.126   9.162  1.0837  1.0228 -0.1508
  100OSM      N 9978   4.816   5.832  10.903 -0.0516 -0.8585 -1.2474
  100OSM    C15 9979   4.849   5.686  10.872 -0.5729 -0.7215  0.7288
  100OSM   H15A 9980   4.952   5.673  10.845 -0.4293  1.5597  0.0697
  100OSM   H15B 9981   4.789   5.654  10.788 -0.1240  0.3913 -0.0302
  100OSM   H15C 9982   4.818   5.627  10.957  0.2704  0.5949  1.9684
  100OSM    C14 9983   4.674   5.850  10.939  0.4828 -0.1844  0.1899
  100OSM   H14A 9984   4.644   5.953  10.950  0.1779 -0.0939 -1.4247
  100OSM   H14B 9985   4.641   5.801  11.030 -2.0968  2.2312  0.6359
  100OSM   H14C 9986   4.606   5.812  10.863 -0.3687  0.0266  0.8309
  100OSM    C13 9987   4.895   5.889  11.013  0.5294  0.2479 -0.7962
  100OSM   H13A 9988   4.852   5.864  11.109  1.3469  0.1751 -0.4426
  100OSM   H13B 9989   4.903   5.997  11.005  1.6629  0.1691 -0.7910
  100OSM   H13C 9990   4.992   5.842  11.012  1.6098  2.2022  2.5676
  100OSM    C12 9991   4.855   5.912  10.777  0.1710  0.0850 -0.0488
  100OSM   H12A 9992   4.957   5.889  10.748  0.2184  2.2784 -1.7642
  100OSM   H12B 9993   4.861   6.013  10.814  2.4241  0.7285 -2.0366
  100OSM    C11 9994   4.758   5.922  10.653 -0.1725  0.1126  0.0959
  100OSM   H11A 9995   4.751   5.817  10.618 -0.7747 -0.3300  1.5297
  100OSM   H11B 9996   4.815   5.980  10.577  0.7061 -1.0608 -0.1522
  100OSM      P 9997   4.611   6.124  10.699  0.0717  0.3244  0.3980
  100OSM    O13 9998   4.563   6.153  10.835 -0.2280 -0.1991  0.4074
  100OSM    O14 9999   4.737   6.189  10.654  0.7291 -0.4761  0.5597
  100OSM    O1110000   4.491   6.148  10.597  0.1021  0.4046  0.7948
  100OSM    O1210001   4.627   5.972  10.680 -0.6883  0.1973  0.0974
  100OSM    C1S10002   4.521   6.117  10.460 -0.1326  0.0152  0.3342
  100OSM    H1S10003   4.471   6.020  10.441 -0.3800  0.2616 -0.2954
  100OSM    H1T10004   4.625   6.097  10.428  0.1761 -0.2062  1.4732
  100OSM     NF10005   4.429   6.160  10.230 -0.1953  0.1203  0.0277
  100OSM    HNF10006   4.497   6.191  10.164  0.0344  0.5622  0.4674
  100OSM    C2S10007   4.445   6.208  10.364  0.6499  0.4690 -0.0238
  100OSM    H2S10008   4.346   6.220  10.412  0.6928 -0.1650  0.2230
  100OSM    C3S10009   4.510   6.348  10.387  0.3442 -0.9625  0.5824
  100OSM    H3S10010   4.610   6.349  10.340  0.4369  0.5647  0.7839
  100OSM     O310011   4.518   6.396  10.519  0.2346  0.2905  0.0513
  100OSM    HO310012   4.525   6.309  10.559 -0.7726  0.7451  1.2592
  100OSM    C4S10013   4.441   6.458  10.294 -0.7067 -0.8153 -0.4394
  100OSM    H4S10014   4.482   6.463  10.192 -2.3494 -0.0981 -1.0807
  100OSM    C5S10015   4.333   6.531  10.313  0.1978  0.4489  0.5047
  100OSM    H5S10016   4.280   6.531  10.410  1.5789  1.2891  1.2776
  100OSM    C6S10017   4.274   6.611  10.201 -0.6417  0.4598  0.0594
  100OSM    H6S10018   4.358   6.652  10.142 -1.2042  0.7988 -0.4998
  100OSM    H6T10019   4.214   6.694  10.245 -0.8155 -0.2780  1.2658
  100OSM    C7S10020   4.176   6.535  10.107 -0.0087 -0.0675 -0.0115
  100OSM    H7S10021   4.123   6.603  10.037 -0.6077 -1.6954 -1.1860
  100OSM    H7T10022   4.095   6.482  10.163  0.6390  0.1444  1.1351
  100OSM    C8S10023   4.239   6.438   9.999  0.2946 -0.5226 -0.7823
  100OSM    H8S10024   4.305   6.364  10.049 -0.6564 -1.2315 -0.5680
  100OSM    H8T10025   4.308   6.510   9.950  1.7849 -1.4213 -0.0407
  100OSM    C9S10026   4.153   6.377   9.895  0.3648 -0.5386  0.3125
  100OSM    H9S10027   4.073   6.450   9.873  0.8944 -0.3650 -1.1237
  100OSM    H9T10028   4.110   6.290   9.949 -0.3068 -0.9356 -0.8513
  100OSM   C10S10029   4.217   6.327   9.764 -0.9407 -0.4402 -0.1865
  100OSM   H10S10030   4.273   6.231   9.768 -0.5225 -0.2229 -0.6896
  100OSM   H10T10031   4.291   6.401   9.725  0.2571 -0.9658  1.0396
  100OSM   C11S10032   4.113   6.309   9.647 -0.5971 -0.1944 -0.9076
  100OSM   H11S10033   4.081   6.411   9.615 -1.1631 -0.2558 -0.5363
  100OSM   H11T10034   4.028   6.249   9.685  0.8666 -0.0402  2.7848
  100OSM   C12S10035   4.167   6.253   9.514  0.2171  0.2306  0.1365
  100OSM   H12S10036   4.192   6.145   9.527 -1.0139 -0.0101  0.5899
  100OSM   H12T10037   4.260   6.310   9.492  0.2009 -0.7014 -2.5208
  100OSM   C13S10038   4.061   6.276   9.403 -0.3037 -0.4912  0.1047
  100OSM   H13S10039   4.017   6.378   9.413 -4.1854 -1.9239 -1.2552
  100OSM   H13T10040   3.972   6.211   9.417  0.3029 -1.2409  0.5143
  100OSM   C14S10041   4.115   6.263   9.254  0.1420 -1.2247 -0.9080
  100OSM   H14S10042   4.145   6.161   9.220 -0.8434 -1.5676 -0.7430
  100OSM   H14T10043   4.206   6.326   9.244 -1.7851  1.7753 -0.2497
  100OSM   C15S10044   4.010   6.323   9.158 -0.0446 -0.4317 -0.4607
  100OSM   H15S10045   3.972   6.422   9.190  0.2502 -1.3491  2.9312
  100OSM   H15T10046   3.925   6.251   9.156 -0.7771  0.4548 -1.4534
  100OSM   C16S10047   4.071   6.325   9.015  0.4581  0.4647  0.1677
  100OSM   H16S10048   4.126   6.421   9.010  0.3633  0.4234 -2.5286
  100OSM   H16T10049   3.985   6.320   8.944 -1.0044  0.1475  1.9098
  100OSM   C17S10050   4.156   6.207   8.965  0.2773 -0.1001  1.2761
  100OSM   H17S10051   4.105   6.108   8.964  0.2016 -0.0731  1.9272
  100OSM   H17T10052   4.240   6.202   9.038  0.6693  1.6977  0.9889
  100OSM   C18S10053   4.216   6.234   8.830 -0.3212  0.3221  0.6909
  100OSM   H18S10054   4.285   6.321   8.835  1.0922 -0.6765 -1.2663
  100OSM   H18T10055   4.139   6.254   8.753 -0.3079 -1.2003  0.2825
  100OSM   H18U10056   4.269   6.143   8.796 -3.7317 -0.8521 -1.7469
  100OSM    C1F10057   4.340   6.071  10.196 -0.0050 -0.3048  0.1661
  100OSM     OF10058   4.280   6.002  10.279 -0.2268 -0.5307 -0.3177
  100OSM    C2F10059   4.306   6.054  10.043 -0.3402  0.0938  0.1695
  100OSM    H2F10060   4.402   6.059   9.987 -2.2380  0.0242 -3.2299
  100OSM    H2G10061   4.263   6.150  10.007 -0.1930  0.1280  0.0855
  100OSM    C3F10062   4.221   5.930  10.010 -0.7253  0.1610 -0.3281
  100OSM    H3F10063   4.119   5.931  10.055 -0.0451 -0.7827  1.2629
  100OSM    H3G10064   4.256   5.834  10.052  0.5991  0.7283 -0.1273
  100OSM    C4F10065   4.194   5.930   9.862  0.2881  0.3440  0.8982
  100OSM    H4F10066   4.294   5.929   9.812 -1.0388 -2.5717 -1.8529
  100OSM    H4G10067   4.136   6.022   9.839 -1.0094 -0.6448  0.1496
  100OSM    C5F10068   4.112   5.807   9.819 -0.2808  0.1330 -0.3509
  100OSM    H5F10069   4.036   5.796   9.900 -0.2993 -0.7354 -0.4829
  100OSM    H5G10070   4.180   5.722   9.798  0.4275  0.2040  1.5952
  100OSM    C6F10071   4.028   5.825   9.691 -0.0986  0.1377 -0.1674
  100OSM    H6F10072   3.979   5.925   9.688 -2.1587 -0.8058  0.6136
  100OSM    H6G10073   3.952   5.746   9.707  0.2671 -0.0694  0.5499
  100OSM    C7F10074   4.105   5.820   9.561 -0.1399 -0.4494  0.1931
  100OSM    H7F10075   4.135   5.714   9.548  1.6128  0.1437 -0.8190
  100OSM    H7G10076   4.203   5.872   9.573  1.3174 -3.0064 -0.0507
  100OSM    C8F10077   4.038   5.867   9.433  0.0025 -0.2574  0.8445
  100OSM    H8F10078   3.996   5.969   9.449 -0.0591 -0.1422 -0.0548
  100OSM    H8G10079   3.961   5.789   9.415  0.2369 -0.3191  0.1217
  100OSM    C9F10080   4.139   5.866   9.317  0.0312  0.2487 -0.7167
  100OSM    H9F10081   4.244   5.845   9.340 -0.4786 -2.2111 -0.4990
  100OSM   C10F10082   4.108   5.879   9.188 -0.6825  0.4274 -0.9875
  100OSM   H10F10083   4.191   5.883   9.116  0.1583 -2.2491 -0.2122
  100OSM   C11F10084   3.970   5.895   9.128  0.0921 -0.3251 -0.0235
  100OSM   H11F10085   3.942   6.002   9.145  0.1627 -0.4153  0.6728
  100OSM   H11G10086   3.905   5.832   9.192  1.1463 -0.9548  0.4303
  100OSM   C12F10087   3.973   5.860   8.974  1.0512  0.0362  0.6134
  100OSM   H12F10088   4.056   5.908   8.917  0.6726 -2.7626 -2.4882
  100OSM   H12G10089   3.883   5.919   8.944  1.0351 -1.3196 -2.2162
  100OSM   C13F10090   3.968   5.713   8.951 -0.0618 -0.5590  0.2725
  100OSM   H13F10091   3.896   5.671   9.024 -2.2810 -0.1845 -1.6092
  100OSM   H13G10092   4.073   5.681   8.967  0.0766  0.4103  1.3853
  100OSM   C14F10093   3.913   5.669   8.814 -0.1737  0.6206 -1.0706
  100OSM   H14F10094   3.961   5.739   8.742  2.0176 -1.2581 -1.4806
  100OSM   H14G10095   3.804   5.682   8.798 -0.2879  2.6934  1.1952
  100OSM   C15F10096   3.975   5.532   8.774 -0.2839  0.0826  0.0490
  100OSM   H15F10097   3.953   5.456   8.853 -0.4501 -0.4604 -0.5088
  100OSM   H15G10098   4.085   5.544   8.778 -0.2766  0.0847 -0.1635
  100OSM   C16F10099   3.939   5.478   8.634  0.6132 -0.3908 -0.0418
  100OSM   H16F10100   3.988   5.379   8.628  1.0703 -0.1806  0.1843
  100OSM   H16G10101   3.969   5.549   8.554 -1.3242  1.9719  1.2479
  100OSM   C17F10102   3.790   5.458   8.612  0.5052  0.0565  0.6476
  100OSM   H17F10103   3.773   5.425   8.507  1.7502 -0.0014  0.4686
  100OSM   H17G10104   3.739   5.556   8.623 -1.5078 -0.9000  0.1249
  100OSM   C18F10105   3.716   5.355   8.701 -0.3309 -0.5926  0.1470
  100OSM   H18F10106   3.710   5.388   8.807 -0.9724 -0.8456  0.1888
  100OSM   H18G10107   3.775   5.263   8.684  2.1556  0.9481  0.1379
  100OSM   H18H10108   3.611   5.331   8.675 -0.1066 -1.1232 -0.2682
  101OSM      N10109   0.396   6.545  11.144  0.2225 -0.2113 -0.5793
  101OSM    C1510110   0.269   6.459  11.115 -0.7893 -0.6836 -0.5707
  101OSM   H15A10111   0.292   6.387  11.038  1.7748 -1.4914  0.8831
  101OSM   H15B10112   0.178   6.508  11.083 -0.5205 -0.5755 -1.1792
  101OSM   H15C10113   0.245   6.418  11.212 -0.5095  0.8768  0.1724
  101OSM    C1410114   0.380   6.633  11.267  0.2799  0.1975  0.3148
  101OSM   H14A10115   0.299   6.704  11.256  0.4365  0.2947 -0.2432
  101OSM   H14B10116   0.470   6.684  11.296 -0.2254  1.1005  0.3198
  101OSM   H14C10117   0.367   6.577  11.359  2.3313 -1.8362 -0.5852
  101OSM    C1310118   0.513   6.460  11.165 -0.3468 -0.4766  0.4012
  101OSM   H13A10119   0.598   6.520  11.192  0.3709 -0.8706 -0.9461
  101OSM   H13B10120   0.535   6.410  11.072  0.4317 -0.1816  0.4237
  101OSM   H13C10121   0.490   6.396  11.249 -2.9709  0.4139  0.4217
  101OSM    C1210122   0.419   6.637  11.022  0.2159  0.2618  0.3071
  101OSM   H12A10123   0.517   6.680  11.036  0.5441  1.2140 -4.0835
  101OSM   H12B10124   0.345   6.716  11.017 -0.3415 -0.0274  3.3955
  101OSM    C1110125   0.414   6.574  10.887 -0.1637 -0.3627  0.1329
  101OSM   H11A10126   0.401   6.666  10.826 -0.4416 -0.9385 -0.6852
  101OSM   H11B10127   0.320   6.517  10.870 -0.9818  0.8806  0.3805
  101OSM      P10128   0.528   6.379  10.765 -0.4253  0.3993 -0.2675
  101OSM    O1310129   0.660   6.366  10.703 -0.2587 -0.2500  0.3552
  101OSM    O1410130   0.477   6.258  10.838 -0.2237 -0.6014  0.2428
  101OSM    O1110131   0.425   6.420  10.653  0.6781  0.2308 -0.2085
  101OSM    O1210132   0.526   6.506  10.858  0.1021 -0.0153 -0.1411
  101OSM    C1S10133   0.455   6.527  10.557  0.1102 -0.3063  0.6380
  101OSM    H1S10134   0.503   6.608  10.617  0.4981 -0.0622  0.0036
  101OSM    H1T10135   0.365   6.580  10.518 -0.9400 -1.7229  1.1140
  101OSM     NF10136   0.592   6.622  10.365  0.4696  0.6838  0.2966
  101OSM    HNF10137   0.560   6.627  10.271  0.5690  2.0050  0.3314
  101OSM    C2S10138   0.566   6.502  10.441 -0.6040  0.1023  0.0795
  101OSM    H2S10139   0.659   6.468  10.491 -1.8143 -2.8027  0.4746
  101OSM    C3S10140   0.510   6.386  10.351  0.6984 -0.1775  0.2023
  101OSM    H3S10141   0.426   6.423  10.288  0.9172  0.1577  0.1062
  101OSM     O310142   0.447   6.281  10.430  0.0680  0.4907  0.2726
  101OSM    HO310143   0.439   6.316  10.519  1.0096 -0.8841  0.9225
  101OSM    C4S10144   0.618   6.338  10.270 -0.2653  0.1641 -0.5118
  101OSM    H4S10145   0.657   6.241  10.305  2.4129  0.7193 -1.8739
  101OSM    C5S10146   0.659   6.367  10.147  0.1981 -0.1835  0.5599
  101OSM    H5S10147   0.602   6.439  10.086 -1.0568 -0.0661  1.8356
  101OSM    C6S10148   0.775   6.302  10.077 -0.1883 -0.2525 -0.3256
  101OSM    H6S10149   0.828   6.234  10.146  1.3265  1.6879  0.4710
  101OSM    H6T10150   0.842   6.384  10.043 -0.2392  1.2287  2.9973
  101OSM    C7S10151   0.729   6.222   9.962 -0.5275  0.6134 -0.0789
  101OSM    H7S10152   0.661   6.284   9.900 -2.3744 -2.5522 -1.3368
  101OSM    H7T10153   0.683   6.128   9.999 -1.4188  2.1579  2.8545
  101OSM    C8S10154   0.839   6.184   9.863 -0.0343  0.5655 -0.7225
  101OSM    H8S10155   0.876   6.286   9.842 -1.0523  1.2378  0.6164
  101OSM    H8T10156   0.782   6.143   9.778  0.6347  0.5125 -1.1500
  101OSM    C9S10157   0.940   6.078   9.900 -0.2318  0.5730 -0.3003
  101OSM    H9S10158   0.894   5.977   9.899  0.7711  0.1035  0.2761
  101OSM    H9T10159   0.986   6.092  10.000 -1.2540  1.7816  0.0188
  101OSM   C10S10160   1.045   6.071   9.792  0.5634  0.4466  0.3441
  101OSM   H10S10161   1.110   6.161   9.795 -0.2164  1.0220  0.0331
  101OSM   H10T10162   0.991   6.070   9.695 -1.3676  0.9033  1.3907
  101OSM   C11S10163   1.134   5.941   9.798 -0.5915  0.7559 -0.0596
  101OSM   H11S10164   1.070   5.851   9.790 -0.3977  0.4638  1.4657
  101OSM   H11T10165   1.181   5.959   9.897 -0.0110  0.3984 -0.2670
  101OSM   C12S10166   1.249   5.931   9.700 -0.0182  0.4257  0.5375
  101OSM   H12S10167   1.332   5.871   9.741  0.6034  0.6202 -0.4123
  101OSM   H12T10168   1.252   6.039   9.675 -1.2786  0.3695  0.0840
  101OSM   C13S10169   1.213   5.856   9.573 -0.1396  0.6239  0.3711
  101OSM   H13S10170   1.121   5.903   9.532 -0.4759  0.0227  0.4270
  101OSM   H13T10171   1.203   5.747   9.592  1.5089  0.8378  2.7715
  101OSM   C14S10172   1.319   5.893   9.474  0.0539 -0.0201  0.3998
  101OSM   H14S10173   1.419   5.853   9.503  0.9062  1.3289 -0.6154
  101OSM   H14T10174   1.318   6.004   9.471 -1.4676 -0.0591 -1.7883
  101OSM   C15S10175   1.274   5.851   9.331 -0.0584 -0.2031  0.0552
  101OSM   H15S10176   1.345   5.878   9.251  0.1266  0.7769  0.5418
  101OSM   H15T10177   1.187   5.915   9.305 -0.6188  0.4670  3.2535
  101OSM   C16S10178   1.253   5.705   9.310  0.3537  0.8267  0.0002
  101OSM   H16S10179   1.193   5.657   9.391 -0.9669 -0.4575 -1.7200
  101OSM   H16T10180   1.351   5.653   9.307  0.2696  0.6885 -0.3207
  101OSM   C17S10181   1.159   5.676   9.192 -0.0950 -0.0950  0.0944
  101OSM   H17S10182   1.210   5.688   9.094 -0.1626  2.7520  0.3554
  101OSM   H17T10183   1.061   5.728   9.192 -1.3527 -2.3807 -0.8445
  101OSM   C18S10184   1.110   5.532   9.198  0.1927  0.0333  0.4343
  101OSM   H18S10185   1.044   5.527   9.108  0.7198 -1.5177  0.1258
  101OSM   H18T10186   1.069   5.509   9.299  2.2416  2.1308  1.7744
  101OSM   H18U10187   1.188   5.453   9.195  1.2227  1.0193  1.0273
  101OSM    C1F10188   0.652   6.722  10.420  0.1083 -0.5756 -0.0664
  101OSM     OF10189   0.680   6.717  10.541  0.5008  0.1308 -0.6618
  101OSM    C2F10190   0.684   6.843  10.336  0.8373 -0.2000  0.4088
  101OSM    H2F10191   0.607   6.921  10.352  1.0051  0.2283 -0.8568
  101OSM    H2G10192   0.657   6.808  10.234  0.7188 -2.1063  1.0742
  101OSM    C3F10193   0.832   6.887  10.325 -0.3692 -0.2319  0.0189
  101OSM    H3F10194   0.862   6.927  10.424  0.8432  0.5288 -0.6323
  101OSM    H3G10195   0.849   6.965  10.247 -1.3628 -0.1413 -0.1029
  101OSM    C4F10196   0.923   6.767  10.273  1.0981 -0.4595 -0.4697
  101OSM    H4F10197   0.911   6.677  10.337 -0.4364 -1.2970 -1.8915
  101OSM    H4G10198   1.019   6.816  10.296  0.2804  1.0143 -0.1365
  101OSM    C5F10199   0.936   6.741  10.124  0.1309 -0.2089  0.0650
  101OSM    H5F10200   0.957   6.829  10.060 -1.2666  0.3461  0.3521
  101OSM    H5G10201   0.837   6.697  10.098  0.6534 -1.3689  0.0144
  101OSM    C6F10202   1.052   6.642  10.086 -0.3429  0.3000  0.4583
  101OSM    H6F10203   1.147   6.696  10.105 -1.0413  2.4084 -1.7749
  101OSM    H6G10204   1.062   6.557  10.157 -0.4253 -1.2928 -1.4036
  101OSM    C7F10205   1.034   6.602   9.939  0.1281  0.1454  0.0433
  101OSM    H7F10206   1.064   6.681   9.867 -1.5866  1.1442  0.4022
  101OSM    H7G10207   0.928   6.582   9.913  0.2669  1.1547 -1.3540
  101OSM    C8F10208   1.113   6.475   9.896  0.0694 -0.3788 -0.6225
  101OSM    H8F10209   1.090   6.470   9.787  0.0929  0.9578 -0.6985
  101OSM    H8G10210   1.067   6.388   9.949 -0.8060  2.3940  3.3847
  101OSM    C9F10211   1.258   6.490   9.925  0.4095 -0.5388 -0.2997
  101OSM    H9F10212   1.287   6.546  10.015 -0.4935  0.2295 -0.4742
  101OSM   C10F10213   1.366   6.461   9.853  0.4512 -0.5009 -0.0381
  101OSM   H10F10214   1.467   6.491   9.885 -0.5434  0.6204  2.1097
  101OSM   C11F10215   1.363   6.382   9.720  0.6967  0.4398 -0.1777
  101OSM   H11F10216   1.262   6.342   9.698  1.6366 -1.1528 -1.7158
  101OSM   H11G10217   1.430   6.294   9.726 -1.0054 -1.0497 -2.3656
  101OSM   C12F10218   1.408   6.475   9.605 -0.3260  0.0648  0.4313
  101OSM   H12F10219   1.506   6.522   9.629 -0.1261 -0.1837  0.1181
  101OSM   H12G10220   1.333   6.554   9.582  1.2077  1.0802 -1.2043
  101OSM   C13F10221   1.420   6.382   9.475 -0.3933  0.2606 -0.4408
  101OSM   H13F10222   1.470   6.287   9.504  1.2045  1.0358 -0.6333
  101OSM   H13G10223   1.496   6.422   9.404  0.2724  0.2533  0.2684
  101OSM   C14F10224   1.287   6.338   9.409  0.5704 -0.0507  0.5939
  101OSM   H14F10225   1.239   6.293   9.499  1.5987 -1.1355  0.6157
  101OSM   H14G10226   1.291   6.263   9.327 -0.0858  2.1746 -1.5297
  101OSM   C15F10227   1.195   6.461   9.369  0.3775  0.3218 -0.4383
  101OSM   H15F10228   1.180   6.502   9.472 -0.7550  0.3216 -0.5932
  101OSM   H15G10229   1.103   6.418   9.323  1.0674 -1.2071 -0.4336
  101OSM   C16F10230   1.257   6.561   9.274  0.9855 -0.0923 -0.4349
  101OSM   H16F10231   1.329   6.626   9.327 -0.6920  1.0107  0.5453
  101OSM   H16G10232   1.178   6.635   9.253  0.5722 -0.5295 -0.4472
  101OSM   C17F10233   1.322   6.495   9.149  0.1777  0.3614  0.0551
  101OSM   H17F10234   1.398   6.421   9.183  1.1368  0.1399 -2.4387
  101OSM   H17G10235   1.381   6.562   9.083  1.0124 -0.5347 -0.1110
  101OSM   C18F10236   1.228   6.427   9.050 -0.1599  0.3839 -0.0764
  101OSM   H18F10237   1.166   6.504   9.000 -1.8842 -0.8353  0.1294
  101OSM   H18G10238   1.161   6.347   9.088  0.5488 -0.5222 -0.6821
  101OSM   H18H10239   1.286   6.384   8.965 -0.8131  1.5088 -1.1169
  102OSM      N10240   2.513   1.878  11.211  0.1108 -0.5721 -0.5102
  102OSM    C1510241   2.427   1.799  11.299 -0.5475  0.7409  0.3283
  102OSM   H15A10242   2.445   1.828  11.402 -0.8692  0.0193  0.5980
  102OSM   H15B10243   2.432   1.692  11.283  0.0480  0.9547 -0.9668
  102OSM   H15C10244   2.324   1.824  11.283  0.1892  3.0895 -0.9211
  102OSM    C1410245   2.506   2.028  11.238  0.1449 -0.3698 -0.2047
  102OSM   H14A10246   2.528   2.037  11.344  1.3176 -1.0090 -0.3853
  102OSM   H14B10247   2.410   2.076  11.238  0.9687  1.3355  0.3237
  102OSM   H14C10248   2.575   2.082  11.175  0.9152 -0.5515  0.4699
  102OSM    C1310249   2.659   1.835  11.236 -0.9902 -0.3978 -0.4206
  102OSM   H13A10250   2.731   1.910  11.208 -2.1984 -0.1256 -2.9736
  102OSM   H13B10251   2.677   1.747  11.176  2.5464 -0.6898  0.9860
  102OSM   H13C10252   2.684   1.804  11.336  0.4283 -1.8452 -1.2063
  102OSM    C1210253   2.473   1.852  11.062 -0.2546  0.4250  0.5630
  102OSM   H12A10254   2.377   1.901  11.049 -0.7856  0.5099  4.1619
  102OSM   H12B10255   2.454   1.745  11.067  0.9351  0.2027  0.3315
  102OSM    C1110256   2.565   1.893  10.943 -0.8694  0.3702 -0.0665
  102OSM   H11A10257   2.509   1.876  10.848  2.1466  0.3943 -1.8940
  102OSM   H11B10258   2.645   1.816  10.944  0.1064  1.3360  3.4262
  102OSM      P10259   2.747   2.048  10.862  0.0293  0.3522 -0.0653
  102OSM    O1310260   2.761   2.192  10.837  0.2838  0.2679 -0.0825
  102OSM    O1410261   2.853   1.986  10.946 -1.1326  0.6378 -0.1118
  102OSM    O1110262   2.729   1.959  10.729  0.3515 -0.0168 -0.3824
  102OSM    O1210263   2.609   2.022  10.943  0.0269  0.0120 -0.1475
  102OSM    C1S10264   2.736   2.048  10.616 -0.4684  0.1988  0.4817
  102OSM    H1S10265   2.835   2.099  10.619 -0.7221  0.6451  1.4019
  102OSM    H1T10266   2.666   2.133  10.629  0.4081  0.9141  0.6252
  102OSM     NF10267   2.762   2.078  10.368 -0.4533  0.4526 -0.3527
  102OSM    HNF10268   2.700   2.129  10.309  0.1429  2.3395  0.6226
  102OSM    C2S10269   2.718   1.982  10.474  0.5340  0.6352  0.0954
  102OSM    H2S10270   2.785   1.893  10.466 -0.2684  0.1745 -1.7658
  102OSM    C3S10271   2.565   1.941  10.464 -0.8719 -0.2679 -0.1235
  102OSM    H3S10272   2.506   2.029  10.498 -0.8734 -0.3887  0.1907
  102OSM     O310273   2.535   1.843  10.562 -0.3724  0.4516 -0.0755
  102OSM    HO310274   2.602   1.848  10.630 -1.6330  2.7577  1.0281
  102OSM    C4S10275   2.504   1.895  10.331 -0.3032  1.2861  0.8104
  102OSM    H4S10276   2.516   1.789  10.304 -3.3427  0.9036  0.7786
  102OSM    C5S10277   2.430   1.969  10.254 -0.8126 -0.1617 -0.2525
  102OSM    H5S10278   2.424   2.077  10.278 -1.7771 -0.0579 -0.9225
  102OSM    C6S10279   2.371   1.923  10.122 -0.6157 -0.7786 -0.4996
  102OSM    H6S10280   2.269   1.967  10.115 -0.7307 -0.9880 -0.1841
  102OSM    H6T10281   2.362   1.812  10.115  4.4740 -1.2472 -1.3114
  102OSM    C7S10282   2.462   1.974  10.009 -0.1286 -0.4659  0.6540
  102OSM    H7S10283   2.567   1.945  10.029  0.3470 -0.4706 -1.6524
  102OSM    H7T10284   2.458   2.085  10.003  1.3719 -0.4865 -1.2525
  102OSM    C8S10285   2.420   1.937   9.868 -0.5347 -0.8972 -0.4218
  102OSM    H8S10286   2.310   1.948   9.861 -0.9395 -3.7451  0.6545
  102OSM    H8T10287   2.444   1.829   9.857  2.3909 -0.3210 -0.2221
  102OSM    C9S10288   2.479   2.024   9.760 -0.1042  0.1822 -0.7992
  102OSM    H9S10289   2.585   1.996   9.746 -0.6007 -0.9071 -2.5982
  102OSM    H9T10290   2.458   2.131   9.782  1.0794  0.2278  0.1296
  102OSM   C10S10291   2.407   1.994   9.627  0.4085 -0.3998  0.0523
  102OSM   H10S10292   2.297   1.990   9.640  0.3176  1.7488  0.1766
  102OSM   H10T10293   2.449   1.895   9.598 -2.9191 -1.3152 -1.8625
  102OSM   C11S10294   2.438   2.101   9.520  0.3730 -0.4727 -0.3334
  102OSM   H11S10295   2.545   2.130   9.530  0.6809 -0.6641 -2.7639
  102OSM   H11T10296   2.375   2.189   9.543  0.6460 -0.7244  1.4376
  102OSM   C12S10297   2.424   2.049   9.376  0.2196 -0.0445 -0.1026
  102OSM   H12S10298   2.325   2.001   9.365  0.0089  0.4437 -0.3665
  102OSM   H12T10299   2.504   1.972   9.371  0.2551  0.0649 -1.3512
  102OSM   C13S10300   2.424   2.162   9.269  0.5416  0.0388 -0.7888
  102OSM   H13S10301   2.516   2.222   9.282  1.0503 -1.4230  3.0316
  102OSM   H13T10302   2.339   2.231   9.290 -0.2171 -1.1266  0.0722
  102OSM   C14S10303   2.406   2.127   9.118  0.0916  0.5430 -0.3052
  102OSM   H14S10304   2.298   2.102   9.108 -0.0445  0.1097  1.8492
  102OSM   H14T10305   2.473   2.044   9.088 -0.1607  0.4646 -0.6526
  102OSM   C15S10306   2.429   2.245   9.021  0.5800 -0.5429  0.0381
  102OSM   H15S10307   2.538   2.266   9.029  0.2665  1.1651 -0.0001
  102OSM   H15T10308   2.375   2.337   9.049 -1.3820 -1.7094  0.1956
  102OSM   C16S10309   2.394   2.195   8.883 -0.4896 -0.6366  0.1914
  102OSM   H16S10310   2.286   2.168   8.875 -0.8913  1.0872 -0.4966
  102OSM   H16T10311   2.458   2.107   8.864 -1.1194 -0.8596 -0.9821
  102OSM   C17S10312   2.424   2.300   8.769  0.2992  0.0819  0.6457
  102OSM   H17S10313   2.531   2.328   8.773  0.8433 -1.9268  0.4929
  102OSM   H17T10314   2.371   2.394   8.799  1.3351  1.2190 -1.0230
  102OSM   C18S10315   2.383   2.255   8.636  0.0935 -0.7480 -0.1176
  102OSM   H18S10316   2.402   2.334   8.560  0.0337 -1.8013 -1.2401
  102OSM   H18T10317   2.274   2.245   8.622 -0.2444  3.5767 -1.3240
  102OSM   H18U10318   2.435   2.161   8.608  2.4369  0.0463  1.3388
  102OSM    C1F10319   2.896   2.100  10.338 -0.0776 -0.2166 -0.5189
  102OSM     OF10320   2.989   2.042  10.398 -0.2208  0.2046  0.3094
  102OSM    C2F10321   2.928   2.188  10.223  0.2758 -0.2088  0.2958
  102OSM    H2F10322   3.038   2.176  10.206  0.7427  1.7541  1.7357
  102OSM    H2G10323   2.927   2.296  10.246 -1.9012  0.0142 -0.7514
  102OSM    C3F10324   2.843   2.155  10.101  0.0466 -0.0867  0.7267
  102OSM    H3F10325   2.734   2.166  10.121 -0.7274  0.8479 -3.6560
  102OSM    H3G10326   2.872   2.049  10.087  1.4839  0.2903  0.7658
  102OSM    C4F10327   2.886   2.226   9.972  0.4495 -0.3648 -0.2001
  102OSM    H4F10328   2.985   2.201   9.929  0.6606 -0.9095  0.5988
  102OSM    H4G10329   2.893   2.334   9.997  2.1154  0.1324 -2.6180
  102OSM    C5F10330   2.788   2.213   9.855  0.1172 -0.2178 -0.3167
  102OSM    H5F10331   2.695   2.246   9.906  0.8173  1.2894  0.0146
  102OSM    H5G10332   2.786   2.107   9.822 -0.4551 -0.3202  0.0400
  102OSM    C6F10333   2.829   2.317   9.749 -0.0037 -0.1580 -0.2694
  102OSM    H6F10334   2.936   2.318   9.720  0.2830  0.5150  0.7959
  102OSM    H6G10335   2.817   2.420   9.788  2.5415  0.2464 -0.5032
  102OSM    C7F10336   2.748   2.300   9.620 -0.7358  0.6304  0.3943
  102OSM    H7F10337   2.643   2.286   9.653 -0.8351 -1.2369 -0.6649
  102OSM    H7G10338   2.779   2.203   9.576 -1.2906 -0.5543  2.5775
  102OSM    C8F10339   2.760   2.419   9.523 -0.3794 -0.6341 -1.0480
  102OSM    H8F10340   2.735   2.513   9.576  3.5403 -1.4692  2.5128
  102OSM    H8G10341   2.681   2.406   9.445 -1.2556 -0.9658 -0.1144
  102OSM    C9F10342   2.902   2.438   9.482  0.7567  0.7177  0.3870
  102OSM    H9F10343   2.964   2.488   9.557  1.9429 -0.0520 -0.0543
  102OSM   C10F10344   2.951   2.397   9.362  0.4753  0.7714  0.1444
  102OSM   H10F10345   3.059   2.387   9.349  0.2168 -0.9665 -0.9219
  102OSM   C11F10346   2.869   2.320   9.268  0.5632  0.4686 -0.1483
  102OSM   H11F10347   2.759   2.332   9.278  0.7054  1.3417  0.4883
  102OSM   H11G10348   2.891   2.212   9.285 -0.6993  0.1584 -0.4835
  102OSM   C12F10349   2.919   2.358   9.126  0.2745 -0.2624 -0.2277
  102OSM   H12F10350   3.027   2.380   9.117  0.2607 -0.1225 -0.0446
  102OSM   H12G10351   2.870   2.456   9.103  2.1432  0.9093  0.6994
  102OSM   C13F10352   2.877   2.254   9.017 -0.4517  0.0442  0.3592
  102OSM   H13F10353   2.766   2.244   9.024 -0.1490 -3.5076  0.7157
  102OSM   H13G10354   2.918   2.152   9.029  0.9790  0.9151  3.3541
  102OSM   C14F10355   2.908   2.302   8.880 -0.1248  0.6770 -0.4344
  102OSM   H14F10356   3.012   2.339   8.866  1.5883 -3.9280 -0.9226
  102OSM   H14G10357   2.849   2.395   8.866 -0.8354  0.0440 -1.7450
  102OSM   C15F10358   2.865   2.208   8.772  0.3385  0.3805  0.0355
  102OSM   H15F10359   2.756   2.187   8.771  0.6101 -1.0517 -0.4238
  102OSM   H15G10360   2.921   2.113   8.760 -0.3681 -0.1184  0.6192
  102OSM   C16F10361   2.891   2.278   8.644  0.7298 -0.3635  0.5417
  102OSM   H16F10362   3.000   2.294   8.637  0.6834 -0.1672  0.3063
  102OSM   H16G10363   2.840   2.376   8.640 -0.0749 -0.7780  0.4723
  102OSM   C17F10364   2.861   2.193   8.522  0.2142 -0.2834  0.7668
  102OSM   H17F10365   2.932   2.108   8.524  0.2046 -0.2617  2.2462
  102OSM   H17G10366   2.876   2.256   8.431  1.4745 -3.0961 -1.0287
  102OSM   C18F10367   2.723   2.134   8.519 -0.4071 -0.8763 -1.1108
  102OSM   H18F10368   2.641   2.207   8.535  0.0121 -0.6933  0.2288
  102OSM   H18G10369   2.709   2.056   8.597 -0.5547  0.1776 -0.0829
  102OSM   H18H10370   2.710   2.074   8.426  2.1585 -1.6536 -0.9948
  103OSM      N10371   1.910   4.228  10.957 -0.1746 -0.7879  0.2019
  103OSM    C1510372   1.935   4.138  11.074  0.2617  0.1213 -0.1513
  103OSM   H15A10373   1.961   4.035  11.054  0.5080  0.4318 -1.4923
  103OSM   H15B10374   1.853   4.131  11.143 -0.8609 -2.7393 -1.6774
  103OSM   H15C10375   2.019   4.172  11.133  0.7418 -0.6782 -0.3480
  103OSM    C1410376   1.867   4.368  11.001 -0.1420  0.3316 -0.6113
  103OSM   H14A10377   1.943   4.440  11.030 -0.4808 -0.2133  1.6508
  103OSM   H14B10378   1.785   4.371  11.070 -0.4196  2.9474 -0.9957
  103OSM   H14C10379   1.833   4.421  10.913  0.3923 -0.7022 -1.4589
  103OSM    C1310380   2.031   4.226  10.875 -1.2682 -0.3248  0.6548
  103OSM   H13A10381   2.066   4.124  10.874  1.7526  0.6801 -0.3219
  103OSM   H13B10382   2.107   4.289  10.918 -1.3379  1.7488 -2.1445
  103OSM   H13C10383   2.019   4.272  10.778  2.4176  1.1755  0.8262
  103OSM    C1210384   1.791   4.172  10.881 -0.0008 -0.3691 -0.1745
  103OSM   H12A10385   1.700   4.170  10.939  1.0229 -0.8056  1.4511
  103OSM   H12B10386   1.798   4.070  10.846 -1.9607 -0.2120 -1.0777
  103OSM    C1110387   1.744   4.263  10.755 -0.2450  0.0317  0.1321
  103OSM   H11A10388   1.681   4.203  10.686  0.3121  0.7256 -0.9976
  103OSM   H11B10389   1.835   4.280  10.693 -0.0768 -0.3814  0.2682
  103OSM      P10390   1.516   4.392  10.790 -0.4083  0.2501  0.3636
  103OSM    O1310391   1.445   4.283  10.865 -0.0527  0.1419 -0.2398
  103OSM    O1410392   1.488   4.533  10.834  0.0957 -0.1354 -0.2628
  103OSM    O1110393   1.486   4.375  10.636 -0.3590  0.5064 -0.4917
  103OSM    O1210394   1.673   4.379  10.794 -0.0249  0.1495 -0.3687
  103OSM    C1S10395   1.538   4.474  10.544 -0.1608 -0.1803 -0.0855
  103OSM    H1S10396   1.631   4.434  10.497  0.1853 -0.6133  0.9531
  103OSM    H1T10397   1.562   4.570  10.595 -1.3411 -0.0051  0.1465
  103OSM     NF10398   1.484   4.602  10.334 -0.7627 -0.8122  0.6470
  103OSM    HNF10399   1.441   4.692  10.339 -0.1147 -0.3086 -2.2686
  103OSM    C2S10400   1.435   4.509  10.434 -0.3298  0.4990 -0.1254
  103OSM    H2S10401   1.413   4.407  10.395  0.4907 -0.4996  1.9393
  103OSM    C3S10402   1.306   4.559  10.504 -0.4611 -0.6354  0.4907
  103OSM    H3S10403   1.327   4.660  10.545 -4.0850  0.0239  0.8998
  103OSM     O310404   1.255   4.489  10.613 -0.6868  0.0046 -0.6590
  103OSM    HO310405   1.333   4.462  10.662 -0.2020 -0.8539 -1.8671
  103OSM    C4S10406   1.198   4.591  10.395  0.7264 -0.5243  0.0583
  103OSM    H4S10407   1.231   4.680  10.340  2.0235 -0.9662  0.1094
  103OSM    C5S10408   1.088   4.519  10.361  0.0901  0.3824  0.0471
  103OSM    H5S10409   1.069   4.427  10.419  1.3196  1.2700  1.9358
  103OSM    C6S10410   0.991   4.556  10.252 -0.3490  0.2190  0.1573
  103OSM    H6S10411   0.902   4.609  10.293 -1.8583 -0.5187 -2.0816
  103OSM    H6T10412   0.944   4.464  10.210  0.1694 -0.4459  1.0075
  103OSM    C7S10413   1.049   4.633  10.131 -0.4632  0.6646 -0.0007
  103OSM    H7S10414   1.095   4.729  10.163  0.5118 -0.2576  1.4114
  103OSM    H7T10415   0.960   4.663  10.071 -0.0513  2.7437  0.4060
  103OSM    C8S10416   1.143   4.556  10.038 -0.1287  0.1889  0.4029
  103OSM    H8S10417   1.094   4.466   9.994 -1.4719  1.9017 -1.6923
  103OSM    H8T10418   1.227   4.514  10.097  1.1597  2.7686  0.4926
  103OSM    C9S10419   1.202   4.634   9.915 -0.8848 -0.1620 -0.0686
  103OSM    H9S10420   1.262   4.718   9.956  1.7439 -1.5071 -1.1064
  103OSM    H9T10421   1.120   4.686   9.861 -1.1170  0.4969  0.8963
  103OSM   C10S10422   1.284   4.553   9.814 -0.4363  0.3101  0.2382
  103OSM   H10S10423   1.238   4.453   9.803 -0.3035  0.2591  0.1572
  103OSM   H10T10424   1.387   4.545   9.854 -0.3544 -0.1463 -0.0681
  103OSM   C11S10425   1.267   4.618   9.675 -0.6740  0.3057  0.3353
  103OSM   H11S10426   1.314   4.718   9.688  2.8262 -1.1850 -0.1099
  103OSM   H11T10427   1.164   4.624   9.635 -0.5169 -0.1389 -0.1366
  103OSM   C12S10428   1.344   4.532   9.574 -0.6913 -0.0098 -0.1352
  103OSM   H12S10429   1.293   4.433   9.568 -1.9745  0.6451 -0.2031
  103OSM   H12T10430   1.446   4.524   9.618 -1.3544  0.4034  1.5128
  103OSM   C13S10431   1.346   4.603   9.436 -0.4652  0.8145 -0.3272
  103OSM   H13S10432   1.379   4.708   9.449  1.3523  0.0582  1.4795
  103OSM   H13T10433   1.244   4.594   9.393 -1.0156 -2.5293  1.4825
  103OSM   C14S10434   1.448   4.530   9.344  0.4846 -0.3875  0.4210
  103OSM   H14S10435   1.428   4.421   9.353 -1.7378 -0.0486 -0.1550
  103OSM   H14T10436   1.547   4.562   9.382  0.9101 -1.0867 -0.0989
  103OSM   C15S10437   1.432   4.581   9.199  0.2900 -0.0069  0.6698
  103OSM   H15S10438   1.459   4.688   9.186  0.8496 -0.3433 -1.1736
  103OSM   H15T10439   1.325   4.574   9.170  0.7210  0.7699 -1.1919
  103OSM   C16S10440   1.517   4.514   9.098  0.4711 -1.5980 -0.4408
  103OSM   H16S10441   1.459   4.520   9.004  1.3379  0.1144 -0.8664
  103OSM   H16T10442   1.523   4.403   9.106  1.0170 -1.5798 -0.5447
  103OSM   C17S10443   1.660   4.576   9.104  0.2720  0.5215  0.2131
  103OSM   H17S10444   1.709   4.558   9.202  1.0814 -0.8776 -0.4290
  103OSM   H17T10445   1.637   4.685   9.102  1.4991  0.7771 -0.3684
  103OSM   C18S10446   1.753   4.541   8.990 -0.2563 -0.1103 -0.0862
  103OSM   H18S10447   1.787   4.436   8.984  1.4406  0.4705 -1.1021
  103OSM   H18T10448   1.840   4.610   8.999 -0.0787 -0.2225 -0.8756
  103OSM   H18U10449   1.717   4.573   8.890  2.0829  1.1407 -0.5814
  103OSM    C1F10450   1.594   4.573  10.258  1.3430  0.3840 -0.6520
  103OSM     OF10451   1.618   4.452  10.233 -0.0586 -0.4496  0.0754
  103OSM    C2F10452   1.682   4.686  10.219 -0.0981 -0.1327 -0.3206
  103OSM    H2F10453   1.695   4.748  10.310 -1.7711 -0.4263  0.1343
  103OSM    H2G10454   1.617   4.741  10.147 -1.0190 -0.8240 -0.0264
  103OSM    C3F10455   1.808   4.638  10.158 -0.7665  0.7767  0.8974
  103OSM    H3F10456   1.789   4.560  10.081 -2.3098  1.2187  0.8105
  103OSM    H3G10457   1.877   4.606  10.239  0.3843 -0.1400 -0.4021
  103OSM    C4F10458   1.886   4.758  10.093 -0.0206 -0.3598 -0.1861
  103OSM    H4F10459   1.834   4.790  10.000 -2.6528 -1.7504  0.7656
  103OSM    H4G10460   1.988   4.720  10.068 -0.3574 -1.4596  0.1161
  103OSM    C5F10461   1.905   4.876  10.188  0.5266  0.7614 -0.7899
  103OSM    H5F10462   1.922   4.853  10.295 -1.0746  1.5914 -0.3353
  103OSM    H5G10463   1.810   4.934  10.179 -0.4197 -0.3282  1.7450
  103OSM    C6F10464   2.010   4.986  10.145 -0.0495 -0.4465 -0.3696
  103OSM    H6F10465   2.108   4.946  10.113 -0.4334 -1.3319 -0.4386
  103OSM    H6G10466   2.020   5.057  10.230  1.5821  0.0213 -0.9278
  103OSM    C7F10467   1.968   5.062  10.017 -0.2021 -0.6502  0.0571
  103OSM    H7F10468   1.929   4.984   9.947  0.9320 -1.5297  0.3794
  103OSM    H7G10469   2.062   5.096   9.968 -0.1512 -1.5994 -0.5211
  103OSM    C8F10470   1.858   5.174  10.036 -0.7431  0.6456  0.0149
  103OSM    H8F10471   1.759   5.124  10.034 -0.2308 -0.3482 -1.7741
  103OSM    H8G10472   1.867   5.225   9.937  1.6903  2.1127  0.9559
  103OSM    C9F10473   1.892   5.273  10.140 -0.1402 -0.6597 -0.2015
  103OSM    H9F10474   1.840   5.254  10.235  1.3850 -0.9968  0.5860
  103OSM   C10F10475   1.999   5.358  10.134  0.5498 -0.3120 -0.1242
  103OSM   H10F10476   2.019   5.425  10.219  3.9136 -1.8707  0.3896
  103OSM   C11F10477   2.090   5.382  10.014 -0.2353  0.6625  0.5215
  103OSM   H11F10478   2.053   5.343   9.917 -0.7896 -1.4087  1.5398
  103OSM   H11G10479   2.179   5.317  10.018 -1.3931 -1.0522 -0.8000
  103OSM   C12F10480   2.119   5.532   9.996 -0.3420 -0.1751  0.6373
  103OSM   H12F10481   2.139   5.583  10.093 -0.6632 -0.1115  0.6700
  103OSM   H12G10482   2.023   5.577   9.965 -0.6825 -1.7062 -0.5416
  103OSM   C13F10483   2.235   5.549   9.893 -0.6505 -0.0405 -0.0964
  103OSM   H13F10484   2.219   5.647   9.842  0.7681  0.8788  1.1978
  103OSM   H13G10485   2.224   5.467   9.818 -1.1598  0.3595 -0.4640
  103OSM   C14F10486   2.366   5.550   9.971 -0.0401 -0.2466  1.0213
  103OSM   H14F10487   2.368   5.451  10.022 -3.4708  0.7283  3.1903
  103OSM   H14G10488   2.361   5.632  10.046  3.9860  1.9809 -0.9877
  103OSM   C15F10489   2.488   5.580   9.887  0.5491 -0.1504  0.1083
  103OSM   H15F10490   2.474   5.679   9.839  0.8633 -1.2242 -2.2290
  103OSM   H15G10491   2.505   5.494   9.819 -0.6716 -0.7528  0.5585
  103OSM   C16F10492   2.611   5.571   9.976  1.0846  0.4613 -0.3034
  103OSM   H16F10493   2.607   5.491  10.053  0.6439 -0.3492 -1.1572
  103OSM   H16G10494   2.601   5.665  10.034  1.7138 -0.5867  1.5152
  103OSM   C17F10495   2.742   5.557   9.893  0.0841 -0.2103 -0.1398
  103OSM   H17F10496   2.743   5.640   9.819 -0.0270 -0.6384 -0.6276
  103OSM   H17G10497   2.751   5.454   9.851 -1.2046 -0.6988  0.7664
  103OSM   C18F10498   2.870   5.582   9.976  0.1994 -0.5220 -0.3370
  103OSM   H18F10499   2.879   5.681  10.025 -2.0196  0.8369 -2.5581
  103OSM   H18G10500   2.962   5.569   9.915  0.8951  1.3824  0.2791
  103OSM   H18H10501   2.865   5.494  10.043  0.7396  0.5907  1.1882
  104OSM      N10502   3.220   3.952  11.275 -0.1746  0.3272 -0.1573
  104OSM    C1510503   3.163   3.983  11.412 -0.7766  1.0207  0.4611
  104OSM   H15A10504   3.244   4.012  11.477 -0.6196 -0.7336  1.0680
  104OSM   H15B10505   3.106   3.900  11.452 -0.3111 -0.1255 -1.2087
  104OSM   H15C10506   3.095   4.067  11.406 -0.2814  1.3053 -1.6791
  104OSM    C1410507   3.285   4.076  11.216  0.2013  0.7001 -0.3302
  104OSM   H14A10508   3.328   4.042  11.123  0.7010 -1.3031  0.6086
  104OSM   H14B10509   3.361   4.114  11.283 -1.9317  0.2198  2.4397
  104OSM   H14C10510   3.206   4.142  11.185 -0.5686  0.1034  0.3566
  104OSM    C1310511   3.319   3.840  11.294  0.2165 -0.0333  0.0554
  104OSM   H13A10512   3.397   3.873  11.361  1.0254 -1.6328 -0.0929
  104OSM   H13B10513   3.344   3.803  11.196  0.5948  0.0347  0.1252
  104OSM   H13C10514   3.277   3.756  11.346 -2.1565  2.0189  1.6020
  104OSM    C1210515   3.111   3.901  11.187  0.3659 -0.3495 -0.1131
  104OSM   H12A10516   3.040   3.982  11.193  0.7305  0.2119 -2.7966
  104OSM   H12B10517   3.073   3.806  11.219 -2.1116  0.4229 -0.6828
  104OSM    C1110518   3.139   3.884  11.034 -0.0742 -0.2836 -0.8985
  104OSM   H11A10519   3.149   3.982  10.982 -1.8059  0.4774  0.1740
  104OSM   H11B10520   3.048   3.835  10.995  0.8050 -1.2719 -1.7461
  104OSM      P10521   3.372   3.843  10.916 -0.7448 -0.3216 -0.1217
  104OSM    O1310522   3.441   3.948  10.988 -0.6671  0.2239  0.2452
  104OSM    O1410523   3.448   3.720  10.892  0.6956 -0.0351 -0.2853
  104OSM    O1110524   3.316   3.899  10.779  0.2913  0.8277  0.4344
  104OSM    O1210525   3.250   3.799  10.995  0.1848  0.3668 -0.5635
  104OSM    C1S10526   3.215   3.817  10.714  0.3262  0.5268  0.0520
  104OSM    H1S10527   3.114   3.826  10.761 -0.8750 -2.3873 -1.7982
  104OSM    H1T10528   3.237   3.708  10.724  1.1893  0.7477  0.5495
  104OSM     NF10529   3.091   3.771  10.509 -0.5182  0.3447 -0.2765
  104OSM    HNF10530   3.113   3.694  10.450  0.0079  0.8011 -0.6790
  104OSM    C2S10531   3.208   3.840  10.558  0.0357 -0.3371 -0.3734
  104OSM    H2S10532   3.185   3.948  10.546  1.3485  0.4963  3.6357
  104OSM    C3S10533   3.353   3.812  10.503 -0.1145  0.5868  0.2411
  104OSM    H3S10534   3.396   3.717  10.541  0.6959  0.2379 -1.5166
  104OSM     O310535   3.442   3.908  10.553  0.6767 -0.5532 -0.5308
  104OSM    HO310536   3.392   3.940  10.628  0.5110 -2.5050  0.2247
  104OSM    C4S10537   3.361   3.815  10.349  0.5397  0.2957  0.0568
  104OSM    H4S10538   3.421   3.741  10.294  0.2783  0.9652 -1.1498
  104OSM    C5S10539   3.322   3.913  10.272 -0.1033 -0.1535  0.7158
  104OSM    H5S10540   3.265   3.996  10.316 -0.5394  0.3396 -0.7196
  104OSM    C6S10541   3.340   3.920  10.118 -0.5835 -1.1015 -0.0914
  104OSM    H6S10542   3.237   3.952  10.089 -0.0182  0.6096 -0.2606
  104OSM    H6T10543   3.366   3.830  10.059  1.5026 -1.0321  0.6853
  104OSM    C7S10544   3.447   4.027  10.081  0.4474  0.4387  0.0925
  104OSM    H7S10545   3.548   3.983  10.087 -0.0318 -0.4874  1.5847
  104OSM    H7T10546   3.439   4.120  10.142  1.1458  0.8117 -0.3734
  104OSM    C8S10547   3.424   4.065   9.930 -0.3650  0.5697 -1.2049
  104OSM    H8S10548   3.372   4.163   9.938  0.3418  0.8393  0.2344
  104OSM    H8T10549   3.365   3.982   9.886 -0.5496 -0.4920  1.0011
  104OSM    C9S10550   3.555   4.082   9.855  0.3634  0.1486 -0.5876
  104OSM    H9S10551   3.620   3.992   9.866 -0.2584  0.0211  2.4383
  104OSM    H9T10552   3.601   4.172   9.901 -1.2381  1.4249 -1.4289
  104OSM   C10S10553   3.534   4.101   9.700  0.2830  0.8933 -0.3006
  104OSM   H10S10554   3.482   4.198   9.684  2.1162  2.0259  0.4613
  104OSM   H10T10555   3.462   4.023   9.668  0.9781  0.8890 -1.8547
  104OSM   C11S10556   3.662   4.106   9.614 -0.1663  0.2962  0.1260
  104OSM   H11S10557   3.715   4.009   9.618 -0.1498  0.3252  0.6615
  104OSM   H11T10558   3.738   4.168   9.666  2.7293 -3.1493  0.1751
  104OSM   C12S10559   3.621   4.160   9.480 -0.3006  0.2021 -0.2107
  104OSM   H12S10560   3.615   4.270   9.482 -1.0940  0.1816 -0.9225
  104OSM   H12T10561   3.516   4.127   9.461 -0.4267  0.2939  0.3333
  104OSM   C13S10562   3.719   4.120   9.369 -0.1975 -0.8348 -0.6323
  104OSM   H13S10563   3.721   4.010   9.350 -0.9373 -0.8706 -0.4988
  104OSM   H13T10564   3.828   4.132   9.389 -0.6660 -0.4837  1.8407
  104OSM   C14S10565   3.671   4.205   9.250 -0.6646  0.5178  0.8059
  104OSM   H14S10566   3.671   4.315   9.263  1.8924  0.7091 -0.6125
  104OSM   H14T10567   3.563   4.184   9.235 -0.9071  1.6194  0.9568
  104OSM   C15S10568   3.760   4.179   9.123  0.3824  0.0342 -0.0761
  104OSM   H15S10569   3.774   4.070   9.108 -3.1909 -0.5806  0.4715
  104OSM   H15T10570   3.861   4.211   9.156 -0.0813 -0.8083  2.2838
  104OSM   C16S10571   3.699   4.235   8.998 -0.1110  0.3212 -0.3017
  104OSM   H16S10572   3.691   4.344   9.017 -1.8220  0.1603 -0.0664
  104OSM   H16T10573   3.595   4.198   8.996 -0.5905  1.6912 -1.0504
  104OSM   C17S10574   3.766   4.194   8.868 -0.0966 -0.5226 -0.0312
  104OSM   H17S10575   3.690   4.204   8.788 -1.2577 -0.4598  1.0712
  104OSM   H17T10576   3.806   4.091   8.866 -1.4765 -1.0792 -3.5356
  104OSM   C18S10577   3.879   4.296   8.830 -0.0673  0.8088 -0.2542
  104OSM   H18S10578   3.936   4.268   8.739  0.6933 -2.1613  1.0868
  104OSM   H18T10579   3.941   4.294   8.922  0.0534 -2.1039 -0.3506
  104OSM   H18U10580   3.838   4.398   8.814 -2.4693 -0.2508 -1.0516
  104OSM    C1F10581   2.966   3.803  10.541  0.5689 -0.4563  0.5067
  104OSM     OF10582   2.933   3.902  10.606  0.1321  0.3477  0.6195
  104OSM    C2F10583   2.871   3.691  10.500  0.0861 -0.1536  0.1533
  104OSM    H2F10584   2.828   3.634  10.586 -1.5543 -0.6201 -0.9531
  104OSM    H2G10585   2.932   3.612  10.452  0.9233  0.2365  0.5641
  104OSM    C3F10586   2.759   3.723  10.396  0.4236 -0.0498 -0.2303
  104OSM    H3F10587   2.697   3.808  10.431 -0.5946 -0.2155 -1.5842
  104OSM    H3G10588   2.706   3.626  10.387  0.6095 -0.2588  0.8626
  104OSM    C4F10589   2.812   3.755  10.254 -0.6572 -1.0670  0.3273
  104OSM    H4F10590   2.732   3.724  10.183  0.3966  1.0104 -1.8443
  104OSM    H4G10591   2.894   3.681  10.239  1.3607  0.6414  2.4353
  104OSM    C5F10592   2.865   3.890  10.220 -0.4513  0.2767 -0.2833
  104OSM    H5F10593   2.956   3.912  10.278  0.2507  1.1053 -1.6689
  104OSM    H5G10594   2.788   3.963  10.253 -1.4914 -0.8408 -0.2195
  104OSM    C6F10595   2.875   3.917  10.062  0.1343 -0.0618  0.4592
  104OSM    H6F10596   2.917   4.019  10.049 -3.3020  1.6438  2.3057
  104OSM    H6G10597   2.778   3.910  10.009  0.0984 -3.4965  0.8723
  104OSM    C7F10598   2.970   3.815   9.989 -0.4156 -0.1758 -0.1227
  104OSM    H7F10599   2.930   3.712  10.001  1.0451 -0.7465 -0.1255
  104OSM    H7G10600   3.071   3.821  10.034 -0.1209 -0.5502 -0.7216
  104OSM    C8F10601   2.972   3.829   9.832  0.0068 -0.1178  0.3068
  104OSM    H8F10602   3.005   3.934   9.813  0.7557 -0.4701 -0.4198
  104OSM    H8G10603   2.865   3.820   9.804  0.5756  0.5202 -2.2976
  104OSM    C9F10604   3.062   3.735   9.753  0.0916 -0.4973 -0.5015
  104OSM    H9F10605   3.080   3.632   9.786  1.8193 -1.2051 -3.4408
  104OSM   C10F10606   3.136   3.768   9.650  0.3034  0.1416 -0.3109
  104OSM   H10F10607   3.198   3.692   9.600 -1.0320 -0.1066 -1.6396
  104OSM   C11F10608   3.133   3.906   9.587 -0.6883  0.1624 -0.4801
  104OSM   H11F10609   3.201   3.980   9.636  0.6858 -1.6735  0.4338
  104OSM   H11G10610   3.035   3.957   9.602 -0.0353  1.1091  0.7263
  104OSM   C12F10611   3.175   3.913   9.435 -1.2259  0.0998  0.8756
  104OSM   H12F10612   3.177   4.018   9.399  0.5272  0.1888  1.2162
  104OSM   H12G10613   3.108   3.853   9.369 -0.0743  0.0326 -0.2627
  104OSM   C13F10614   3.320   3.860   9.416  0.1865  0.8930  0.2532
  104OSM   H13F10615   3.326   3.751   9.394 -0.6800  0.4237  2.3108
  104OSM   H13G10616   3.385   3.885   9.502  0.6541 -0.7614  0.4053
  104OSM   C14F10617   3.392   3.923   9.298 -0.4222 -0.5335  0.0104
  104OSM   H14F10618   3.501   3.915   9.315 -0.8408 -1.9593  2.2352
  104OSM   H14G10619   3.364   4.031   9.296 -0.6904 -0.6196 -1.4185
  104OSM   C15F10620   3.363   3.859   9.157  0.1539  0.0615 -0.4216
  104OSM   H15F10621   3.268   3.892   9.110 -0.2909  1.2814  1.3174
  104OSM   H15G10622   3.352   3.751   9.180 -0.8347 -0.1280 -1.7187
  104OSM   C16F10623   3.478   3.882   9.068 -0.3070 -0.4286  0.3587
  104OSM   H16F10624   3.570   3.865   9.128 -0.2585  0.9621  0.7028
  104OSM   H16G10625   3.485   3.988   9.036 -0.1247 -0.2489  0.9853
  104OSM   C17F10626   3.480   3.792   8.948 -0.2975  0.2841 -0.1428
  104OSM   H17F10627   3.396   3.818   8.879  0.6517  2.5788 -0.4921
  104OSM   H17G10628   3.474   3.682   8.962 -1.1446  0.3148 -0.2491
  104OSM   C18F10629   3.604   3.818   8.861  0.3494  0.0872  0.1781
  104OSM   H18F10630   3.613   3.755   8.769 -1.6391  1.6435 -1.1283
  104OSM   H18G10631   3.694   3.797   8.922  0.5233 -0.7587 -0.3523
  104OSM   H18H10632   3.603   3.924   8.830 -1.3610  0.0357  0.0067
  105OSM      N10633   6.547   0.214  10.887  0.8198  0.7775 -0.5861
  105OSM    C1510634   6.517   0.334  10.804 -0.2699  0.0320  0.3046
  105OSM   H15A10635   6.522   0.423  10.865  1.8468 -1.3024  2.1472
  105OSM   H15B10636   6.420   0.323  10.758 -0.2804 -0.5256  0.4556
  105OSM   H15C10637   6.590   0.343  10.724  0.1190  2.4681  0.8976
  105OSM    C1410638   6.685   0.239  10.938  0.0313 -0.3755  0.4699
  105OSM   H14A10639   6.755   0.245  10.855 -1.6973 -0.1114 -1.0131
  105OSM   H14B10640   6.712   0.152  10.996 -0.1773 -0.6427  0.1698
  105OSM   H14C10641   6.694   0.324  11.004  0.8565  1.4531 -1.8986
  105OSM    C1310642   6.454   0.212  11.000  0.3291  0.4221 -0.1673
  105OSM   H13A10643   6.353   0.218  10.961 -0.3759 -0.4787  1.4569
  105OSM   H13B10644   6.464   0.294  11.069 -0.8245 -1.1531  1.9660
  105OSM   H13C10645   6.451   0.116  11.050 -0.6205  0.1606 -0.7127
  105OSM    C1210646   6.533   0.087  10.802  0.0144  0.2884 -0.2058
  105OSM   H12A10647   6.545   0.007  10.874 -2.3313 -1.7354 -1.9948
  105OSM   H12B10648   6.610   0.083  10.726  2.8406  2.8386  2.4067
  105OSM    C1110649   6.389   0.058  10.750  0.6424 -0.1861 -0.6191
  105OSM   H11A10650   6.410  -0.006  10.662  2.9783 -0.2943 -0.0195
  105OSM   H11B10651   6.350   0.155  10.711 -0.8454  0.2649  1.8534
  105OSM      P10652   6.323  -0.156  10.879  0.0989  0.2728 -0.0916
  105OSM    O1310653   6.456  -0.170  10.949  0.1311  0.4908  0.7132
  105OSM    O1410654   6.209  -0.215  10.953 -0.0915 -0.3030  0.0390
  105OSM    O1110655   6.334  -0.217  10.738 -0.0300 -0.7134  0.7127
  105OSM    O1210656   6.303  -0.002  10.848  0.1420  0.4476 -0.1467
  105OSM    C1S10657   6.220  -0.205  10.650  0.2170 -0.4236 -0.2399
  105OSM    H1S10658   6.172  -0.105  10.656 -0.3941 -0.6958 -0.4996
  105OSM    H1T10659   6.139  -0.275  10.681 -0.7617 -0.5260 -2.8972
  105OSM     NF10660   6.167  -0.127  10.414 -0.0684 -0.0384  0.0182
  105OSM    HNF10661   6.091  -0.178  10.376  0.3829 -1.8409  1.4862
  105OSM    C2S10662   6.261  -0.208  10.495  0.3834  0.1861  0.5711
  105OSM    H2S10663   6.362  -0.161  10.494 -0.7487  2.7187  0.0202
  105OSM    C3S10664   6.275  -0.356  10.462  1.2169  0.3613 -0.4891
  105OSM    H3S10665   6.175  -0.404  10.471  1.4212  0.4607  3.4093
  105OSM     O310666   6.358  -0.423  10.559  0.0089 -0.3694  0.3281
  105OSM    HO310667   6.402  -0.358  10.614 -0.3564  0.4162 -0.3080
  105OSM    C4S10668   6.322  -0.373  10.317  0.5427  0.3037 -0.1381
  105OSM    H4S10669   6.237  -0.366  10.248 -1.3878 -1.3665  1.9985
  105OSM    C5S10670   6.443  -0.399  10.269 -0.1590  0.5940 -0.5713
  105OSM    H5S10671   6.526  -0.413  10.340 -2.7437 -1.0259  2.2596
  105OSM    C6S10672   6.471  -0.418  10.122  0.7106  0.4991 -0.6943
  105OSM    H6S10673   6.521  -0.515  10.100 -0.3984  0.4613 -3.1868
  105OSM    H6T10674   6.543  -0.338  10.094  0.4191 -0.2244 -3.6343
  105OSM    C7S10675   6.351  -0.395  10.016  0.2927  0.4754  0.3093
  105OSM    H7S10676   6.305  -0.298  10.046  3.1748  1.7542  0.7766
  105OSM    H7T10677   6.277  -0.477  10.024  1.3158 -0.3716  1.0672
  105OSM    C8S10678   6.406  -0.390   9.875  0.1172  0.1900  0.4378
  105OSM    H8S10679   6.460  -0.484   9.850  1.3310  0.8448  0.5164
  105OSM    H8T10680   6.484  -0.311   9.865 -2.4821  3.0813  2.0094
  105OSM    C9S10681   6.298  -0.356   9.773  0.4332  0.9425  0.0402
  105OSM    H9S10682   6.259  -0.255   9.798 -1.2867  0.7620 -1.8603
  105OSM    H9T10683   6.210  -0.422   9.784 -0.5632  2.1441 -0.5997
  105OSM   C10S10684   6.345  -0.365   9.631 -0.0285  0.1847 -0.4242
  105OSM   H10S10685   6.390  -0.464   9.610  0.4778 -0.3738  2.9333
  105OSM   H10T10686   6.422  -0.287   9.613  0.1164 -0.0182 -0.6733
  105OSM   C11S10687   6.239  -0.335   9.530  0.2095 -0.2032 -0.3253
  105OSM   H11S10688   6.193  -0.238   9.559  0.3598 -0.5456  1.1309
  105OSM   H11T10689   6.155  -0.407   9.544  1.3592 -1.1596  2.0676
  105OSM   C12S10690   6.278  -0.341   9.381 -0.4438  0.4238 -0.3545
  105OSM   H12S10691   6.311  -0.447   9.374  2.1201  1.0815  0.9414
  105OSM   H12T10692   6.361  -0.273   9.354  0.3459 -0.2619  0.3069
  105OSM   C13S10693   6.171  -0.327   9.277 -0.0488  0.1328  0.6585
  105OSM   H13S10694   6.157  -0.218   9.268 -0.8211  0.0509  0.7911
  105OSM   H13T10695   6.081  -0.379   9.318 -2.2619  1.6245 -2.1423
  105OSM   C14S10696   6.215  -0.395   9.146 -1.0053 -0.3919 -0.5060
  105OSM   H14S10697   6.256  -0.496   9.168 -2.4925 -1.2829 -1.7175
  105OSM   H14T10698   6.289  -0.326   9.101 -0.4675 -0.4672  0.2601
  105OSM   C15S10699   6.096  -0.413   9.052  0.7018  0.2638 -0.1249
  105OSM   H15S10700   6.010  -0.475   9.086  2.1746 -1.8119 -0.0390
  105OSM   H15T10701   6.132  -0.477   8.969 -0.9802  0.3361 -0.9213
  105OSM   C16S10702   6.036  -0.282   8.991  0.1032 -0.9626  0.1210
  105OSM   H16S10703   6.121  -0.231   8.942 -0.3955  0.1919  0.4330
  105OSM   H16T10704   6.015  -0.214   9.077 -0.4308 -0.8172 -0.1256
  105OSM   C17S10705   5.921  -0.291   8.892  0.0511  0.3605 -0.0673
  105OSM   H17S10706   5.885  -0.191   8.862  0.6790 -0.1983 -2.8724
  105OSM   H17T10707   5.840  -0.343   8.948 -0.2732  2.2687  1.2563
  105OSM   C18S10708   5.953  -0.374   8.763  0.3653 -0.2068  0.4953
  105OSM   H18S10709   5.860  -0.381   8.702  0.8871  0.7056 -0.4367
  105OSM   H18T10710   5.989  -0.476   8.784 -1.0151 -0.5755  1.1373
  105OSM   H18U10711   6.028  -0.307   8.716 -1.1597  0.0546 -1.6621
  105OSM    C1F10712   6.164   0.008  10.426  0.2283 -0.2910 -0.3804
  105OSM     OF10713   6.256   0.078  10.464  0.1490 -0.2146 -0.0003
  105OSM    C2F10714   6.035   0.077  10.391 -0.5356  0.2479 -1.0262
  105OSM    H2F10715   6.018   0.120  10.492 -1.2163 -1.5969 -0.3354
  105OSM    H2G10716   5.961   0.003  10.356 -0.3996 -0.0337 -0.7231
  105OSM    C3F10717   6.061   0.187  10.294 -0.6042 -1.2232  0.5274
  105OSM    H3F10718   6.153   0.246  10.313 -0.5306 -1.5847  1.3258
  105OSM    H3G10719   5.969   0.248  10.306 -0.0654 -0.4584  0.7789
  105OSM    C4F10720   6.073   0.132  10.152  0.0337  0.0510 -0.7851
  105OSM    H4F10721   5.987   0.066  10.130  1.5736 -1.8637 -1.1829
  105OSM    H4G10722   6.161   0.064  10.147 -0.1510 -0.1062 -2.2148
  105OSM    C5F10723   6.094   0.237  10.041  0.2389 -0.4567  0.1278
  105OSM    H5F10724   6.173   0.313  10.061 -1.5369  2.1466 -2.2820
  105OSM    H5G10725   6.016   0.317  10.037  1.0358  0.2752 -1.1631
  105OSM    C6F10726   6.110   0.173   9.900 -0.2158  0.0518 -0.1678
  105OSM    H6F10727   6.016   0.119   9.875 -1.3618  1.9414 -0.0550
  105OSM    H6G10728   6.187   0.093   9.906 -1.6441 -1.3533 -0.4298
  105OSM    C7F10729   6.143   0.262   9.783 -0.1899  0.1151 -0.2526
  105OSM    H7F10730   6.213   0.333   9.832 -0.5763  0.2104  0.1649
  105OSM    H7G10731   6.052   0.320   9.755 -0.5734 -0.6984 -0.6958
  105OSM    C8F10732   6.211   0.191   9.661  0.2515 -0.3362  0.7579
  105OSM    H8F10733   6.290   0.130   9.709 -1.3533 -2.8145  0.3423
  105OSM    H8G10734   6.258   0.269   9.598 -1.2218 -2.0655 -2.5977
  105OSM    C9F10735   6.118   0.112   9.577  0.2599  0.3564 -1.0122
  105OSM    H9F10736   6.023   0.076   9.620  0.4519  0.0589 -0.8338
  105OSM   C10F10737   6.134   0.079   9.450  0.5598 -0.3568 -0.5120
  105OSM   H10F10738   6.072   0.006   9.395  2.4270 -1.2660 -1.4640
  105OSM   C11F10739   6.260   0.118   9.371  0.5408 -0.5782 -1.0570
  105OSM   H11F10740   6.342   0.136   9.445 -1.4039  0.6991  0.8438
  105OSM   H11G10741   6.236   0.216   9.324  0.7989  1.1854  2.3108
  105OSM   C12F10742   6.307   0.025   9.257 -0.4298 -0.1129 -0.5897
  105OSM   H12F10743   6.219  -0.016   9.202 -1.9472  2.3640 -0.0569
  105OSM   H12G10744   6.342  -0.065   9.311  1.3892 -0.2991 -2.0204
  105OSM   C13F10745   6.420   0.088   9.174  0.1603  0.2628  0.1056
  105OSM   H13F10746   6.467   0.161   9.244  1.8881 -1.1458  0.4619
  105OSM   H13G10747   6.386   0.149   9.088  2.1537  0.3644 -0.6264
  105OSM   C14F10748   6.527  -0.014   9.132  0.0703 -0.1391 -0.3436
  105OSM   H14F10749   6.543  -0.068   9.228  0.9091 -2.1361 -1.5835
  105OSM   H14G10750   6.624   0.038   9.115 -0.0623 -0.3735 -1.8553
  105OSM   C15F10751   6.478  -0.106   9.026  0.4059 -0.3364 -0.6414
  105OSM   H15F10752   6.476  -0.045   8.933 -2.3226 -1.6610 -1.4859
  105OSM   H15G10753   6.370  -0.121   9.047  0.5434 -1.4100 -0.6667
  105OSM   C16F10754   6.560  -0.239   9.018 -0.0633 -0.4234 -0.4334
  105OSM   H16F10755   6.536  -0.295   9.111 -2.0804  1.1297  0.0199
  105OSM   H16G10756   6.667  -0.209   9.017  0.1409 -0.8683  2.7572
  105OSM   C17F10757   6.528  -0.322   8.892  0.3105 -0.7215 -0.4676
  105OSM   H17F10758   6.530  -0.256   8.803 -0.5137 -0.5362 -0.3560
  105OSM   H17G10759   6.421  -0.353   8.900  0.1243 -0.2895 -1.2407
  105OSM   C18F10760   6.611  -0.448   8.870  0.5469  0.5093 -0.1616
  105OSM   H18F10761   6.580  -0.509   8.783 -0.5390 -0.1461  0.6668
  105OSM   H18G10762   6.621  -0.515   8.958  3.9778  0.7767 -0.2796
  105OSM   H18H10763   6.717  -0.423   8.852  0.0473  0.6904 -3.1009
  106OSM      N10764   4.686   6.504  10.911 -0.3428 -0.6381  0.1313
  106OSM    C1510765   4.759   6.416  11.007  0.5606  0.3990  0.2559
  106OSM   H15A10766   4.728   6.313  11.013 -1.4424  0.9425 -0.2342
  106OSM   H15B10767   4.741   6.447  11.109 -0.1609 -0.5188  0.4178
  106OSM   H15C10768   4.865   6.410  10.990  0.3539 -0.1756 -0.8592
  106OSM    C1410769   4.540   6.475  10.920 -0.1071  0.1753  0.5047
  106OSM   H14A10770   4.524   6.369  10.907  0.2462  0.4118 -2.1138
  106OSM   H14B10771   4.479   6.527  10.847 -3.1218 -0.8832  2.1746
  106OSM   H14C10772   4.498   6.503  11.016  0.8629  0.1738  0.9414
  106OSM    C1310773   4.715   6.649  10.949  0.3431  0.6980 -0.3392
  106OSM   H13A10774   4.819   6.663  10.974  0.4026 -0.2570 -0.0269
  106OSM   H13B10775   4.652   6.670  11.035 -1.1196 -2.1318 -0.6549
  106OSM   H13C10776   4.686   6.713  10.867  1.6401  0.9150 -0.6322
  106OSM    C1210777   4.739   6.474  10.771  0.5541 -0.2001 -0.1893
  106OSM   H12A10778   4.681   6.525  10.695  1.8302  0.4527 -0.7327
  106OSM   H12B10779   4.711   6.372  10.747 -1.0436  0.4584 -1.2007
  106OSM    C1110780   4.882   6.502  10.738  1.0191 -0.1779 -0.4235
  106OSM   H11A10781   4.910   6.610  10.734  0.3629  0.0357  0.6503
  106OSM   H11B10782   4.900   6.459  10.637  0.2736 -0.0813 -0.5985
  106OSM      P10783   5.120   6.488  10.878  0.0820 -0.1437 -0.1547
  106OSM    O1310784   5.101   6.587  10.987 -0.0717 -0.0221  0.2941
  106OSM    O1410785   5.199   6.370  10.914  0.1544 -0.0226 -0.4703
  106OSM    O1110786   5.188   6.556  10.750  0.1306 -1.0083  0.5521
  106OSM    O1210787   4.976   6.437  10.827  0.0220  0.3519  0.2235
  106OSM    C1S10788   5.250   6.496  10.640 -0.3580  0.4985 -0.1470
  106OSM    H1S10789   5.204   6.399  10.612  1.2499 -0.0861 -0.8663
  106OSM    H1T10790   5.359   6.482  10.654 -0.7312 -3.2446 -0.5282
  106OSM     NF10791   5.239   6.509  10.390  0.6099 -0.5790  0.7338
  106OSM    HNF10792   5.299   6.550  10.322  0.5075 -2.4072 -0.4911
  106OSM    C2S10793   5.214   6.581  10.518  0.5853 -0.2496 -0.2113
  106OSM    H2S10794   5.108   6.615  10.527  0.6252 -0.7286  2.5564
  106OSM    C3S10795   5.291   6.718  10.525  0.3981  1.2114 -0.4624
  106OSM    H3S10796   5.399   6.692  10.524  0.0059 -0.5385  0.1318
  106OSM     O310797   5.260   6.803  10.633  0.0338  0.3833  0.1444
  106OSM    HO310798   5.229   6.733  10.692  4.2478 -2.2599 -0.5503
  106OSM    C4S10799   5.268   6.797  10.392  0.7230 -0.0442 -0.4393
  106OSM    H4S10800   5.354   6.799  10.324  0.3533 -0.7604 -0.9305
  106OSM    C5S10801   5.162   6.868  10.350  0.1111 -0.9736  0.4252
  106OSM    H5S10802   5.075   6.874  10.416 -0.2570 -1.8180  0.0210
  106OSM    C6S10803   5.160   6.951  10.228  0.0540 -0.3939  0.8134
  106OSM    H6S10804   5.228   7.038  10.248 -0.0087 -0.6723  2.2956
  106OSM    H6T10805   5.057   6.991  10.221  0.9774  1.4758 -3.2949
  106OSM    C7S10806   5.185   6.878  10.087  0.0085  0.7644 -0.4837
  106OSM    H7S10807   5.114   6.793  10.078  2.0562 -1.0143 -0.1186
  106OSM    H7T10808   5.289   6.839  10.093 -1.4118 -3.2424 -0.1218
  106OSM    C8S10809   5.164   6.983   9.972  0.1506  0.0260  0.0409
  106OSM    H8S10810   5.179   7.085  10.014  0.8795 -0.8680  2.0211
  106OSM    H8T10811   5.061   6.964   9.937  0.5726 -2.5476  0.1248
  106OSM    C9S10812   5.275   6.963   9.859 -0.1113  0.0674 -0.2405
  106OSM    H9S10813   5.284   6.856   9.830 -0.2165 -0.1700  0.5831
  106OSM    H9T10814   5.373   7.005   9.891 -1.4096  2.4047  0.7907
  106OSM   C10S10815   5.221   7.032   9.734  0.2841  0.0508  0.2552
  106OSM   H10S10816   5.312   7.092   9.711  1.7986 -1.4722  2.1042
  106OSM   H10T10817   5.142   7.108   9.755 -0.1662  0.1510 -1.6985
  106OSM   C11S10818   5.183   6.932   9.620 -0.0467  0.0317 -0.2429
  106OSM   H11S10819   5.091   6.873   9.638  1.0254 -1.4813  0.3745
  106OSM   H11T10820   5.262   6.853   9.617  0.1421  0.1057  1.9149
  106OSM   C12S10821   5.167   7.002   9.483  0.0418 -0.6200 -0.6180
  106OSM   H12S10822   5.151   7.110   9.506  1.0474 -0.3538 -1.1241
  106OSM   H12T10823   5.069   6.973   9.441 -0.9388  0.2360  1.0326
  106OSM   C13S10824   5.286   6.977   9.385 -0.2086 -0.3052 -0.1571
  106OSM   H13S10825   5.275   6.869   9.360  3.1270 -1.0239  1.2297
  106OSM   H13T10826   5.377   6.979   9.448 -0.6750 -1.7436  0.5976
  106OSM   C14S10827   5.299   7.056   9.259 -0.1875 -0.2257 -0.1879
  106OSM   H14S10828   5.401   7.032   9.221  0.2718  1.2565  0.0742
  106OSM   H14T10829   5.291   7.166   9.275  0.1723 -0.2421  0.1066
  106OSM   C15S10830   5.207   7.002   9.142  0.7735  0.7159 -0.2003
  106OSM   H15S10831   5.105   7.043   9.163  0.4268 -0.3669  0.2517
  106OSM   H15T10832   5.207   6.891   9.143 -0.9547  0.6975  0.8919
  106OSM   C16S10833   5.243   7.052   9.006  0.1152  0.0107  0.1287
  106OSM   H16S10834   5.243   7.163   9.018 -2.6391 -0.0317  0.7692
  106OSM   H16T10835   5.161   7.036   8.933 -0.2665  2.1200  0.0477
  106OSM   C17S10836   5.376   7.010   8.942  0.0725  0.4370  0.3483
  106OSM   H17S10837   5.386   6.899   8.947  0.9857  0.5441  0.9863
  106OSM   H17T10838   5.459   7.062   8.994 -2.0762  2.5139  1.8283
  106OSM   C18S10839   5.398   7.052   8.791 -0.3332  0.1261 -0.6685
  106OSM   H18S10840   5.397   7.161   8.771  0.3772 -0.1891 -2.5168
  106OSM   H18T10841   5.315   7.009   8.731 -1.0360  0.0429  0.3497
  106OSM   H18U10842   5.490   7.009   8.747 -0.5227 -2.0077  0.9138
  106OSM    C1F10843   5.167   6.403  10.350  0.3048  0.8413  0.7008
  106OSM     OF10844   5.062   6.373  10.410  0.0948  0.0235  0.1937
  106OSM    C2F10845   5.208   6.342  10.224  0.2816 -0.1061 -0.0851
  106OSM    H2F10846   5.310   6.303  10.248 -0.0975 -0.9731  0.1099
  106OSM    H2G10847   5.206   6.418  10.142 -2.7352  0.2950  0.3315
  106OSM    C3F10848   5.124   6.227  10.175 -0.4644 -0.2991  0.5165
  106OSM    H3F10849   5.017   6.253  10.190 -0.7089 -0.7153 -0.4213
  106OSM    H3G10850   5.146   6.130  10.224  0.4791 -0.7278 -0.7333
  106OSM    C4F10851   5.153   6.189  10.027 -0.0501  0.5869  0.3497
  106OSM    H4F10852   5.118   6.088   9.996 -0.2045  0.1624  1.8873
  106OSM    H4G10853   5.261   6.166  10.018  0.0070  1.0372 -0.1732
  106OSM    C5F10854   5.104   6.285   9.920  0.1308 -0.0198 -0.7855
  106OSM    H5F10855   5.175   6.371   9.922 -1.0530  1.0013 -1.6494
  106OSM    H5G10856   5.004   6.325   9.946 -1.3622 -3.0654 -1.5847
  106OSM    C6F10857   5.101   6.216   9.788  0.7065  0.5225  0.9108
  106OSM    H6F10858   5.029   6.132   9.791  1.6404 -0.2506  1.8524
  106OSM    H6G10859   5.206   6.182   9.777  0.6765  0.3714  1.0957
  106OSM    C7F10860   5.061   6.319   9.675  0.0953  0.3260 -0.2386
  106OSM    H7F10861   5.122   6.412   9.682 -1.5481  1.3654  0.6592
  106OSM    H7G10862   4.960   6.361   9.696  0.7335  0.9573  1.7098
  106OSM    C8F10863   5.057   6.245   9.545  0.0270  0.2131  0.0490
  106OSM    H8F10864   5.000   6.150   9.558 -2.5561  1.2950 -2.7971
  106OSM    H8G10865   5.159   6.209   9.524 -0.4331 -0.2798 -1.3659
  106OSM    C9F10866   4.991   6.335   9.445  0.1676 -1.1271  0.0358
  106OSM    H9F10867   4.892   6.373   9.476  0.1920 -1.0022 -0.0369
  106OSM   C10F10868   5.032   6.360   9.319 -0.0830  0.2504 -0.5254
  106OSM   H10F10869   4.978   6.429   9.252 -1.2833 -1.8207 -1.7495
  106OSM   C11F10870   5.154   6.301   9.258  0.3579  0.0819  0.1332
  106OSM   H11F10871   5.222   6.259   9.335 -1.2328 -1.4006  0.7585
  106OSM   H11G10872   5.215   6.378   9.206  1.5503  1.3609  3.2795
  106OSM   C12F10873   5.138   6.181   9.156 -1.0738 -0.5792 -0.5651
  106OSM   H12F10874   5.047   6.207   9.099  0.2850  3.1936 -1.1478
  106OSM   H12G10875   5.118   6.095   9.224 -3.1750 -1.5006 -2.2801
  106OSM   C13F10876   5.250   6.154   9.061  0.4758  0.8184  0.6060
  106OSM   H13F10877   5.347   6.161   9.116  1.3910  0.4856 -0.9518
  106OSM   H13G10878   5.252   6.243   8.996 -2.8063 -1.0945 -2.3028
  106OSM   C14F10879   5.229   6.030   8.977  0.2231 -0.6045  0.3871
  106OSM   H14F10880   5.135   6.044   8.920  0.1978 -1.5686  0.1881
  106OSM   H14G10881   5.207   5.938   9.035  1.5234 -0.8292  0.5481
  106OSM   C15F10882   5.348   5.988   8.881 -0.4571 -1.1353 -0.1383
  106OSM   H15F10883   5.448   6.007   8.925 -0.1050  1.1169 -1.8148
  106OSM   H15G10884   5.342   6.055   8.792  2.2885  0.1852  0.6415
  106OSM   C16F10885   5.317   5.848   8.822 -0.8963 -0.6300 -0.1321
  106OSM   H16F10886   5.218   5.857   8.773 -0.7914 -0.0608 -0.2414
  106OSM   H16G10887   5.303   5.776   8.905 -0.7548  1.2911  1.5910
  106OSM   C17F10888   5.407   5.793   8.711  0.0810 -0.5819 -0.0526
  106OSM   H17F10889   5.355   5.705   8.667 -1.1815 -0.9869  2.1926
  106OSM   H17G10890   5.509   5.771   8.750  0.7939  0.4395 -1.2998
  106OSM   C18F10891   5.429   5.882   8.585 -0.0075  0.2222  0.1753
  106OSM   H18F10892   5.500   5.966   8.604  0.9964 -0.3211 -1.1536
  106OSM   H18G10893   5.327   5.918   8.562 -0.8079 -1.8194  0.4426
  106OSM   H18H10894   5.482   5.819   8.511  1.5495  0.4770  1.0516
  107OSM      N10895   1.122   4.140  11.007  0.0454  0.0086  0.2161
  107OSM    C1510896   1.231   4.057  11.069 -0.3495  0.1428 -0.7386
  107OSM   H15A10897   1.323   4.079  11.017  0.9606  0.0585  1.5284
  107OSM   H15B10898   1.201   3.954  11.058 -0.6587  0.1695 -0.1697
  107OSM   H15C10899   1.240   4.067  11.176 -3.2998 -0.6955 -0.3754
  107OSM    C1410900   1.003   4.137  11.097 -0.1211 -0.3253  0.1462
  107OSM   H14A10901   1.023   4.177  11.196 -1.3314  0.4977  0.0692
  107OSM   H14B10902   0.977   4.033  11.107  2.4409 -1.1879 -1.6115
  107OSM   H14C10903   0.932   4.203  11.051  1.2518  0.9152 -0.2367
  107OSM    C1310904   1.174   4.280  10.979  0.2021 -0.1904  0.3180
  107OSM   H13A10905   1.259   4.284  10.913 -1.2086  0.0924 -1.4995
  107OSM   H13B10906   1.216   4.320  11.070 -0.2133  1.3979 -0.1723
  107OSM   H13C10907   1.098   4.339  10.931  0.9015 -0.5015 -1.2061
  107OSM    C1210908   1.070   4.093  10.869 -0.0155 -0.2616  0.2758
  107OSM   H12A10909   1.149   4.108  10.796 -0.0645 -2.2290 -0.2111
  107OSM   H12B10910   0.990   4.159  10.838  0.3441 -0.0888 -0.3012
  107OSM    C1110911   1.019   3.949  10.857 -0.3554 -0.4421 -0.1674
  107OSM   H11A10912   0.963   3.946  10.762 -0.9388 -0.7019  0.1775
  107OSM   H11B10913   0.955   3.925  10.945 -0.3559  0.0987 -0.0191
  107OSM      P10914   1.240   3.851  10.750  0.2076  0.3928 -0.2232
  107OSM    O1310915   1.369   3.810  10.816 -0.1522  0.0948 -0.2195
  107OSM    O1410916   1.203   3.774  10.628  0.1997 -0.1623 -0.7797
  107OSM    O1110917   1.257   3.998  10.685 -0.7487  0.4130 -0.3794
  107OSM    O1210918   1.128   3.854  10.861 -0.4409 -0.0794 -0.0797
  107OSM    C1S10919   1.359   4.051  10.605 -0.6399 -0.0961 -0.4687
  107OSM    H1S10920   1.459   4.007  10.621 -0.5849  0.7997  1.8958
  107OSM    H1T10921   1.383   4.157  10.629  3.6149 -1.3565  1.1535
  107OSM     NF10922   1.423   4.077  10.371 -0.1539 -0.3431 -0.2610
  107OSM    HNF10923   1.401   4.143  10.299  0.6820 -0.7154 -0.8576
  107OSM    C2S10924   1.318   4.038  10.458 -0.1611 -0.0558  0.4692
  107OSM    H2S10925   1.305   3.932  10.426 -1.1153 -0.0063  0.7049
  107OSM    C3S10926   1.176   4.111  10.433  0.0634 -0.4069 -0.6267
  107OSM    H3S10927   1.186   4.214  10.474 -0.3156 -0.9575  0.8804
  107OSM     O310928   1.059   4.054  10.499 -0.2303 -0.1282  0.3648
  107OSM    HO310929   1.092   3.987  10.559 -1.4718  0.3090  1.5695
  107OSM    C4S10930   1.150   4.137  10.283  0.2624 -0.1044 -0.4747
  107OSM    H4S10931   1.186   4.230  10.237  0.3996 -0.6945 -1.5900
  107OSM    C5S10932   1.069   4.063  10.204  0.2486 -0.3907 -0.1766
  107OSM    H5S10933   1.019   3.972  10.241 -0.7452 -0.5106 -1.7721
  107OSM    C6S10934   1.032   4.104  10.061  0.1228  0.4045 -0.1915
  107OSM    H6S10935   1.103   4.186  10.038  1.6801 -1.0929 -0.8810
  107OSM    H6T10936   0.934   4.155  10.059 -0.3545 -0.3790  1.9498
  107OSM    C7S10937   1.039   3.977   9.965 -0.1937 -0.1154  0.2425
  107OSM    H7S10938   0.988   3.886  10.003  0.9028 -0.8445 -0.0212
  107OSM    H7T10939   1.147   3.955   9.952 -0.3870 -1.2977  0.6155
  107OSM    C8S10940   0.970   4.017   9.836 -0.2453  0.2516  1.0101
  107OSM    H8S10941   1.016   4.105   9.787 -1.2091 -0.4670 -1.2465
  107OSM    H8T10942   0.866   4.048   9.860  0.3759  3.2426 -0.0145
  107OSM    C9S10943   0.976   3.900   9.725  0.2757  0.0394  0.6154
  107OSM    H9S10944   0.924   3.813   9.770 -2.7379  1.1025 -0.6357
  107OSM    H9T10945   1.085   3.884   9.715  0.5243  0.6552  2.1401
  107OSM   C10S10946   0.911   3.941   9.594  0.2679  0.1545  0.0025
  107OSM   H10S10947   0.946   4.046   9.584 -0.1232  0.1482 -1.4822
  107OSM   H10T10948   0.801   3.929   9.604  0.2917  0.3670  0.5122
  107OSM   C11S10949   0.967   3.859   9.472 -0.7354 -0.6736 -0.5610
  107OSM   H11S10950   0.928   3.756   9.486  0.2314 -0.8149  1.1949
  107OSM   H11T10951   1.077   3.866   9.478 -0.7625  2.3998 -2.6158
  107OSM   C12S10952   0.909   3.900   9.336  0.1364  0.3301 -0.2430
  107OSM   H12S10953   0.898   4.010   9.340  1.3758  0.4127  1.3438
  107OSM   H12T10954   0.810   3.849   9.330 -0.4266  1.2866  0.8410
  107OSM   C13S10955   0.996   3.846   9.216 -0.3198  0.8765  0.1216
  107OSM   H13S10956   0.979   3.736   9.218 -2.7120  1.2190  2.4724
  107OSM   H13T10957   1.098   3.883   9.238 -0.2924  0.0670  1.3811
  107OSM   C14S10958   0.940   3.915   9.088 -0.1034 -0.0598  0.0938
  107OSM   H14S10959   0.927   4.026   9.096  1.8618  0.2697 -0.9468
  107OSM   H14T10960   0.840   3.873   9.067 -0.3859  0.9345 -0.6196
  107OSM   C15S10961   1.032   3.881   8.972  0.3436  0.0086  0.5662
  107OSM   H15S10962   1.055   3.773   8.966  3.5285  0.6264  0.7019
  107OSM   H15T10963   1.129   3.926   9.002  0.6559  0.7600 -1.4598
  107OSM   C16S10964   0.992   3.951   8.840 -0.6032  0.4148 -0.1328
  107OSM   H16S10965   1.003   4.060   8.857  0.4588  0.2313  0.3892
  107OSM   H16T10966   0.887   3.915   8.837 -0.6049 -0.3980  4.8737
  107OSM   C17S10967   1.078   3.892   8.730  0.1158 -0.6962  0.1455
  107OSM   H17S10968   1.046   3.787   8.712 -0.0082 -0.6951  0.3589
  107OSM   H17T10969   1.183   3.888   8.767  0.2753 -2.7585 -0.5048
  107OSM   C18S10970   1.067   3.969   8.600 -0.6208  1.0199 -0.0830
  107OSM   H18S10971   1.123   3.916   8.520 -1.1491  0.5030 -0.1138
  107OSM   H18T10972   1.111   4.071   8.607  3.5608 -0.7548  0.4964
  107OSM   H18U10973   0.959   3.978   8.572  0.1706  0.6001 -3.4518
  107OSM    C1F10974   1.540   4.016  10.365 -0.2325 -0.6251  0.2312
  107OSM     OF10975   1.555   3.901  10.404 -0.8893  0.4178 -0.0638
  107OSM    C2F10976   1.645   4.097  10.309 -0.4620 -0.1712  0.8956
  107OSM    H2F10977   1.631   4.204  10.333 -1.0724  0.2787 -1.3096
  107OSM    H2G10978   1.640   4.079  10.199  0.0980 -0.2620  0.8836
  107OSM    C3F10979   1.785   4.045  10.345  1.0173 -0.1362  0.1765
  107OSM    H3F10980   1.786   3.935  10.331 -2.2820  0.0344 -2.2333
  107OSM    H3G10981   1.807   4.056  10.453 -0.6338 -1.6414  0.6919
  107OSM    C4F10982   1.891   4.120  10.264 -1.0667  0.5707  0.5027
  107OSM    H4F10983   1.855   4.223  10.240 -1.4193  0.3999  0.2880
  107OSM    H4G10984   1.896   4.075  10.163  0.9462 -0.7542  1.1628
  107OSM    C5F10985   2.036   4.122  10.310  0.6344 -0.3358 -0.0627
  107OSM    H5F10986   2.068   4.020  10.339 -1.2440 -1.2912 -1.1938
  107OSM    H5G10987   2.059   4.184  10.399  1.9904  0.3208 -0.8652
  107OSM    C6F10988   2.133   4.190  10.205  0.1401 -0.1860  0.3961
  107OSM    H6F10989   2.229   4.182  10.261  0.0490 -1.4927  0.3830
  107OSM    H6G10990   2.102   4.294  10.184 -0.9433 -0.3124  1.3466
  107OSM    C7F10991   2.137   4.113  10.075  0.6411 -0.3236  0.1650
  107OSM    H7F10992   2.090   4.013  10.085  1.1029 -0.5184  0.3921
  107OSM    H7G10993   2.243   4.108  10.044 -0.1100 -3.9005 -2.1583
  107OSM    C8F10994   2.067   4.178   9.965  0.0259  0.0571 -0.6378
  107OSM    H8F10995   2.123   4.270   9.939  0.3418 -0.4998 -1.9888
  107OSM    H8G10996   1.970   4.215  10.005 -0.5782 -2.5343  0.3927
  107OSM    C9F10997   2.047   4.087   9.844 -0.3017 -0.1113 -0.6027
  107OSM    H9F10998   2.013   3.986   9.870 -2.2957  0.8107  0.4082
  107OSM   C10F10999   2.053   4.122   9.715  0.0711 -0.5256 -0.0151
  107OSM   H10F11000   2.045   4.046   9.635 -0.8281 -1.5241  1.0032
  107OSM   C11F11001   2.103   4.254   9.661  0.0884 -0.4790 -0.7551
  107OSM   H11F11002   2.117   4.330   9.741 -1.1543 -2.4388  1.3695
  107OSM   H11G11003   2.020   4.280   9.592  1.0669  1.3021 -1.3018
  107OSM   C12F11004   2.229   4.238   9.577 -0.5639  0.0643  0.2597
  107OSM   H12F11005   2.295   4.163   9.626 -1.5949 -1.7628 -1.0757
  107OSM   H12G11006   2.295   4.328   9.574 -0.4050 -0.0698 -0.3323
  107OSM   C13F11007   2.201   4.199   9.429 -0.9996 -0.2077  0.5493
  107OSM   H13F11008   2.123   4.271   9.397 -0.2550  1.3779  2.1966
  107OSM   H13G11009   2.178   4.091   9.423 -0.3567 -0.2635 -1.1311
  107OSM   C14F11010   2.332   4.227   9.350 -0.0372  0.1359 -0.5746
  107OSM   H14F11011   2.403   4.147   9.381 -0.0239 -0.9118 -3.1780
  107OSM   H14G11012   2.389   4.316   9.384  1.0333 -0.2178 -1.4116
  107OSM   C15F11013   2.325   4.216   9.202 -0.1322  0.0781  0.0218
  107OSM   H15F11014   2.247   4.282   9.157  0.0033  1.1258  1.2869
  107OSM   H15G11015   2.295   4.115   9.169 -0.5500  0.5482 -1.0778
  107OSM   C16F11016   2.447   4.247   9.120 -0.0617 -0.5810  0.3315
  107OSM   H16F11017   2.535   4.205   9.173  0.0106  1.1974  1.6710
  107OSM   H16G11018   2.464   4.356   9.134 -0.5637 -0.1142 -2.2803
  107OSM   C17F11019   2.449   4.213   8.968 -0.1151 -0.3982  0.1598
  107OSM   H17F11020   2.368   4.270   8.917 -0.2517  0.6209  1.4890
  107OSM   H17G11021   2.425   4.105   8.959  0.9505 -0.8389  2.4165
  107OSM   C18F11022   2.580   4.238   8.898 -0.0128  0.1093  0.0838
  107OSM   H18F11023   2.565   4.230   8.788  1.0457  0.7918 -0.1214
  107OSM   H18G11024   2.645   4.154   8.929 -1.0835 -0.9410 -0.4571
  107OSM   H18H11025   2.637   4.333   8.911  1.7743 -0.4921 -2.9301
  108OSM      N11026   5.220   6.066  10.597  0.1467  0.1952 -0.4036
  108OSM    C1511027   5.151   5.994  10.485 -0.2720 -0.1966  0.7551
  108OSM   H15A11028   5.219   5.938  10.422 -0.0793  0.3989  0.4277
  108OSM   H15B11029   5.085   6.054  10.423  0.7928  0.9634  0.7303
  108OSM   H15C11030   5.086   5.926  10.538  0.4321 -0.0302  1.8460
  108OSM    C1411031   5.330   6.154  10.535  0.7387 -0.1136  0.2323
  108OSM   H14A11032   5.286   6.240  10.489  0.9981 -0.1073 -0.0047
  108OSM   H14B11033   5.395   6.100  10.468 -1.4139 -3.0008  0.3902
  108OSM   H14C11034   5.394   6.185  10.617 -0.8311  0.5103  1.2348
  108OSM    C1311035   5.116   6.160  10.659  0.2587 -0.1146  0.5025
  108OSM   H13A11036   5.147   6.208  10.751  1.0174  1.1257 -0.3833
  108OSM   H13B11037   5.032   6.098  10.689 -0.2775 -0.5089 -1.6833
  108OSM   H13C11038   5.079   6.236  10.592  1.3889 -0.8295 -0.9607
  108OSM    C1211039   5.285   5.969  10.689 -0.0220  0.5029  0.7430
  108OSM   H12A11040   5.357   6.017  10.753  1.0992  0.0591 -0.1656
  108OSM   H12B11041   5.359   5.916  10.631 -1.2662  0.9840 -1.3420
  108OSM    C1111042   5.197   5.867  10.770 -0.1818  0.5570 -0.0238
  108OSM   H11A11043   5.122   5.916  10.835  0.9857  0.0180  1.7782
  108OSM   H11B11044   5.272   5.820  10.837  0.0201  0.8033 -0.0756
  108OSM      P11045   5.165   5.634  10.662 -0.2494 -0.1874  0.2115
  108OSM    O1311046   5.312   5.620  10.647  0.1873 -0.0566 -0.0531
  108OSM    O1411047   5.102   5.560  10.771  0.1220  0.4564  0.1301
  108OSM    O1111048   5.103   5.603  10.516 -0.4538  0.1450  0.7448
  108OSM    O1211049   5.122   5.784  10.683  0.1092 -0.0317 -0.5456
  108OSM    C1S11050   4.964   5.631  10.488 -0.2384 -0.6908 -0.5206
  108OSM    H1S11051   4.945   5.740  10.498 -0.3521 -0.8354  0.9264
  108OSM    H1T11052   4.904   5.577  10.565  0.3459 -0.1979  0.2879
  108OSM     NF11053   4.800   5.635  10.316 -0.2971  0.0132 -0.3892
  108OSM    HNF11054   4.721   5.582  10.347  0.1089 -0.1373  0.4138
  108OSM    C2S11055   4.933   5.590  10.347 -0.4368 -0.5876 -0.3318
  108OSM    H2S11056   4.996   5.647  10.275  1.2738 -1.4872  0.4283
  108OSM    C3S11057   4.957   5.441  10.324 -0.3271  0.3923  1.1023
  108OSM    H3S11058   4.902   5.385  10.402 -0.1037 -0.9833  0.2983
  108OSM     O311059   5.097   5.415  10.336 -0.3353 -0.0003  0.0006
  108OSM    HO311060   5.117   5.467  10.414  1.4806 -3.1304  1.7535
  108OSM    C4S11061   4.910   5.405  10.183 -0.5514 -0.6804 -1.0167
  108OSM    H4S11062   4.934   5.488  10.115 -0.9111 -0.0941 -0.4425
  108OSM    C5S11063   4.834   5.295  10.154 -0.2101 -0.5614 -0.1691
  108OSM    H5S11064   4.807   5.216  10.226 -0.2824  0.5905  1.0795
  108OSM    C6S11065   4.791   5.274  10.014  0.1720  1.0546 -0.1418
  108OSM    H6S11066   4.764   5.373   9.971  2.4529  0.9687 -1.8790
  108OSM    H6T11067   4.705   5.203  10.003 -0.0495  1.2909  0.0777
  108OSM    C7S11068   4.901   5.215   9.931 -0.2562  0.1088 -0.2903
  108OSM    H7S11069   4.914   5.106   9.950 -1.3139 -0.1458 -0.9572
  108OSM    H7T11070   4.997   5.270   9.931  1.3879 -2.6184  1.4791
  108OSM    C8S11071   4.870   5.212   9.781  0.2180  0.6267  0.5111
  108OSM    H8S11072   4.852   5.313   9.739  1.6027  0.4676 -0.5212
  108OSM    H8T11073   4.777   5.154   9.764  0.0966  0.9712  0.0132
  108OSM    C9S11074   4.990   5.143   9.703  0.3623 -0.7659 -0.4109
  108OSM    H9S11075   4.988   5.035   9.730 -0.6979 -0.4144  0.9626
  108OSM    H9T11076   5.091   5.179   9.733  0.1608  0.2901 -0.9692
  108OSM   C10S11077   4.973   5.155   9.557 -0.8655 -0.1705  0.5468
  108OSM   H10S11078   4.981   5.260   9.523  1.2917 -1.0303 -1.7901
  108OSM   H10T11079   4.869   5.127   9.526 -0.1222  0.3924 -2.6269
  108OSM   C11S11080   5.067   5.071   9.474 -0.0265  0.4550  0.5314
  108OSM   H11S11081   5.038   4.965   9.494  1.1769 -0.0856 -0.5287
  108OSM   H11T11082   5.174   5.098   9.488 -0.2760  1.5953  0.3024
  108OSM   C12S11083   5.037   5.098   9.324  0.7515  0.3440  0.0072
  108OSM   H12S11084   5.117   5.075   9.251 -0.7278 -3.1147 -0.6163
  108OSM   H12T11085   5.021   5.208   9.316 -1.1262  0.2452  1.9592
  108OSM   C13S11086   4.916   5.023   9.270 -0.0388 -0.0923 -0.3126
  108OSM   H13S11087   4.819   5.030   9.323  0.3066  0.4862  0.2463
  108OSM   H13T11088   4.938   4.916   9.292 -1.0382 -0.9288 -3.1107
  108OSM   C14S11089   4.881   5.041   9.122  0.6256 -0.1657 -0.0148
  108OSM   H14S11090   4.797   4.974   9.094 -0.8742  2.0388 -0.9382
  108OSM   H14T11091   4.965   5.005   9.058  0.8267 -2.2624  1.3908
  108OSM   C15S11092   4.857   5.186   9.082  0.2534 -0.5093  0.4407
  108OSM   H15S11093   4.944   5.241   9.123  1.1449 -3.2623  2.3828
  108OSM   H15T11094   4.771   5.234   9.133 -0.1115 -2.0277  1.2585
  108OSM   C16S11095   4.840   5.194   8.932  0.4022 -0.1372 -0.0969
  108OSM   H16S11096   4.932   5.173   8.875  1.7991  3.2521  0.7575
  108OSM   H16T11097   4.830   5.304   8.914  0.2416 -0.1291  0.0348
  108OSM   C17S11098   4.712   5.132   8.878  0.2137  0.0744 -0.5289
  108OSM   H17S11099   4.619   5.163   8.931  0.6283 -0.4540  0.5192
  108OSM   H17T11100   4.709   5.021   8.887  1.1000  0.1248  0.5101
  108OSM   C18S11101   4.686   5.181   8.730 -0.7051 -0.4279 -0.4072
  108OSM   H18S11102   4.673   5.291   8.722 -2.1516 -0.5313  0.2276
  108OSM   H18T11103   4.592   5.130   8.696  0.0457 -1.9490 -0.2411
  108OSM   H18U11104   4.776   5.162   8.668  1.2422  2.1056  1.5762
  108OSM    C1F11105   4.769   5.757  10.272  0.5219  1.4113 -0.6027
  108OSM     OF11106   4.864   5.840  10.262  0.1306 -0.9533 -0.0344
  108OSM    C2F11107   4.626   5.791  10.265  1.1497 -0.3092  1.0594
  108OSM    H2F11108   4.626   5.899  10.239 -0.7490  0.1376  2.7823
  108OSM    H2G11109   4.577   5.787  10.365 -1.0495 -2.4807 -0.0293
  108OSM    C3F11110   4.541   5.720  10.162  0.9639 -0.6708  0.1124
  108OSM    H3F11111   4.441   5.769  10.162  1.2516 -0.0707  1.2234
  108OSM    H3G11112   4.528   5.616  10.197  1.7045 -0.3521  1.3475
  108OSM    C4F11113   4.614   5.723  10.021  0.6914  0.2388  0.5323
  108OSM    H4F11114   4.715   5.677  10.029  0.5518  0.3736  3.9262
  108OSM    H4G11115   4.636   5.830  10.001  1.7108  0.4649  2.6150
  108OSM    C5F11116   4.527   5.658   9.908 -0.1883  0.3930  0.2275
  108OSM    H5F11117   4.438   5.724   9.899  0.2597  0.6625 -2.8325
  108OSM    H5G11118   4.487   5.558   9.935  0.3739  0.4058  1.1228
  108OSM    C6F11119   4.595   5.664   9.767 -0.2065 -0.4985 -0.4723
  108OSM    H6F11120   4.681   5.593   9.773  1.6396  1.8129  1.2144
  108OSM    H6G11121   4.626   5.770   9.757 -1.8856  0.1198  0.6031
  108OSM    C7F11122   4.497   5.616   9.655 -0.2113 -0.3573 -0.0985
  108OSM    H7F11123   4.426   5.701   9.648  1.2745  0.7982 -1.3402
  108OSM    H7G11124   4.441   5.521   9.675  1.2384 -1.6186 -1.9012
  108OSM    C8F11125   4.551   5.599   9.519  0.0842 -0.2392 -0.0972
  108OSM    H8F11126   4.604   5.689   9.483 -1.2400  0.5420 -0.1185
  108OSM    H8G11127   4.465   5.585   9.451 -0.7208  0.4899  0.7590
  108OSM    C9F11128   4.640   5.479   9.514 -0.1592  0.2574 -0.1399
  108OSM    H9F11129   4.725   5.481   9.584  0.3801  1.3636 -0.8198
  108OSM   C10F11130   4.651   5.388   9.411  0.5732 -0.0744 -0.1711
  108OSM   H10F11131   4.730   5.313   9.422 -0.9824 -1.8063 -0.6534
  108OSM   C11F11132   4.564   5.392   9.290  0.1876 -0.2091  0.3128
  108OSM   H11F11133   4.456   5.394   9.313  0.6168  0.2540  2.3856
  108OSM   H11G11134   4.584   5.300   9.230  1.0121  0.2941 -0.1994
  108OSM   C12F11135   4.587   5.509   9.189  0.2144 -0.0885  0.0653
  108OSM   H12F11136   4.696   5.515   9.168  0.4975 -1.2862  1.1241
  108OSM   H12G11137   4.556   5.603   9.238  2.3824  1.3437 -1.1832
  108OSM   C13F11138   4.508   5.487   9.058 -0.3699 -0.8990  0.5261
  108OSM   H13F11139   4.399   5.484   9.079 -0.0880 -1.4972  1.9820
  108OSM   H13G11140   4.545   5.388   9.023  0.6575 -1.3355  2.7337
  108OSM   C14F11141   4.529   5.580   8.942  0.0759  0.0335 -0.2412
  108OSM   H14F11142   4.631   5.559   8.904  0.3647  0.4882  0.2748
  108OSM   H14G11143   4.522   5.689   8.966 -1.8818 -0.1471  0.1075
  108OSM   C15F11144   4.427   5.557   8.825 -0.0674 -0.2297 -0.4112
  108OSM   H15F11145   4.320   5.566   8.854  0.0155  0.4628 -0.3256
  108OSM   H15G11146   4.441   5.451   8.794  1.3765 -0.0566 -0.3652
  108OSM   C16F11147   4.455   5.646   8.703  0.6063 -0.3820 -0.4394
  108OSM   H16F11148   4.376   5.624   8.628 -1.6622 -1.5156  2.2013
  108OSM   H16G11149   4.556   5.620   8.666  1.4984  2.0893  0.1442
  108OSM   C17F11150   4.457   5.800   8.740 -0.3940 -0.3884  0.9596
  108OSM   H17F11151   4.466   5.862   8.648 -1.3835 -1.1447  0.3471
  108OSM   H17G11152   4.552   5.834   8.786 -0.5336  0.9000  0.3138
  108OSM   C18F11153   4.326   5.850   8.805  0.6735  0.2246 -0.3776
  108OSM   H18F11154   4.243   5.844   8.732 -1.9000 -0.0775  2.4403
  108OSM   H18G11155   4.341   5.958   8.825  1.3438  0.2860 -1.1835
  108OSM   H18H11156   4.287   5.798   8.896 -0.0001 -0.0079 -0.7990
  109OSM      N11157   4.140   3.538  11.329 -0.2838 -0.2352  0.2857
  109OSM    C1511158   4.164   3.687  11.321 -1.1211  1.0809 -0.3343
  109OSM   H15A11159   4.138   3.717  11.220  0.9719  1.9038 -0.6466
  109OSM   H15B11160   4.267   3.697  11.352 -1.7067  0.3821  1.8934
  109OSM   H15C11161   4.106   3.736  11.398 -3.4975 -1.4014 -0.4703
  109OSM    C1411162   4.254   3.466  11.265  0.3421 -0.5219  0.5409
  109OSM   H14A11163   4.235   3.360  11.265  0.8919 -0.6224  0.4072
  109OSM   H14B11164   4.343   3.483  11.325  0.6246 -1.4396  0.3818
  109OSM   H14C11165   4.264   3.498  11.162  0.0942 -0.9576  0.3831
  109OSM    C1311166   4.132   3.496  11.469  0.1988 -0.6302  0.2185
  109OSM   H13A11167   4.052   3.548  11.520  2.4591  0.2834  2.9212
  109OSM   H13B11168   4.223   3.522  11.521  0.9709 -0.5493 -1.1570
  109OSM   H13C11169   4.109   3.391  11.480 -1.7506  0.0313  2.9460
  109OSM    C1211170   4.004   3.510  11.267 -0.4548 -0.4555  0.3933
  109OSM   H12A11171   3.940   3.571  11.330 -0.0762  1.5048 -1.0847
  109OSM   H12B11172   3.963   3.412  11.283 -1.6649  0.0424  0.4115
  109OSM    C1111173   3.993   3.558  11.117  0.2218  0.2472 -0.4335
  109OSM   H11A11174   3.911   3.509  11.060  0.4261 -0.8544  0.2085
  109OSM   H11B11175   4.087   3.519  11.072  1.1359  2.2982 -0.3738
  109OSM      P11176   3.844   3.774  11.081  0.1819  0.0350  0.2029
  109OSM    O1311177   3.735   3.701  11.157  0.1594 -0.2454 -0.1662
  109OSM    O1411178   3.860   3.915  11.120 -0.7431  0.1716 -0.4360
  109OSM    O1111179   3.813   3.758  10.926  0.0738  0.4206  0.1354
  109OSM    O1211180   3.985   3.705  11.097 -0.1600  0.3451  0.2241
  109OSM    C1S11181   3.781   3.875  10.857 -0.1007  0.3784 -0.7816
  109OSM    H1S11182   3.841   3.964  10.885  0.1104  0.1078 -0.3741
  109OSM    H1T11183   3.674   3.903  10.861  0.1549  1.1265  3.0688
  109OSM     NF11184   3.757   3.969  10.631  0.5864 -0.7667  0.1463
  109OSM    HNF11185   3.662   3.952  10.607  0.0417 -1.2218  2.5560
  109OSM    C2S11186   3.817   3.864  10.704  0.5719  0.1382 -0.1661
  109OSM    H2S11187   3.926   3.874  10.689  0.2852  0.5278 -2.1589
  109OSM    C3S11188   3.767   3.731  10.645 -0.3091 -0.8775 -0.0208
  109OSM    H3S11189   3.656   3.727  10.641 -0.3557 -0.0889  0.4166
  109OSM     O311190   3.805   3.615  10.714  0.1211  0.9000 -0.1356
  109OSM    HO311191   3.851   3.643  10.793  0.6670 -0.4628  0.0489
  109OSM    C4S11192   3.814   3.724  10.503 -0.2883  0.4091  0.6517
  109OSM    H4S11193   3.922   3.716  10.483 -0.6569  1.2098 -1.7955
  109OSM    C5S11194   3.736   3.744  10.391  0.1865  0.4826 -0.1963
  109OSM    H5S11195   3.628   3.749  10.411  0.1261 -0.0822 -0.3695
  109OSM    C6S11196   3.765   3.747  10.241 -0.1917 -0.4769  0.0404
  109OSM    H6S11197   3.702   3.823  10.191 -2.4078 -1.4030  1.3138
  109OSM    H6T11198   3.751   3.654  10.181 -0.8464 -0.3724  0.0306
  109OSM    C7S11199   3.911   3.774  10.196  0.9708 -0.1831 -0.5048
  109OSM    H7S11200   3.971   3.687  10.230 -0.3872 -1.4555 -1.3264
  109OSM    H7T11201   3.948   3.859  10.257  0.4145 -0.0852 -0.3023
  109OSM    C8S11202   3.936   3.779  10.047  0.2873 -0.6483  0.0403
  109OSM    H8S11203   3.904   3.882  10.021  0.5498 -0.0801  1.8369
  109OSM    H8T11204   3.867   3.713   9.992 -1.3166  1.6392 -0.7816
  109OSM    C9S11205   4.071   3.747   9.993  0.2643 -0.3811 -0.5410
  109OSM    H9S11206   4.149   3.824  10.015 -0.0108 -0.6731  1.5625
  109OSM    H9T11207   4.061   3.743   9.882 -3.0081 -1.4272 -0.2435
  109OSM   C10S11208   4.148   3.624  10.028  0.0674  0.1160 -0.0741
  109OSM   H10S11209   4.085   3.535  10.049  2.3832 -1.2348  1.2288
  109OSM   H10T11210   4.206   3.649  10.119  1.5075 -2.1208 -0.3512
  109OSM   C11S11211   4.254   3.583   9.926 -0.0909  0.2540  0.0967
  109OSM   H11S11212   4.317   3.497   9.956  3.1698  1.6031 -2.5734
  109OSM   H11T11213   4.335   3.657   9.906  0.5964 -0.7491 -0.8440
  109OSM   C12S11214   4.203   3.532   9.789  0.5206 -0.4936  0.3486
  109OSM   H12S11215   4.125   3.603   9.755  0.5321 -0.6784 -0.0782
  109OSM   H12T11216   4.142   3.439   9.797 -0.3566 -0.0680 -1.1918
  109OSM   C13S11217   4.316   3.500   9.693  0.3683 -0.5500  1.0678
  109OSM   H13S11218   4.258   3.466   9.605 -1.2649  2.0445  1.0934
  109OSM   H13T11219   4.372   3.422   9.750  0.8428  0.7331  2.3896
  109OSM   C14S11220   4.419   3.614   9.656 -0.2215 -0.3869 -0.2730
  109OSM   H14S11221   4.499   3.612   9.733 -0.9151  0.4264  0.4682
  109OSM   H14T11222   4.373   3.714   9.673  0.8019 -0.3397  2.4261
  109OSM   C15S11223   4.485   3.613   9.519 -0.3093 -0.7831 -0.2725
  109OSM   H15S11224   4.520   3.508   9.508  0.4309 -0.6036  0.3423
  109OSM   H15T11225   4.580   3.670   9.512 -1.2903  0.7839 -1.2854
  109OSM   C16S11226   4.381   3.645   9.409  0.2745 -1.1080 -0.0304
  109OSM   H16S11227   4.357   3.754   9.406  0.3673 -1.1304 -4.1932
  109OSM   H16T11228   4.287   3.592   9.434  0.4209 -0.9442  0.9095
  109OSM   C17S11229   4.427   3.614   9.269 -0.2768  0.0539 -0.0758
  109OSM   H17S11230   4.428   3.504   9.252  1.4436  0.2254 -1.0879
  109OSM   H17T11231   4.534   3.637   9.253  0.0334  1.0692  3.0862
  109OSM   C18S11232   4.334   3.666   9.160  0.2410  0.8383 -0.3436
  109OSM   H18S11233   4.365   3.770   9.137  2.2630 -0.3445 -3.2059
  109OSM   H18T11234   4.229   3.647   9.191  0.9130 -2.3568  0.1036
  109OSM   H18U11235   4.354   3.616   9.063  1.5896 -0.5547  0.6250
  109OSM    C1F11236   3.799   4.095  10.634  0.7177 -0.7729  0.3906
  109OSM     OF11237   3.911   4.129  10.673  0.3674  0.7666  0.7897
  109OSM    C2F11238   3.709   4.200  10.583 -0.1893  0.5336 -0.0764
  109OSM    H2F11239   3.678   4.273  10.661 -1.2241 -1.2634  1.2421
  109OSM    H2G11240   3.611   4.159  10.550  1.4190 -1.4230 -2.6407
  109OSM    C3F11241   3.768   4.271  10.460  0.0088  0.2143  0.3558
  109OSM    H3F11242   3.871   4.300  10.488  1.5697 -2.1279 -2.7792
  109OSM    H3G11243   3.707   4.364  10.451 -2.0503 -1.0701  0.7539
  109OSM    C4F11244   3.771   4.187  10.334 -0.7274 -0.4619 -0.0278
  109OSM    H4F11245   3.670   4.143  10.319 -0.6877 -1.0449  1.3907
  109OSM    H4G11246   3.850   4.112  10.356  0.4002  0.9958  0.9977
  109OSM    C5F11247   3.804   4.272  10.208  0.0064  0.8867  0.6464
  109OSM    H5F11248   3.902   4.314  10.241  0.2284  0.5993  0.3593
  109OSM    H5G11249   3.723   4.347  10.201 -1.2032 -0.2631  2.2141
  109OSM    C6F11250   3.839   4.181  10.087  0.4546 -0.0094 -0.2521
  109OSM    H6F11251   3.768   4.096  10.086  1.2013 -0.6723  0.7947
  109OSM    H6G11252   3.937   4.135  10.114 -0.0928 -0.4465  1.0535
  109OSM    C7F11253   3.865   4.250   9.954  0.3737 -0.7070  0.5109
  109OSM    H7F11254   3.933   4.334   9.979 -0.9224  0.1123  1.3774
  109OSM    H7G11255   3.775   4.302   9.915  1.3645  0.0517 -0.7922
  109OSM    C8F11256   3.937   4.172   9.844  1.1241  0.7180 -0.3442
  109OSM    H8F11257   3.940   4.237   9.754  0.7638 -2.1939 -2.5588
  109OSM    H8G11258   3.879   4.083   9.811 -0.5723  2.0448 -1.0244
  109OSM    C9F11259   4.080   4.140   9.864  0.2242 -0.6568  0.2408
  109OSM    H9F11260   4.120   4.183   9.957 -0.2565  2.4606 -0.9265
  109OSM   C10F11261   4.164   4.082   9.775  0.7725 -0.2006 -0.4491
  109OSM   H10F11262   4.264   4.068   9.818  0.1300  1.3126  1.7043
  109OSM   C11F11263   4.138   4.037   9.638  0.4810 -0.2467 -0.0203
  109OSM   H11F11264   4.223   4.054   9.569 -0.2648  0.8629 -0.6841
  109OSM   H11G11265   4.055   4.106   9.611 -0.4790 -0.7508  1.5738
  109OSM   C12F11266   4.091   3.894   9.610 -0.1115  0.9021  0.7811
  109OSM   H12F11267   4.011   3.864   9.681 -1.1920 -1.0255 -1.2008
  109OSM   H12G11268   4.180   3.830   9.626 -0.3702  0.6435  1.1911
  109OSM   C13F11269   4.035   3.860   9.462 -0.5371  0.2380  0.3208
  109OSM   H13F11270   3.930   3.894   9.473 -1.0381 -1.4021  0.6999
  109OSM   H13G11271   4.040   3.751   9.445  0.6307  0.2137  0.7476
  109OSM   C14F11272   4.090   3.942   9.344  0.0984 -0.1837  0.7846
  109OSM   H14F11273   4.199   3.930   9.328  0.2240  0.0362  1.4555
  109OSM   H14G11274   4.078   4.049   9.370 -2.2894 -0.4875  1.1291
  109OSM   C15F11275   4.038   3.898   9.206 -0.1872 -0.1170  0.3612
  109OSM   H15F11276   3.927   3.901   9.202 -0.0939  1.2738 -1.4627
  109OSM   H15G11277   4.063   3.791   9.187  2.1733  0.2059  1.4928
  109OSM   C16F11278   4.084   3.996   9.092 -0.4662  0.5661 -0.0364
  109OSM   H16F11279   4.193   4.015   9.090  0.0912 -2.4769 -0.4359
  109OSM   H16G11280   4.037   4.097   9.090 -0.8625  0.3581 -2.9499
  109OSM   C17F11281   4.041   3.947   8.956 -0.1818  0.1273  1.0342
  109OSM   H17F11282   3.931   3.939   8.942  0.0747  0.1934 -1.0825
  109OSM   H17G11283   4.079   3.844   8.968  0.3200  0.4472  2.3589
  109OSM   C18F11284   4.098   4.011   8.833 -0.0281  0.2878 -0.1676
  109OSM   H18F11285   4.209   4.004   8.835 -0.1848 -2.5519  1.6860
  109OSM   H18G11286   4.071   4.118   8.830  0.2238  0.4419  2.0806
  109OSM   H18H11287   4.051   3.970   8.741 -0.1341  0.5740 -0.2374
  110OSM      N11288   4.475   1.969  11.119  0.6234  0.4144  0.6754
  110OSM    C1511289   4.366   2.057  11.069 -0.7311 -0.1327 -0.2845
  110OSM   H15A11290   4.383   2.073  10.964  0.5485 -1.6004 -0.3051
  110OSM   H15B11291   4.374   2.150  11.124  0.7007 -0.5762  0.2869
  110OSM   H15C11292   4.261   2.034  11.086 -0.0041 -2.0617  1.7975
  110OSM    C1411293   4.465   1.958  11.275 -0.1849 -0.0918  0.4107
  110OSM   H14A11294   4.364   1.940  11.307  0.2433 -3.6586 -0.1206
  110OSM   H14B11295   4.492   2.051  11.324 -0.0713  1.6298 -2.8103
  110OSM   H14C11296   4.524   1.875  11.309 -0.1041 -0.8576 -1.5795
  110OSM    C1311297   4.448   1.832  11.068 -0.7816  0.5717 -0.0579
  110OSM   H13A11298   4.444   1.821  10.960  1.7844 -2.9046  0.0958
  110OSM   H13B11299   4.357   1.791  11.110 -0.0351 -1.5036 -0.4039
  110OSM   H13C11300   4.528   1.766  11.097  1.3355  1.8823 -2.6282
  110OSM    C1211301   4.610   2.029  11.067  0.3889  0.0607 -0.8485
  110OSM   H12A11302   4.694   1.980  11.114  0.0535  0.7489  0.5074
  110OSM   H12B11303   4.618   2.126  11.115 -3.0837 -0.2121  0.4104
  110OSM    C1111304   4.637   2.043  10.914 -0.0215 -0.0390  0.2457
  110OSM   H11A11305   4.631   1.950  10.853 -2.2835 -0.7533  1.5203
  110OSM   H11B11306   4.740   2.083  10.898 -0.4087  0.1606 -1.9381
  110OSM      P11307   4.568   2.289  10.860  0.0666  0.4130 -0.1826
  110OSM    O1311308   4.463   2.356  10.778 -0.1495  0.2027  0.7316
  110OSM    O1411309   4.585   2.331  11.004  0.2373  0.1129 -0.0630
  110OSM    O1111310   4.700   2.304  10.786  0.5210 -0.1688 -0.2035
  110OSM    O1211311   4.538   2.133  10.856  0.0705 -0.4344 -0.1700
  110OSM    C1S11312   4.706   2.249  10.654 -0.6108 -0.1689 -0.7119
  110OSM    H1S11313   4.614   2.273  10.596 -0.2690  0.3124 -1.0594
  110OSM    H1T11314   4.715   2.139  10.661  2.3910 -0.1033 -2.4863
  110OSM     NF11315   4.802   2.248  10.431  0.4265 -0.1090  0.8256
  110OSM    HNF11316   4.861   2.170  10.408 -0.1811 -0.0350 -1.0235
  110OSM    C2S11317   4.822   2.301  10.567 -0.6950 -0.3963 -0.0889
  110OSM    H2S11318   4.812   2.411  10.556  1.6989 -0.0846  0.5827
  110OSM    C3S11319   4.957   2.272  10.628  0.0435 -0.4725 -0.3369
  110OSM    H3S11320   4.965   2.165  10.654  2.5147 -0.7981 -2.2756
  110OSM     O311321   4.968   2.337  10.757  0.4240  0.3215 -0.1071
  110OSM    HO311322   4.882   2.323  10.796 -0.4658  1.6467 -1.5565
  110OSM    C4S11323   5.067   2.308  10.538 -0.4044 -0.5357  0.1201
  110OSM    H4S11324   5.076   2.417  10.530 -2.1245 -0.2777  1.3053
  110OSM    C5S11325   5.144   2.230  10.458 -0.1762 -0.3161  0.6531
  110OSM    H5S11326   5.132   2.121  10.459  0.1354 -0.4031 -2.2081
  110OSM    C6S11327   5.253   2.280  10.368 -0.3312  0.0449 -0.4033
  110OSM    H6S11328   5.343   2.215  10.366  0.1907  0.6650  1.4223
  110OSM    H6T11329   5.284   2.379  10.410  0.2858 -0.1678 -0.3441
  110OSM    C7S11330   5.193   2.294  10.225  0.3031 -0.2315  0.2645
  110OSM    H7S11331   5.104   2.361  10.220 -0.8458 -1.6803  1.0287
  110OSM    H7T11332   5.155   2.196  10.190 -0.6307 -1.3462  4.2245
  110OSM    C8S11333   5.301   2.324  10.122  0.2555 -0.4737  0.3213
  110OSM    H8S11334   5.388   2.258  10.141  1.9290  1.8851  1.1281
  110OSM    H8T11335   5.342   2.425  10.146  0.5200 -0.7811  1.1908
  110OSM    C9S11336   5.245   2.320   9.981  0.2194 -0.7876 -0.3611
  110OSM    H9S11337   5.150   2.377   9.971  0.8832  0.2790 -0.6441
  110OSM    H9T11338   5.222   2.214   9.957  0.4817 -1.0390  0.4919
  110OSM   C10S11339   5.338   2.378   9.876 -0.2181  0.4006  0.5466
  110OSM   H10S11340   5.441   2.337   9.878  0.6688  2.6272  1.5198
  110OSM   H10T11341   5.342   2.488   9.870 -1.9077  0.5094  1.2201
  110OSM   C11S11342   5.275   2.358   9.741 -0.1087  0.4723 -0.4102
  110OSM   H11S11343   5.175   2.405   9.731 -0.0066  0.0312 -3.9628
  110OSM   H11T11344   5.263   2.252   9.713  0.2774  0.5191 -0.7661
  110OSM   C12S11345   5.368   2.414   9.629  0.0083 -0.4865 -0.1754
  110OSM   H12S11346   5.470   2.406   9.672  0.1712 -0.2070 -0.4995
  110OSM   H12T11347   5.330   2.516   9.604 -0.9396 -1.3228 -2.1966
  110OSM   C13S11348   5.344   2.321   9.503  0.1775 -0.0525  1.3786
  110OSM   H13S11349   5.235   2.309   9.485 -0.5353  2.6103  3.5020
  110OSM   H13T11350   5.381   2.217   9.506 -0.6491 -0.5254 -2.7410
  110OSM   C14S11351   5.402   2.394   9.379  0.2444  0.8329  0.2539
  110OSM   H14S11352   5.512   2.385   9.394  0.4577  1.5939 -0.7797
  110OSM   H14T11353   5.386   2.504   9.378 -0.9196  0.6993  1.8919
  110OSM   C15S11354   5.356   2.356   9.235 -0.5127 -0.4248 -0.8676
  110OSM   H15S11355   5.416   2.417   9.165 -1.8365  1.6810 -0.2201
  110OSM   H15T11356   5.251   2.390   9.223 -0.2594  0.8659  0.4593
  110OSM   C16S11357   5.385   2.211   9.202  0.0241 -0.3604  0.2023
  110OSM   H16S11358   5.313   2.137   9.241 -0.7999 -0.5193 -1.6076
  110OSM   H16T11359   5.478   2.181   9.256  0.9419  0.1907 -1.0377
  110OSM   C17S11360   5.435   2.178   9.061  0.1877  0.4735  0.3205
  110OSM   H17S11361   5.540   2.212   9.051  0.5077 -0.8324 -1.0099
  110OSM   H17T11362   5.366   2.226   8.988  2.3054  0.1124 -1.9921
  110OSM   C18S11363   5.439   2.027   9.038  0.0176  0.1729 -0.3082
  110OSM   H18S11364   5.338   1.984   9.047 -0.6909  1.6955 -0.7848
  110OSM   H18T11365   5.495   1.985   9.124  0.4102  0.8747 -0.2161
  110OSM   H18U11366   5.490   2.005   8.942  2.1371  1.4025  0.4824
  110OSM    C1F11367   4.708   2.282  10.348 -0.5895 -0.6954  0.0675
  110OSM     OF11368   4.627   2.369  10.381 -0.4525 -0.1070  0.1569
  110OSM    C2F11369   4.698   2.205  10.215  0.9161 -0.0739 -0.4928
  110OSM    H2F11370   4.592   2.199  10.182  1.1762 -2.8442 -0.9830
  110OSM    H2G11371   4.724   2.101  10.245  0.3935  0.2536  1.0843
  110OSM    C3F11372   4.795   2.273  10.115 -0.3370 -0.0893  0.5490
  110OSM    H3F11373   4.897   2.243  10.146 -0.5727 -0.5012  0.9323
  110OSM    H3G11374   4.800   2.384  10.128  2.4196  0.0063 -1.0014
  110OSM    C4F11375   4.754   2.256   9.968  0.8148  0.4539  0.3613
  110OSM    H4F11376   4.661   2.313   9.949  1.5943  1.4684 -0.4684
  110OSM    H4G11377   4.732   2.149   9.948  0.6539  0.5794 -0.1496
  110OSM    C5F11378   4.861   2.310   9.869  0.3162 -0.1205 -0.3852
  110OSM    H5F11379   4.962   2.266   9.884 -0.4537 -0.9642  2.7131
  110OSM    H5G11380   4.877   2.418   9.887  0.8852 -0.4365  1.0378
  110OSM    C6F11381   4.818   2.289   9.729 -0.0764  0.2507 -0.5131
  110OSM    H6F11382   4.712   2.321   9.718 -0.5491 -1.4757 -1.1009
  110OSM    H6G11383   4.807   2.179   9.717 -1.4278  0.1615  1.3315
  110OSM    C7F11384   4.904   2.353   9.614  0.1227 -0.1081 -0.2352
  110OSM    H7F11385   5.001   2.300   9.622 -0.8755 -2.0188 -0.6899
  110OSM    H7G11386   4.922   2.461   9.634  0.8261 -0.7503  2.8571
  110OSM    C8F11387   4.848   2.322   9.470 -0.6288  0.2140  0.4897
  110OSM    H8F11388   4.832   2.213   9.454 -2.8831  0.4447  0.9835
  110OSM    H8G11389   4.921   2.363   9.397  0.0605  0.6674  1.4310
  110OSM    C9F11390   4.715   2.391   9.435  0.4595  0.1697  0.2810
  110OSM    H9F11391   4.637   2.378   9.511  0.9070 -0.7729  0.5831
  110OSM   C10F11392   4.686   2.472   9.332  1.0967  0.0828  0.4875
  110OSM   H10F11393   4.582   2.508   9.334  0.6757 -1.0192 -0.5495
  110OSM   C11F11394   4.774   2.509   9.223 -0.0071  0.0563 -0.2949
  110OSM   H11F11395   4.871   2.455   9.218  0.8596  1.5325  0.4991
  110OSM   H11G11396   4.791   2.619   9.226  0.9565  0.0151 -2.8109
  110OSM   C12F11397   4.694   2.490   9.087  0.2689 -0.3587 -0.8346
  110OSM   H12F11398   4.604   2.426   9.090  2.5789 -3.7086 -0.2685
  110OSM   H12G11399   4.762   2.430   9.022 -1.0439 -4.0559  1.1078
  110OSM   C13F11400   4.668   2.629   9.019  0.1518 -0.3187 -0.0789
  110OSM   H13F11401   4.759   2.690   9.004  0.0077  0.0005  0.3363
  110OSM   H13G11402   4.596   2.681   9.087 -0.9505 -0.0301 -1.4417
  110OSM   C14F11403   4.605   2.623   8.883  0.6473 -0.4713 -0.1942
  110OSM   H14F11404   4.581   2.727   8.852  2.4866  0.8405  2.5381
  110OSM   H14G11405   4.511   2.564   8.883  0.1079  0.3497  0.9888
  110OSM   C15F11406   4.704   2.564   8.782 -0.1460  0.0430  0.0054
  110OSM   H15F11407   4.717   2.458   8.811  2.8142  0.2538 -0.4437
  110OSM   H15G11408   4.802   2.612   8.800  0.6315 -0.8515 -1.7677
  110OSM   C16F11409   4.650   2.571   8.638 -0.2654  0.3658 -0.1437
  110OSM   H16F11410   4.724   2.536   8.563  0.9524  1.4398  0.5201
  110OSM   H16G11411   4.639   2.682   8.631 -1.3499  0.3248  0.8224
  110OSM   C17F11412   4.517   2.502   8.606  0.2814 -0.7534  0.3595
  110OSM   H17F11413   4.446   2.545   8.679 -0.6728 -1.5807 -0.0610
  110OSM   H17G11414   4.520   2.395   8.635  0.6329 -0.7335  0.3955
  110OSM   C18F11415   4.460   2.508   8.466  0.1926 -0.0952 -1.0969
  110OSM   H18F11416   4.369   2.445   8.473  0.8308 -0.7332  2.3841
  110OSM   H18G11417   4.534   2.461   8.398  1.6595 -0.8167  0.9232
  110OSM   H18H11418   4.435   2.612   8.438  1.5628  0.8802  1.1203
  111OSM      N11419   5.519   6.567  11.001 -0.5782  0.0865 -0.3186
  111OSM    C1511420   5.651   6.604  11.077  1.2786  0.1454 -0.3077
  111OSM   H15A11421   5.624   6.630  11.179 -1.1800 -0.3293 -0.7989
  111OSM   H15B11422   5.689   6.697  11.036  0.9491  0.8594  0.9583
  111OSM   H15C11423   5.728   6.529  11.082  2.0518  0.8891 -0.8568
  111OSM    C1411424   5.495   6.429  11.031  0.1873 -0.0049 -0.1489
  111OSM   H14A11425   5.406   6.397  10.978  0.8139 -0.3081 -1.0407
  111OSM   H14B11426   5.489   6.407  11.136  3.5694  0.2544  0.1610
  111OSM   H14C11427   5.570   6.362  10.991  1.7967  1.9188 -0.4462
  111OSM    C1311428   5.404   6.660  11.043 -0.8871 -0.4583 -0.4888
  111OSM   H13A11429   5.379   6.632  11.145 -3.3353 -1.3259 -1.2846
  111OSM   H13B11430   5.320   6.650  10.976  0.3403  0.0414 -2.1203
  111OSM   H13C11431   5.433   6.763  11.037 -0.3324 -0.4896  1.1509
  111OSM    C1211432   5.541   6.588  10.850 -0.1588  0.1880  0.3051
  111OSM   H12A11433   5.460   6.550  10.790  0.5043  0.6132 -0.8709
  111OSM   H12B11434   5.624   6.535  10.806 -0.2646  0.8235 -0.6670
  111OSM    C1111435   5.566   6.733  10.797  0.0643 -0.1518 -0.8523
  111OSM   H11A11436   5.475   6.784  10.836 -0.0227 -1.6480  0.9783
  111OSM   H11B11437   5.561   6.732  10.686 -0.8193 -0.5670 -0.8185
  111OSM      P11438   5.815   6.776  10.765 -0.0954 -0.0513  0.8051
  111OSM    O1311439   5.921   6.865  10.819 -0.2795 -0.3414 -0.1359
  111OSM    O1411440   5.851   6.634  10.773 -0.3285  0.0677  0.5063
  111OSM    O1111441   5.778   6.825  10.618  0.0982 -0.0837 -0.3353
  111OSM    O1211442   5.682   6.794  10.853 -0.3845 -0.0828 -0.1098
  111OSM    C1S11443   5.713   6.953  10.608 -0.1193 -0.1730  0.5335
  111OSM    H1S11444   5.765   7.025  10.676 -0.2999 -0.9520  1.5031
  111OSM    H1T11445   5.606   6.946  10.635  0.3014 -0.0212  2.3026
  111OSM     NF11446   5.677   7.156  10.476  0.0860 -0.5422  0.2268
  111OSM    HNF11447   5.586   7.181  10.442  0.1613 -0.9656 -0.2927
  111OSM    C2S11448   5.713   7.012  10.464  0.3484  0.4227  0.2721
  111OSM    H2S11449   5.812   7.018  10.413  0.1216  2.4101  0.0096
  111OSM    C3S11450   5.623   6.927  10.364  0.1591  0.1740 -0.0035
  111OSM    H3S11451   5.519   6.943  10.399  1.3639  4.1004  2.0182
  111OSM     O311452   5.650   6.786  10.367 -0.7964 -0.4253  0.9305
  111OSM    HO311453   5.692   6.768  10.451  0.6344  0.1050  0.3491
  111OSM    C4S11454   5.628   6.980  10.221  0.1135  0.2910  0.6057
  111OSM    H4S11455   5.560   7.064  10.198 -1.8906 -1.3240  0.4758
  111OSM    C5S11456   5.700   6.941  10.119 -0.3253 -0.1226  0.0644
  111OSM    H5S11457   5.764   6.853  10.132 -0.7746 -0.2257  1.6763
  111OSM    C6S11458   5.702   7.009   9.987 -0.3147  0.3743 -0.2619
  111OSM    H6S11459   5.800   7.051   9.956 -0.6010  0.4395 -1.0741
  111OSM    H6T11460   5.624   7.087   9.982 -0.8746 -0.2134 -0.7653
  111OSM    C7S11461   5.662   6.910   9.873 -0.3670  0.4381 -0.2101
  111OSM    H7S11462   5.572   6.853   9.902 -0.4657  0.3387 -0.7211
  111OSM    H7T11463   5.741   6.833   9.858 -1.6375 -0.5316 -2.0543
  111OSM    C8S11464   5.631   6.985   9.742 -0.1694 -0.1148  1.2266
  111OSM    H8S11465   5.576   7.078   9.766  0.7225  0.7092  0.1884
  111OSM    H8T11466   5.564   6.932   9.672  0.8731 -1.1361  0.9869
  111OSM    C9S11467   5.750   7.027   9.653  0.3111 -0.0056  0.5497
  111OSM    H9S11468   5.801   6.939   9.609  2.0326  1.6313 -0.8230
  111OSM    H9T11469   5.821   7.087   9.714 -2.1423  1.3577  2.1810
  111OSM   C10S11470   5.712   7.111   9.528  0.4692  0.6500 -0.2193
  111OSM   H10S11471   5.688   7.210   9.572 -1.5729  0.7838 -1.5849
  111OSM   H10T11472   5.628   7.066   9.470  1.3984 -0.6644 -0.5862
  111OSM   C11S11473   5.829   7.117   9.437 -0.7923  0.2900  0.9213
  111OSM   H11S11474   5.860   7.016   9.403 -0.9573  0.2422  0.9092
  111OSM   H11T11475   5.909   7.152   9.505 -0.4178  2.5821 -0.6477
  111OSM   C12S11476   5.818   7.219   9.325 -0.5257  0.2061  0.8632
  111OSM   H12S11477   5.917   7.232   9.275 -0.8691  0.1245  0.1537
  111OSM   H12T11478   5.793   7.318   9.368 -0.8599  0.6286 -0.2709
  111OSM   C13S11479   5.708   7.191   9.225  0.6289  0.1101  0.0123
  111OSM   H13S11480   5.619   7.198   9.291  1.0047  0.7875  0.4538
  111OSM   H13T11481   5.703   7.083   9.202  0.3668  0.4247 -1.5218
  111OSM   C14S11482   5.711   7.286   9.099  0.5025 -0.4142 -0.6191
  111OSM   H14S11483   5.687   7.386   9.140  1.4780 -0.2407 -0.4456
  111OSM   H14T11484   5.629   7.257   9.030 -1.3215  1.4791  0.7025
  111OSM   C15S11485   5.836   7.283   9.017 -0.2425 -0.6117 -0.3910
  111OSM   H15S11486   5.915   7.239   9.081 -2.1943 -0.6073  2.0693
  111OSM   H15T11487   5.854   7.383   8.972  1.8580 -1.5904 -1.8600
  111OSM   C16S11488   5.828   7.186   8.897  0.0339 -0.2962  0.3564
  111OSM   H16S11489   5.922   7.200   8.840 -0.0048 -2.0555 -0.1579
  111OSM   H16T11490   5.749   7.228   8.831  1.7355  1.8760 -0.3784
  111OSM   C17S11491   5.815   7.038   8.936  0.1842 -0.0086  0.6200
  111OSM   H17S11492   5.707   7.022   8.956  0.2671  1.0055  1.9457
  111OSM   H17T11493   5.867   7.027   9.034  0.0020 -1.5744  0.5619
  111OSM   C18S11494   5.880   6.944   8.832  0.1912 -0.2905  0.5821
  111OSM   H18S11495   5.805   6.862   8.822 -1.0442  0.4983  2.9185
  111OSM   H18T11496   5.982   6.906   8.852 -0.0963 -0.9786  0.7562
  111OSM   H18U11497   5.876   6.989   8.731 -0.7048 -1.8139 -0.0694
  111OSM    C1F11498   5.762   7.250  10.528  0.6584 -0.1510  0.0528
  111OSM     OF11499   5.875   7.225  10.573 -0.0424 -0.1508  0.1331
  111OSM    C2F11500   5.720   7.393  10.518 -0.0672 -0.7988 -0.2501
  111OSM    H2F11501   5.680   7.436  10.612 -0.0902  0.6481 -0.9136
  111OSM    H2G11502   5.640   7.400  10.441  0.5949  1.3980 -0.7701
  111OSM    C3F11503   5.838   7.483  10.465  0.6462 -0.4067 -0.3471
  111OSM    H3F11504   5.921   7.476  10.539 -0.8699 -0.6781  1.3632
  111OSM    H3G11505   5.798   7.586  10.479 -1.4764 -1.3423  0.6952
  111OSM    C4F11506   5.885   7.466  10.318 -0.2463  0.1888 -0.2878
  111OSM    H4F11507   5.929   7.365  10.305  1.1853  0.2461  3.5360
  111OSM    H4G11508   5.966   7.541  10.314  0.1576 -0.2986 -1.6217
  111OSM    C5F11509   5.776   7.487  10.208 -0.8527 -0.2509  0.1161
  111OSM    H5F11510   5.716   7.574  10.243  0.3601  0.8962 -0.6384
  111OSM    H5G11511   5.707   7.400  10.206 -1.7414  0.3656  2.3095
  111OSM    C6F11512   5.824   7.509  10.066  0.0063  0.0061  0.5433
  111OSM    H6F11513   5.930   7.542  10.072  0.3322 -1.0204  0.5231
  111OSM    H6G11514   5.758   7.589  10.026 -0.6304  2.2778  5.7685
  111OSM    C7F11515   5.815   7.379   9.988  0.5168 -0.3190  0.1764
  111OSM    H7F11516   5.713   7.337  10.003 -0.4908  1.9580 -0.0310
  111OSM    H7G11517   5.883   7.298  10.022  1.0877 -0.0292 -0.2724
  111OSM    C8F11518   5.829   7.409   9.835  0.0813  0.5457  0.8349
  111OSM    H8F11519   5.745   7.479   9.815 -0.6361 -0.6267 -0.3051
  111OSM    H8G11520   5.806   7.317   9.778  1.5353  0.5303  0.2627
  111OSM    C9F11521   5.959   7.474   9.804  0.1499 -0.1971 -0.0340
  111OSM    H9F11522   6.047   7.438   9.860 -0.2701 -0.4000  0.5056
  111OSM   C10F11523   5.973   7.573   9.715 -0.3095 -0.1103  0.8755
  111OSM   H10F11524   6.078   7.593   9.691 -0.1555 -1.0103  0.7584
  111OSM   C11F11525   5.861   7.633   9.628 -0.8543  0.3179 -0.7544
  111OSM   H11F11526   5.830   7.734   9.663 -0.9988 -0.5106  1.5275
  111OSM   H11G11527   5.772   7.567   9.631  0.7029 -2.1697 -4.5710
  111OSM   C12F11528   5.910   7.627   9.482  0.5309  0.0387 -0.0033
  111OSM   H12F11529   5.956   7.533   9.444  0.1939 -0.8712  1.8131
  111OSM   H12G11530   5.997   7.696   9.468 -0.1724  1.1985  1.2050
  111OSM   C13F11531   5.794   7.664   9.383 -0.7101  1.0095 -0.6739
  111OSM   H13F11532   5.762   7.770   9.391 -0.5863  0.8125  3.1260
  111OSM   H13G11533   5.708   7.597   9.402 -0.5452  1.5020  1.9160
  111OSM   C14F11534   5.843   7.641   9.237  0.1080  0.0650 -0.4924
  111OSM   H14F11535   5.858   7.532   9.218  0.0926 -0.1132  0.5203
  111OSM   H14G11536   5.942   7.691   9.226  0.8569 -0.8190  1.8239
  111OSM   C15F11537   5.736   7.691   9.129  0.3524 -0.1629  0.4085
  111OSM   H15F11538   5.730   7.798   9.159  1.1279  0.4717 -1.5812
  111OSM   H15G11539   5.639   7.640   9.145  1.2965 -2.0658  0.1747
  111OSM   C16F11540   5.784   7.677   8.988  0.0040 -0.2120  0.5048
  111OSM   H16F11541   5.691   7.687   8.929  0.5759 -0.4325 -0.4474
  111OSM   H16G11542   5.841   7.584   8.963 -0.3455  0.1894 -1.8888
  111OSM   C17F11543   5.877   7.792   8.941 -0.0428  0.2992  0.5802
  111OSM   H17F11544   5.972   7.780   8.998 -0.2096  0.2866  0.8525
  111OSM   H17G11545   5.845   7.895   8.967 -2.7366 -0.4055  0.1379
  111OSM   C18F11546   5.918   7.775   8.795  0.1589  0.0428  0.2019
  111OSM   H18F11547   5.829   7.780   8.728  0.4209 -4.0685 -0.5720
  111OSM   H18G11548   5.966   7.675   8.787 -0.1496 -0.3426  2.6271
  111OSM   H18H11549   5.994   7.852   8.771 -0.0678  0.3765  0.5448
  112OSM      N11550   5.703   5.035  10.888 -0.5095  0.0260 -0.3280
  112OSM    C1511551   5.808   5.110  10.955 -0.0637  0.0485  0.0961
  112OSM   H15A11552   5.902   5.091  10.904 -0.7865 -1.1113 -0.8224
  112OSM   H15B11553   5.828   5.074  11.055  2.7424  3.4066  0.8393
  112OSM   H15C11554   5.798   5.217  10.952  0.1472  0.0910  0.7703
  112OSM    C1411555   5.709   5.065  10.742  0.9410 -0.3250  0.2700
  112OSM   H14A11556   5.630   5.015  10.686  0.1781  0.2499  0.8295
  112OSM   H14B11557   5.806   5.045  10.699  0.7209 -0.3822 -0.2121
  112OSM   H14C11558   5.687   5.170  10.739  3.2520  0.1590 -0.0224
  112OSM    C1311559   5.727   4.897  10.919 -0.0128  0.6161  0.4210
  112OSM   H13A11560   5.824   4.867  10.882 -1.0699 -2.3432 -0.1414
  112OSM   H13B11561   5.661   4.827  10.868  0.0141 -0.0808  1.3160
  112OSM   H13C11562   5.728   4.874  11.025  2.6929  3.0227  0.9728
  112OSM    C1211563   5.561   5.075  10.940  0.1745  0.3098 -0.1843
  112OSM   H12A11564   5.542   5.180  10.926  0.2904  0.8752  3.3400
  112OSM   H12B11565   5.565   5.077  11.048  3.8773  0.2164 -0.2584
  112OSM    C1111566   5.434   4.997  10.882 -0.2451 -0.5097  0.2278
  112OSM   H11A11567   5.449   4.887  10.890  2.5635 -0.3267 -1.9101
  112OSM   H11B11568   5.422   5.022  10.775 -0.4822  0.7909  0.5483
  112OSM      P11569   5.234   5.157  10.910 -0.1531  0.0816 -0.0484
  112OSM    O1311570   5.099   5.151  10.971  0.2494  0.3070  0.5500
  112OSM    O1411571   5.305   5.282  10.942 -0.4106 -0.4993  0.2104
  112OSM    O1111572   5.214   5.131  10.751  0.8247  0.0364 -1.2456
  112OSM    O1211573   5.324   5.034  10.958  0.4421 -0.0417  0.9522
  112OSM    C1S11574   5.143   5.015  10.700 -0.2559 -0.6285  0.2691
  112OSM    H1S11575   5.047   5.000  10.754 -1.2110  0.1456 -1.1782
  112OSM    H1T11576   5.207   4.925  10.707 -2.0811 -2.1031 -1.7385
  112OSM     NF11577   5.031   4.904  10.506 -0.2577  0.4373  0.4019
  112OSM    HNF11578   5.077   4.816  10.497 -1.2796 -0.1896  1.2260
  112OSM    C2S11579   5.103   5.023  10.546  0.0722  0.2844 -0.3753
  112OSM    H2S11580   5.046   5.116  10.526  1.5345  1.3103  0.1492
  112OSM    C3S11581   5.236   5.028  10.467  0.3935  0.4397  0.7975
  112OSM    H3S11582   5.301   4.940  10.485 -0.3621 -0.2846  0.0204
  112OSM     O311583   5.314   5.144  10.501  0.1929  0.1790  0.0856
  112OSM    HO311584   5.271   5.190  10.574 -0.6558  0.4167 -0.5635
  112OSM    C4S11585   5.198   5.038  10.323  0.4664  0.1101 -0.0905
  112OSM    H4S11586   5.154   5.135  10.294 -2.5421 -0.6945  1.6360
  112OSM    C5S11587   5.211   4.937  10.238  0.2137 -0.2205  0.4661
  112OSM    H5S11588   5.271   4.849  10.267  1.9527 -0.0145 -2.2730
  112OSM    C6S11589   5.165   4.943  10.099  0.3658 -0.3095 -0.5079
  112OSM    H6S11590   5.261   4.920  10.048  1.2209 -0.3609  1.0914
  112OSM    H6T11591   5.130   5.044  10.071  1.1634  0.5462  1.4937
  112OSM    C7S11592   5.069   4.825  10.084 -0.2065  0.4285 -0.3803
  112OSM    H7S11593   4.984   4.828  10.156 -0.1892 -1.1134 -0.2712
  112OSM    H7T11594   5.132   4.735  10.097  0.4443  1.3178  3.1103
  112OSM    C8S11595   4.991   4.826   9.955 -0.3907 -0.4335 -0.1208
  112OSM    H8S11596   5.056   4.842   9.867  0.4005 -5.0950 -0.5351
  112OSM    H8T11597   4.911   4.903   9.963 -0.4466 -0.4914 -0.1286
  112OSM    C9S11598   4.921   4.690   9.934  0.1016  0.4971  0.2430
  112OSM    H9S11599   4.886   4.643  10.029 -1.0605 -0.5706 -0.6952
  112OSM    H9T11600   4.994   4.622   9.886 -1.0799 -1.2471  0.8714
  112OSM   C10S11601   4.791   4.689   9.845  0.2838  0.1593  0.2591
  112OSM   H10S11602   4.831   4.729   9.750 -0.4326  0.3750  0.0413
  112OSM   H10T11603   4.713   4.755   9.888 -0.7578 -1.0425  0.2462
  112OSM   C11S11604   4.732   4.544   9.831 -0.0783  0.3651 -0.6641
  112OSM   H11S11605   4.674   4.519   9.923 -1.0138  1.2395 -1.0108
  112OSM   H11T11606   4.815   4.478   9.798  1.2065  1.6504 -0.1165
  112OSM   C12S11607   4.627   4.535   9.721 -1.0747 -0.9147  0.6853
  112OSM   H12S11608   4.533   4.584   9.753  1.0446  2.1511  2.5059
  112OSM   H12T11609   4.600   4.428   9.708  0.2142 -0.8628 -2.8200
  112OSM   C13S11610   4.667   4.589   9.584  0.5154  0.8302 -0.9158
  112OSM   H13S11611   4.709   4.691   9.587 -2.7578  2.2715 -2.1619
  112OSM   H13T11612   4.576   4.599   9.521 -0.4129 -1.2540  0.0322
  112OSM   C14S11613   4.769   4.491   9.521 -0.3841 -0.3430  0.2268
  112OSM   H14S11614   4.725   4.393   9.549 -1.6896  0.4606  0.9915
  112OSM   H14T11615   4.871   4.497   9.564 -0.5354  0.3066  0.4933
  112OSM   C15S11616   4.771   4.500   9.369  0.0034 -1.0086 -0.6460
  112OSM   H15S11617   4.667   4.508   9.331  0.0268  0.0206 -0.4935
  112OSM   H15T11618   4.819   4.411   9.322  0.8589 -1.4649  1.0611
  112OSM   C16S11619   4.842   4.629   9.321 -0.1427  0.1311  0.3940
  112OSM   H16S11620   4.938   4.640   9.375  0.5145 -1.1364 -0.5013
  112OSM   H16T11621   4.780   4.716   9.352 -1.1753 -0.2755 -0.4829
  112OSM   C17S11622   4.857   4.623   9.164  0.5445 -0.3993 -0.3232
  112OSM   H17S11623   4.925   4.539   9.139  0.5445 -0.9281  1.3833
  112OSM   H17T11624   4.913   4.714   9.134 -0.8148  1.0847  1.5405
  112OSM   C18S11625   4.736   4.615   9.072 -0.0581  0.6779 -0.5119
  112OSM   H18S11626   4.683   4.517   9.073 -1.2138  1.2980  0.3482
  112OSM   H18T11627   4.773   4.625   8.967 -2.0570  2.8703 -1.0482
  112OSM   H18U11628   4.663   4.692   9.105 -0.3879 -0.5641  1.7609
  112OSM    C1F11629   4.901   4.900  10.525  0.3670 -0.5765  0.6157
  112OSM     OF11630   4.843   4.983  10.595 -0.6017  1.0467  0.3514
  112OSM    C2F11631   4.842   4.771  10.475  0.3993 -0.6666  0.1602
  112OSM    H2F11632   4.835   4.697  10.558  0.7652 -0.4538  0.3871
  112OSM    H2G11633   4.911   4.727  10.400  0.3589 -0.9067  0.2636
  112OSM    C3F11634   4.705   4.794  10.418  0.4085 -0.0666 -0.3076
  112OSM    H3F11635   4.624   4.790  10.494  1.6468  3.8237  1.3296
  112OSM    H3G11636   4.679   4.701  10.363 -0.5032 -0.2171  0.3716
  112OSM    C4F11637   4.695   4.904  10.309 -0.5625 -0.1665  0.2590
  112OSM    H4F11638   4.794   4.904  10.258 -0.3737  2.0053  0.5813
  112OSM    H4G11639   4.672   4.999  10.361 -0.6211 -0.3200  0.5130
  112OSM    C5F11640   4.578   4.873  10.221 -0.0411  0.0753  0.4272
  112OSM    H5F11641   4.486   4.842  10.276  0.1577 -2.5551 -0.6887
  112OSM    H5G11642   4.596   4.790  10.150 -1.9633  0.1326 -0.1799
  112OSM    C6F11643   4.545   4.981  10.118 -0.7984 -0.0269  0.0293
  112OSM    H6F11644   4.626   5.001  10.045 -0.2132  2.9739  1.4075
  112OSM    H6G11645   4.516   5.076  10.168  1.0279  0.5071  0.1199
  112OSM    C7F11646   4.426   4.923  10.039 -0.3781 -0.3534 -0.3403
  112OSM    H7F11647   4.349   4.906  10.117  0.3497 -0.8109  0.2837
  112OSM    H7G11648   4.459   4.831   9.985 -0.4060  0.5741 -1.9894
  112OSM    C8F11649   4.373   5.027   9.939 -0.1446  0.8236 -0.5573
  112OSM    H8F11650   4.327   5.111   9.996  0.0102 -2.3660  4.5321
  112OSM    H8G11651   4.285   4.991   9.882 -1.2528  1.4223  0.7472
  112OSM    C9F11652   4.472   5.081   9.842  0.3768  0.1243  0.0373
  112OSM    H9F11653   4.489   5.189   9.854  0.2584 -0.0066  1.4477
  112OSM   C10F11654   4.519   5.027   9.731  0.2629  1.0522 -0.1998
  112OSM   H10F11655   4.580   5.094   9.668  0.2747  0.6542 -0.6105
  112OSM   C11F11656   4.486   4.885   9.684 -0.8018  0.4283  0.3081
  112OSM   H11F11657   4.415   4.833   9.752 -0.0858 -0.9955 -0.0229
  112OSM   H11G11658   4.577   4.823   9.695 -0.1774  1.7500  3.3711
  112OSM   C12F11659   4.437   4.887   9.536 -0.2888  0.8618  0.5566
  112OSM   H12F11660   4.350   4.955   9.522 -0.0296  1.3321  1.2075
  112OSM   H12G11661   4.389   4.789   9.512 -0.5661  0.5575  2.2415
  112OSM   C13F11662   4.548   4.919   9.432 -0.1727 -0.1481  0.1249
  112OSM   H13F11663   4.636   4.858   9.463  0.2276 -0.0537 -0.8060
  112OSM   H13G11664   4.566   5.026   9.455  0.8615 -0.3018  0.0651
  112OSM   C14F11665   4.512   4.903   9.290  0.1402  0.8464  0.4854
  112OSM   H14F11666   4.455   4.808   9.281  1.6162 -0.1308  1.2893
  112OSM   H14G11667   4.608   4.892   9.234 -0.4779  1.6626 -0.7522
  112OSM   C15F11668   4.433   5.017   9.225 -0.3700  0.0506  0.2343
  112OSM   H15F11669   4.503   5.104   9.219 -0.3028 -0.0869 -1.0245
  112OSM   H15G11670   4.343   5.049   9.281 -0.5899  1.6535 -0.9952
  112OSM   C16F11671   4.378   4.979   9.091 -0.5168  0.1193 -0.6544
  112OSM   H16F11672   4.335   4.876   9.092  0.4387 -0.2810 -0.0411
  112OSM   H16G11673   4.464   4.984   9.020 -1.4183 -0.2169 -1.7788
  112OSM   C17F11674   4.266   5.070   9.035 -0.5830 -0.3947  0.6954
  112OSM   H17F11675   4.287   5.175   9.066  1.3820 -1.2633  2.4554
  112OSM   H17G11676   4.168   5.048   9.081 -1.6122  0.4832 -1.0341
  112OSM   C18F11677   4.261   5.067   8.882  0.8889 -0.8175  0.2844
  112OSM   H18F11678   4.275   4.965   8.840  0.9825 -0.5628 -0.2937
  112OSM   H18G11679   4.347   5.128   8.848 -0.0541  0.9557  0.9799
  112OSM   H18H11680   4.164   5.113   8.855  0.4960 -0.2367  2.5712
  113OSM      N11681   5.072   4.806  11.145 -0.8091  0.2313  0.9372
  113OSM    C1511682   5.019   4.681  11.211 -0.8780  0.2623  0.8050
  113OSM   H15A11683   4.911   4.682  11.220 -1.2357 -1.9794 -2.3037
  113OSM   H15B11684   5.056   4.683  11.312 -0.1662 -1.1842  0.5847
  113OSM   H15C11685   5.059   4.597  11.156  0.7077  1.3141  0.3167
  113OSM    C1411686   4.996   4.919  11.207 -0.1869 -0.2031  0.2114
  113OSM   H14A11687   5.008   5.013  11.155  0.0766 -0.0665  0.5179
  113OSM   H14B11688   5.033   4.943  11.305  0.3459 -1.1273  0.2404
  113OSM   H14C11689   4.889   4.906  11.212 -0.2945  1.0960  1.3656
  113OSM    C1311690   5.219   4.823  11.184 -0.6807  0.0206 -0.1761
  113OSM   H13A11691   5.233   4.830  11.291  2.0848  2.9602 -0.6363
  113OSM   H13B11692   5.245   4.921  11.147  1.1980 -0.2262  0.4417
  113OSM   H13C11693   5.284   4.751  11.137 -1.9955 -1.3549  0.0570
  113OSM    C1211694   5.050   4.798  11.000  0.0755  0.1408 -0.5885
  113OSM   H12A11695   5.065   4.903  10.979  0.0068  0.4685  1.0068
  113OSM   H12B11696   4.944   4.802  10.978 -0.1668  0.7313  0.6462
  113OSM    C1111697   5.111   4.689  10.921 -0.3997 -0.2009  0.5372
  113OSM   H11A11698   5.216   4.675  10.953 -0.3147  0.5267  0.5656
  113OSM   H11B11699   5.100   4.727  10.817  1.7856  0.6517  0.6040
  113OSM      P11700   4.926   4.522  10.861  0.0640  0.3484 -0.1941
  113OSM    O1311701   4.871   4.391  10.904 -0.7868 -0.5103  0.3392
  113OSM    O1411702   4.828   4.617  10.831 -0.0607 -0.4287 -0.2646
  113OSM    O1111703   4.985   4.482  10.718  0.0696  0.1293  0.4301
  113OSM    O1211704   5.049   4.566  10.946 -0.2442  0.3313  0.0466
  113OSM    C1S11705   5.114   4.419  10.711  0.6345 -0.3786 -0.3109
  113OSM    H1S11706   5.117   4.322  10.765  0.6005  0.3104  0.9368
  113OSM    H1T11707   5.194   4.482  10.754  0.6414  0.0881 -0.9923
  113OSM     NF11708   5.264   4.292  10.566  0.3209 -0.3336  0.4245
  113OSM    HNF11709   5.356   4.327  10.550 -0.0741 -0.1592 -1.5980
  113OSM    C2S11710   5.159   4.384  10.558 -0.2585 -0.8891  0.6552
  113OSM    H2S11711   5.076   4.331  10.507  1.1910 -0.4953 -2.1638
  113OSM    C3S11712   5.196   4.514  10.485 -0.0667  0.2670 -0.6454
  113OSM    H3S11713   5.282   4.558  10.540  0.7764 -1.9284 -0.1254
  113OSM     O311714   5.090   4.609  10.500  0.8435  0.2997  0.1955
  113OSM    HO311715   5.027   4.573  10.562  2.2005 -1.0430  0.8245
  113OSM    C4S11716   5.221   4.503  10.337 -0.2657 -1.1342 -0.3082
  113OSM    H4S11717   5.124   4.500  10.286  0.8601 -2.4962 -2.4502
  113OSM    C5S11718   5.338   4.520  10.276  0.1887 -0.1555  0.1943
  113OSM    H5S11719   5.438   4.522  10.323 -0.2259 -1.0240  1.1159
  113OSM    C6S11720   5.341   4.506  10.122  0.2646 -0.0007  0.3202
  113OSM    H6S11721   5.247   4.471  10.075  1.0726 -0.6748 -0.8112
  113OSM    H6T11722   5.405   4.416  10.109  2.2137  1.5746 -1.2187
  113OSM    C7S11723   5.416   4.621  10.042 -0.6909 -0.5750  0.7397
  113OSM    H7S11724   5.512   4.645  10.093 -0.7976 -0.3820  0.8510
  113OSM    H7T11725   5.347   4.708  10.040  0.0947  0.0680  1.2745
  113OSM    C8S11726   5.455   4.590   9.893 -0.0581  0.7094 -0.1433
  113OSM    H8S11727   5.529   4.507   9.894 -0.5783  0.2467 -0.0839
  113OSM    H8T11728   5.504   4.676   9.842 -1.6982  0.6127 -1.9483
  113OSM    C9S11729   5.336   4.550   9.806  0.0064  0.3043  0.6627
  113OSM    H9S11730   5.258   4.629   9.806 -0.4895 -0.1825  0.2729
  113OSM    H9T11731   5.299   4.452   9.845  0.7949 -0.9585 -1.6493
  113OSM   C10S11732   5.364   4.515   9.664  0.2548 -0.5179  0.4432
  113OSM   H10S11733   5.377   4.406   9.649  0.9546 -0.1455 -1.7448
  113OSM   H10T11734   5.468   4.541   9.637 -0.2960  1.2389 -0.0163
  113OSM   C11S11735   5.270   4.583   9.565 -0.0295  0.6586 -0.3202
  113OSM   H11S11736   5.262   4.692   9.586  1.1250  0.4432  1.3375
  113OSM   H11T11737   5.166   4.549   9.583  0.2960 -0.2876 -0.1977
  113OSM   C12S11738   5.314   4.573   9.419  0.2362 -0.6183  0.3842
  113OSM   H12S11739   5.318   4.462   9.409  1.9424 -0.6466  1.2735
  113OSM   H12T11740   5.418   4.608   9.404  0.2469 -1.7378 -2.3519
  113OSM   C13S11741   5.220   4.630   9.321  0.2292  0.2332  0.0415
  113OSM   H13S11742   5.215   4.740   9.335  0.8682  0.1547  0.8844
  113OSM   H13T11743   5.122   4.577   9.324 -0.6799  1.7917 -1.2357
  113OSM   C14S11744   5.275   4.614   9.178  0.8816 -0.0256  0.4472
  113OSM   H14S11745   5.257   4.507   9.151  0.9164  0.3183 -1.0243
  113OSM   H14T11746   5.383   4.640   9.172  0.8536  0.4295  1.9032
  113OSM   C15S11747   5.206   4.705   9.071  0.6690  0.1494  0.1152
  113OSM   H15S11748   5.217   4.810   9.105 -0.3116  0.3037 -0.0322
  113OSM   H15T11749   5.099   4.677   9.059  0.9638 -0.7571 -0.4365
  113OSM   C16S11750   5.256   4.684   8.929  0.4736  0.1830 -0.0357
  113OSM   H16S11751   5.206   4.596   8.883 -0.0233 -0.3719  1.5363
  113OSM   H16T11752   5.366   4.667   8.934  0.5845  1.5885  3.7024
  113OSM   C17S11753   5.230   4.803   8.839  0.4558 -0.1227 -0.4331
  113OSM   H17S11754   5.314   4.808   8.766  0.8053 -1.9713 -0.2010
  113OSM   H17T11755   5.243   4.898   8.894 -1.7265  0.4771 -0.9133
  113OSM   C18S11756   5.091   4.800   8.789  0.2904  0.0091 -0.0270
  113OSM   H18S11757   5.078   4.881   8.714 -2.4027 -0.4505 -0.0932
  113OSM   H18T11758   5.022   4.814   8.875 -0.2999 -0.1252 -0.4780
  113OSM   H18U11759   5.072   4.708   8.730  1.6808  0.6283 -1.4745
  113OSM    C1F11760   5.237   4.162  10.595 -0.2047 -0.2381 -0.1355
  113OSM     OF11761   5.122   4.122  10.608 -0.3669 -0.0055 -0.4897
  113OSM    C2F11762   5.343   4.059  10.620 -0.1243  0.1131  0.0735
  113OSM    H2F11763   5.330   4.012  10.720  0.4428 -0.1502  0.0221
  113OSM    H2G11764   5.440   4.109  10.638  1.6876 -3.1191 -0.3749
  113OSM    C3F11765   5.344   3.947  10.510  0.3764 -0.1374  0.4161
  113OSM    H3F11766   5.383   3.989  10.415 -0.2003 -1.0961 -0.2468
  113OSM    H3G11767   5.239   3.915  10.497 -0.1617  0.7391  2.3639
  113OSM    C4F11768   5.431   3.829  10.563 -0.6485  0.5530  0.4250
  113OSM    H4F11769   5.374   3.785  10.648 -0.7803 -1.7453 -0.8240
  113OSM    H4G11770   5.521   3.873  10.612  1.4097 -2.9360 -0.0703
  113OSM    C5F11771   5.484   3.727  10.465  0.3348  0.0422 -0.7730
  113OSM    H5F11772   5.524   3.638  10.518  1.5615  0.6413 -0.6720
  113OSM    H5G11773   5.561   3.773  10.400  1.4106 -0.7266 -0.0655
  113OSM    C6F11774   5.368   3.663  10.376  0.1952 -0.7926 -0.1150
  113OSM    H6F11775   5.311   3.748  10.333  0.3499  0.0879  1.3859
  113OSM    H6G11776   5.295   3.614  10.445  0.8947 -1.1874  0.3543
  113OSM    C7F11777   5.427   3.559  10.274  0.1443  0.2663  0.9958
  113OSM    H7F11778   5.344   3.500  10.231  0.9357 -0.2431  0.1580
  113OSM    H7G11779   5.501   3.492  10.322  1.5037  0.7892 -0.3189
  113OSM    C8F11780   5.506   3.630  10.163 -0.1811  0.0430 -0.3378
  113OSM    H8F11781   5.581   3.677  10.230 -1.1726  0.1458  0.7147
  113OSM    H8G11782   5.446   3.713  10.121 -0.6385 -0.1981 -0.1708
  113OSM    C9F11783   5.566   3.532  10.063  0.2283 -0.3796 -0.2638
  113OSM    H9F11784   5.651   3.478  10.109 -0.9713 -0.5204  1.8290
  113OSM   C10F11785   5.519   3.508   9.940 -0.2525  0.3611  0.2911
  113OSM   H10F11786   5.557   3.421   9.884 -0.2150  0.7608 -0.3153
  113OSM   C11F11787   5.401   3.580   9.879 -0.1790  0.0020 -0.7039
  113OSM   H11F11788   5.369   3.652   9.957  0.0906  1.4529 -1.9181
  113OSM   H11G11789   5.316   3.512   9.854  0.5108 -0.9215 -0.5613
  113OSM   C12F11790   5.439   3.656   9.752 -0.6255 -0.7796 -0.3228
  113OSM   H12F11791   5.511   3.736   9.776 -2.6312  0.5945  1.2933
  113OSM   H12G11792   5.346   3.701   9.709 -0.1503 -0.0846 -0.6304
  113OSM   C13F11793   5.504   3.566   9.643 -0.3468 -0.9483  0.3847
  113OSM   H13F11794   5.431   3.487   9.617  0.6008 -1.6261 -0.2841
  113OSM   H13G11795   5.590   3.519   9.696 -1.3965 -3.3270  0.0082
  113OSM   C14F11796   5.542   3.647   9.515  0.1831  0.1526 -0.7230
  113OSM   H14F11797   5.628   3.592   9.471 -0.4869 -1.2146 -0.3431
  113OSM   H14G11798   5.577   3.748   9.544  2.7558 -0.6332 -0.9346
  113OSM   C15F11799   5.425   3.660   9.424 -0.2437  0.4008  0.6104
  113OSM   H15F11800   5.347   3.719   9.475  1.8048  2.7839  1.1129
  113OSM   H15G11801   5.381   3.558   9.422  0.3501  0.1329  0.9250
  113OSM   C16F11802   5.447   3.710   9.282 -0.1162  0.3934 -1.0708
  113OSM   H16F11803   5.480   3.631   9.211  1.5229 -0.1431  0.2576
  113OSM   H16G11804   5.519   3.793   9.297  0.7272 -0.4518 -0.3925
  113OSM   C17F11805   5.311   3.769   9.235 -0.1479  0.3026  0.5973
  113OSM   H17F11806   5.292   3.862   9.294  1.8624  0.0519  1.6824
  113OSM   H17G11807   5.233   3.691   9.235 -1.1001  1.2229  2.4593
  113OSM   C18F11808   5.316   3.806   9.088  0.2261  0.2500  0.2087
  113OSM   H18F11809   5.331   3.712   9.030 -0.7037  0.4803 -0.4203
  113OSM   H18G11810   5.405   3.871   9.077 -0.2980  0.9750  0.1776
  113OSM   H18H11811   5.229   3.866   9.054  1.0915  2.2997  1.5146
  114OSM      N11812   5.592   3.483  11.502 -0.0088  0.0300 -0.6400
  114OSM    C1511813   5.698   3.541  11.594 -0.8541  0.2328 -0.1143
  114OSM   H15A11814   5.713   3.479  11.680 -1.8845 -0.8837 -0.7182
  114OSM   H15B11815   5.691   3.644  11.626 -0.2157  0.2187  0.0774
  114OSM   H15C11816   5.791   3.534  11.538 -1.4248 -0.5280 -0.9890
  114OSM    C1411817   5.455   3.482  11.579 -0.1533 -1.1962 -0.3199
  114OSM   H14A11818   5.426   3.585  11.594  1.4889 -0.8390  0.6052
  114OSM   H14B11819   5.464   3.423  11.669  0.6044  0.0139  0.4176
  114OSM   H14C11820   5.383   3.437  11.513 -1.8815 -1.9996  2.0198
  114OSM    C1311821   5.567   3.561  11.374 -0.0479  0.0241 -0.0725
  114OSM   H13A11822   5.472   3.534  11.329  0.1692  0.8239 -1.0249
  114OSM   H13B11823   5.632   3.548  11.289 -2.2218 -0.2155 -1.7516
  114OSM   H13C11824   5.550   3.664  11.402 -1.3674 -0.1351 -0.2369
  114OSM    C1211825   5.630   3.342  11.462 -0.7216  0.2638  0.5392
  114OSM   H12A11826   5.546   3.289  11.420  0.7530 -0.8103 -1.1351
  114OSM   H12B11827   5.647   3.281  11.550  0.9015  0.2752  0.2560
  114OSM    C1111828   5.752   3.327  11.362 -0.5728  0.4430  0.3602
  114OSM   H11A11829   5.724   3.374  11.266  1.6346 -0.9944 -1.0526
  114OSM   H11B11830   5.754   3.218  11.338 -1.9931  0.3214  0.7402
  114OSM      P11831   5.991   3.279  11.457  0.3331 -0.1496  0.2467
  114OSM    O1311832   6.091   3.349  11.535  0.1933  0.2317  0.2703
  114OSM    O1411833   5.932   3.158  11.520 -0.2977  0.3107 -0.5161
  114OSM    O1111834   6.047   3.230  11.319  0.0178  0.2763  0.5643
  114OSM    O1211835   5.872   3.373  11.419 -0.2226  0.7138  0.2118
  114OSM    C1S11836   6.121   3.319  11.229 -0.1042  0.0467 -0.3732
  114OSM    H1S11837   6.203   3.362  11.291 -2.6234  3.1270  0.9176
  114OSM    H1T11838   6.073   3.416  11.204  0.0991  0.4772  0.8743
  114OSM     NF11839   6.249   3.324  11.010 -0.6109 -0.0828  0.0729
  114OSM    HNF11840   6.217   3.351  10.919 -0.3146  0.2597  0.0634
  114OSM    C2S11841   6.170   3.243  11.101 -0.0190  0.0560  0.5452
  114OSM    H2S11842   6.220   3.150  11.137 -2.3524 -0.3274  2.9365
  114OSM    C3S11843   6.042   3.190  11.029  0.5637  0.2219  0.4095
  114OSM    H3S11844   5.980   3.277  10.998  0.3563  0.0682  0.3929
  114OSM     O311845   5.959   3.110  11.117  0.2320 -0.1026 -0.7981
  114OSM    HO311846   5.981   3.140  11.205  0.7769  0.6415 -1.1827
  114OSM    C4S11847   6.085   3.115  10.901  0.1233  0.5962 -0.1753
  114OSM    H4S11848   6.159   3.034  10.907  0.0850  0.3316 -2.5387
  114OSM    C5S11849   6.037   3.148  10.774  0.1046  0.2600  0.0434
  114OSM    H5S11850   5.968   3.233  10.762  0.5299  0.2817 -2.4443
  114OSM    C6S11851   6.077   3.088  10.644 -0.5597  0.3111 -0.1824
  114OSM    H6S11852   5.985   3.071  10.584  0.1028 -1.3738 -0.7682
  114OSM    H6T11853   6.113   2.986  10.672  2.4169  0.8588 -1.8699
  114OSM    C7S11854   6.165   3.154  10.541  0.2030 -0.4568 -0.0171
  114OSM    H7S11855   6.271   3.145  10.574 -0.6092 -2.2499  2.2495
  114OSM    H7T11856   6.150   3.264  10.537  1.9191 -0.1043  2.2085
  114OSM    C8S11857   6.149   3.107  10.393  0.4535 -0.0947  0.0739
  114OSM    H8S11858   6.043   3.078  10.374  1.2190 -1.6295 -1.9539
  114OSM    H8T11859   6.203   3.014  10.365  0.1492 -0.7525  1.6403
  114OSM    C9S11860   6.194   3.210  10.288  0.1994  0.0552 -0.7453
  114OSM    H9S11861   6.302   3.231  10.299  0.6535 -2.0004 -1.2024
  114OSM    H9T11862   6.133   3.302  10.304 -1.2090 -1.0544  0.4708
  114OSM   C10S11863   6.192   3.154  10.147 -0.4053 -0.2042 -0.3851
  114OSM   H10S11864   6.086   3.126  10.131 -1.1337  2.1946 -0.0406
  114OSM   H10T11865   6.254   3.062  10.145  0.1228  0.1159  0.9001
  114OSM   C11S11866   6.247   3.255  10.041  0.5131  0.1798  0.7708
  114OSM   H11S11867   6.338   3.305  10.080  1.7042 -0.9705 -0.5109
  114OSM   H11T11868   6.176   3.341  10.040  0.3422  0.0429  1.0745
  114OSM   C12S11869   6.254   3.188   9.903  0.7607  0.1896 -0.4910
  114OSM   H12S11870   6.160   3.134   9.881  1.2398 -0.2959 -1.3914
  114OSM   H12T11871   6.325   3.102   9.904 -2.9459 -3.0254 -0.7161
  114OSM   C13S11872   6.283   3.291   9.793 -0.3607  0.4428 -0.4176
  114OSM   H13S11873   6.388   3.325   9.787 -0.1509 -0.2897 -1.0485
  114OSM   H13T11874   6.217   3.376   9.820  0.7078  0.8956  0.7945
  114OSM   C14S11875   6.246   3.232   9.655  0.0311 -0.0755 -0.0191
  114OSM   H14S11876   6.154   3.170   9.664  0.3714 -0.3557  1.6936
  114OSM   H14T11877   6.321   3.155   9.626  0.2516  0.5232 -1.0678
  114OSM   C15S11878   6.243   3.329   9.542  0.7865  0.0093 -0.0184
  114OSM   H15S11879   6.314   3.415   9.550  2.2475 -0.9957 -1.9712
  114OSM   H15T11880   6.145   3.379   9.554  0.8975 -0.0854  1.3168
  114OSM   C16S11881   6.252   3.263   9.404 -0.1300  0.0361 -1.0563
  114OSM   H16S11882   6.174   3.184   9.399  1.5477 -1.7022 -0.3797
  114OSM   H16T11883   6.338   3.192   9.409 -0.1072  0.1110 -0.1817
  114OSM   C17S11884   6.236   3.349   9.280  0.0684  0.2447  0.2644
  114OSM   H17S11885   6.131   3.386   9.279  0.7953  2.4523  1.4026
  114OSM   H17T11886   6.242   3.281   9.193  1.8571  1.6988 -0.7884
  114OSM   C18S11887   6.331   3.470   9.277 -0.3355 -0.8492  0.1909
  114OSM   H18S11888   6.432   3.426   9.289 -0.8912 -2.8256 -1.9598
  114OSM   H18T11889   6.321   3.537   9.365 -1.2828  0.4666 -0.8867
  114OSM   H18U11890   6.317   3.537   9.190  0.5252 -1.2268 -0.2423
  114OSM    C1F11891   6.366   3.380  11.045  0.0038  0.4083  0.6449
  114OSM     OF11892   6.408   3.386  11.161 -0.3484  0.3477 -0.1078
  114OSM    C2F11893   6.451   3.436  10.932 -0.0407  0.1829 -0.4741
  114OSM    H2F11894   6.484   3.539  10.957  0.2347  0.1652 -0.7604
  114OSM    H2G11895   6.378   3.441  10.849 -1.4206  0.1571  0.7138
  114OSM    C3F11896   6.567   3.339  10.907  0.0370  0.1535 -0.2745
  114OSM    H3F11897   6.539   3.232  10.900  1.6089 -0.1715 -2.0273
  114OSM    H3G11898   6.632   3.338  10.998  0.1484  0.6672 -0.3444
  114OSM    C4F11899   6.653   3.368  10.780  0.3162  0.0944  0.3727
  114OSM    H4F11900   6.737   3.295  10.778 -0.7395 -1.1722  1.7965
  114OSM    H4G11901   6.696   3.471  10.782 -0.1916  0.3081  3.3318
  114OSM    C5F11902   6.578   3.372  10.645 -0.1387 -0.0042 -0.0391
  114OSM    H5F11903   6.504   3.454  10.657 -0.7322 -0.3214 -1.4183
  114OSM    H5G11904   6.509   3.289  10.618  0.6955 -0.4582 -0.7827
  114OSM    C6F11905   6.670   3.407  10.524  0.1065 -0.2445  0.1367
  114OSM    H6F11906   6.765   3.356  10.552 -1.5292 -1.0251  4.6029
  114OSM    H6G11907   6.691   3.516  10.526 -1.5788  0.0795  2.5509
  114OSM    C7F11908   6.615   3.371  10.387  1.1336  0.6384 -0.3693
  114OSM    H7F11909   6.604   3.261  10.376  3.3819  0.5311 -1.8537
  114OSM    H7G11910   6.704   3.397  10.327  0.9898  0.2968 -0.7319
  114OSM    C8F11911   6.492   3.446  10.346  0.1744  0.3867 -0.0424
  114OSM    H8F11912   6.404   3.420  10.409 -0.7697  0.9282 -1.1219
  114OSM    H8G11913   6.457   3.410  10.247  1.1668 -0.2965 -0.1464
  114OSM    C9F11914   6.511   3.594  10.334  0.1267  0.2844  0.2926
  114OSM    H9F11915   6.480   3.653  10.421  0.3811  1.0936 -0.1633
  114OSM   C10F11916   6.563   3.665  10.235  0.0459  0.1953 -0.0294
  114OSM   H10F11917   6.587   3.772  10.239  0.2054  0.1398  0.6287
  114OSM   C11F11918   6.621   3.605  10.115  0.1683 -0.1512  0.6188
  114OSM   H11F11919   6.563   3.647  10.029 -1.9776  0.5200  2.3410
  114OSM   H11G11920   6.619   3.495  10.103  4.2141 -0.3738  1.3982
  114OSM   C12F11921   6.773   3.635  10.118 -0.3476 -0.7458 -0.0833
  114OSM   H12F11922   6.834   3.585  10.197  0.4491 -1.5788 -1.2120
  114OSM   H12G11923   6.784   3.743  10.138 -1.4379 -0.9063  1.4997
  114OSM   C13F11924   6.845   3.602   9.985  0.0699  0.2641 -0.5093
  114OSM   H13F11925   6.888   3.499   9.987  0.0959  0.2877  2.8551
  114OSM   H13G11926   6.937   3.664   9.985  0.3923 -0.1152  2.9297
  114OSM   C14F11927   6.764   3.635   9.858 -0.1857  0.3550  0.3528
  114OSM   H14F11928   6.738   3.743   9.847  1.4071  0.7848  0.7274
  114OSM   H14G11929   6.670   3.576   9.867 -0.6934  1.1235  0.1773
  114OSM   C15F11930   6.843   3.577   9.738 -0.3141  0.1373  0.0260
  114OSM   H15F11931   6.872   3.470   9.748  0.9389  0.3825 -0.8821
  114OSM   H15G11932   6.939   3.632   9.730  0.6323 -1.2518  1.5275
  114OSM   C16F11933   6.767   3.605   9.609 -0.4048 -0.0346  0.6392
  114OSM   H16F11934   6.746   3.714   9.598 -0.0558  0.0548  0.8252
  114OSM   H16G11935   6.674   3.546   9.622 -1.3238  1.2883  0.0932
  114OSM   C17F11936   6.833   3.550   9.483 -0.4874  0.1393  0.7025
  114OSM   H17F11937   6.876   3.451   9.508 -1.4147 -0.0444  1.5772
  114OSM   H17G11938   6.925   3.613   9.475 -1.0405  0.7730 -1.0824
  114OSM   C18F11939   6.749   3.566   9.353 -0.1451  0.7507  0.4635
  114OSM   H18F11940   6.817   3.529   9.273 -1.6085  1.4079 -1.0991
  114OSM   H18G11941   6.719   3.670   9.331  0.5379  0.1797 -3.5106
  114OSM   H18H11942   6.661   3.498   9.349  0.0678  0.3360  2.4958
  115OSM      N11943   1.491   6.522   6.262  0.3569 -0.9121  0.0881
  115OSM    C1511944   1.484   6.418   6.147 -0.1116  0.3459 -0.0180
  115OSM   H15A11945   1.474   6.317   6.185  0.9691  0.7196  1.2987
  115OSM   H15B11946   1.579   6.413   6.095  0.4971  2.6945  0.8119
  115OSM   H15C11947   1.394   6.429   6.089  2.0372 -0.1932 -3.5990
  115OSM    C1411948   1.586   6.462   6.358 -0.6251 -0.6233 -0.5574
  115OSM   H14A11949   1.550   6.365   6.389 -1.8994  0.6578  2.0964
  115OSM   H14B11950   1.602   6.517   6.449  0.9732 -0.2273 -1.0532
  115OSM   H14C11951   1.688   6.450   6.322 -0.3555  1.9785 -0.7413
  115OSM    C1311952   1.542   6.661   6.222  0.4418  0.3728 -0.1591
  115OSM   H13A11953   1.563   6.725   6.306  1.3143  2.2397 -1.7410
  115OSM   H13B11954   1.463   6.692   6.155 -0.3841 -0.3620  0.4704
  115OSM   H13C11955   1.637   6.656   6.171  0.8446  1.2314  0.4940
  115OSM    C1211956   1.361   6.539   6.332 -0.1359  0.0531 -0.4776
  115OSM   H12A11957   1.370   6.609   6.414 -0.9626  1.6570 -1.7380
  115OSM   H12B11958   1.332   6.450   6.386 -0.3909  1.3334  1.5646
  115OSM    C1111959   1.238   6.580   6.251  0.0517  0.3224 -0.2655
  115OSM   H11A11960   1.254   6.671   6.189  0.5851 -1.4633 -2.8475
  115OSM   H11B11961   1.145   6.603   6.307 -1.4132 -2.7167 -1.2824
  115OSM      P11962   1.106   6.369   6.170  0.0887 -0.4783  0.4121
  115OSM    O1311963   0.978   6.434   6.124 -0.1118 -0.7182 -0.0607
  115OSM    O1411964   1.158   6.244   6.106  0.0418 -1.1747 -0.1758
  115OSM    O1111965   1.100   6.352   6.327 -0.0323 -0.5346  0.7523
  115OSM    O1211966   1.215   6.476   6.158  0.4585  0.1600 -0.4985
  115OSM    C1S11967   1.179   6.270   6.413  0.3772  0.3972 -0.0288
  115OSM    H1S11968   1.288   6.265   6.389  0.1747  0.8678 -1.0701
  115OSM    H1T11969   1.137   6.167   6.405 -1.2883  1.1887 -1.7466
  115OSM     NF11970   1.247   6.240   6.650 -0.7756  0.0826  0.1811
  115OSM    HNF11971   1.198   6.181   6.713 -1.6889  0.0149 -0.5732
  115OSM    C2S11972   1.173   6.326   6.557  0.2205  0.7751 -0.8677
  115OSM    H2S11973   1.210   6.429   6.573 -0.0853  0.3099  3.2960
  115OSM    C3S11974   1.024   6.333   6.610 -0.2889  0.0690  0.6089
  115OSM    H3S11975   0.997   6.227   6.629 -0.0447 -0.0822  0.1077
  115OSM     O311976   0.925   6.391   6.521 -0.3331 -0.6737  0.2309
  115OSM    HO311977   0.985   6.444   6.468  0.7867 -2.9258 -0.8510
  115OSM    C4S11978   1.016   6.400   6.744 -0.4062 -0.6564  0.6359
  115OSM    H4S11979   1.027   6.334   6.832 -0.4281 -2.2350 -0.5242
  115OSM    C5S11980   1.002   6.529   6.771 -0.4356 -0.4859  0.6738
  115OSM    H5S11981   0.994   6.608   6.695 -1.2293 -2.2347 -1.1363
  115OSM    C6S11982   1.001   6.588   6.906  0.5116  0.0436 -0.2651
  115OSM    H6S11983   0.896   6.614   6.931  0.1157 -0.7500 -1.0903
  115OSM    H6T11984   1.056   6.685   6.900  0.9587  0.0733  3.0684
  115OSM    C7S11985   1.072   6.510   7.020  0.0974  0.1985  0.1977
  115OSM    H7S11986   1.117   6.592   7.079 -2.6883  2.3336 -0.5124
  115OSM    H7T11987   1.156   6.450   6.979  0.6770 -0.3090  2.0967
  115OSM    C8S11988   0.981   6.413   7.105  0.5543 -0.1830  0.4023
  115OSM    H8S11989   0.919   6.359   7.029 -0.5202  2.0770 -0.3821
  115OSM    H8T11990   0.906   6.472   7.162 -0.2563 -0.9519  0.1380
  115OSM    C9S11991   1.066   6.315   7.183  0.2475 -0.2720 -0.4929
  115OSM    H9S11992   1.109   6.365   7.272 -0.4613 -0.7411  0.1136
  115OSM    H9T11993   1.155   6.297   7.119  1.1795 -0.4800  0.8422
  115OSM   C10S11994   0.981   6.192   7.214  0.9134 -0.6295  1.2511
  115OSM   H10S11995   0.949   6.143   7.120 -1.0023  0.9319  1.0644
  115OSM   H10T11996   0.885   6.220   7.262  1.1535 -0.9725  1.9394
  115OSM   C11S11997   1.058   6.079   7.289  0.3399 -0.0725  0.1023
  115OSM   H11S11998   1.146   6.043   7.231 -0.6498  0.3456 -1.7007
  115OSM   H11T11999   0.987   5.994   7.278  1.0308 -0.3530 -2.7011
  115OSM   C12S12000   1.083   6.100   7.437 -0.4063 -0.4550  0.1426
  115OSM   H12S12001   0.985   6.116   7.487 -0.1438  1.3481  0.0907
  115OSM   H12T12002   1.146   6.191   7.444 -2.1040  0.8395 -0.7472
  115OSM   C13S12003   1.150   5.970   7.489  0.2026  1.0319  0.5395
  115OSM   H13S12004   1.247   5.945   7.442 -0.3523 -0.7977  0.3585
  115OSM   H13T12005   1.087   5.883   7.463  0.9862  1.0311 -1.3677
  115OSM   C14S12006   1.176   5.988   7.640  0.2439 -0.0783 -0.2764
  115OSM   H14S12007   1.087   6.035   7.687  0.9794 -1.4689  2.5710
  115OSM   H14T12008   1.258   6.059   7.664  0.5803 -1.4530  2.8797
  115OSM   C15S12009   1.199   5.859   7.713 -0.7399 -0.3729  0.7390
  115OSM   H15S12010   1.126   5.778   7.688 -0.5810 -0.0210 -0.9165
  115OSM   H15T12011   1.178   5.882   7.820 -1.0434 -1.5378  0.9370
  115OSM   C16S12012   1.337   5.796   7.696  0.5392  0.0953  0.5269
  115OSM   H16S12013   1.424   5.862   7.716 -0.3002  1.4122 -0.1243
  115OSM   H16T12014   1.352   5.773   7.588 -2.1161 -0.6531  0.2883
  115OSM   C17S12015   1.346   5.671   7.771 -0.3536  0.2799 -0.2171
  115OSM   H17S12016   1.261   5.601   7.753  0.2937 -0.3989 -0.6769
  115OSM   H17T12017   1.341   5.690   7.881  1.2104 -0.3483 -0.0269
  115OSM   C18S12018   1.482   5.595   7.747 -0.0262 -1.0634 -0.2962
  115OSM   H18S12019   1.564   5.667   7.769 -2.4253  1.4378  0.8110
  115OSM   H18T12020   1.502   5.571   7.641  0.7770 -0.6165 -0.2528
  115OSM   H18U12021   1.488   5.506   7.813 -2.2940  0.3210  1.8918
  115OSM    C1F12022   1.381   6.235   6.648  0.1169  0.0519  0.1384
  115OSM     OF12023   1.442   6.316   6.581  0.0915  0.4646  0.0688
  115OSM    C2F12024   1.451   6.141   6.740  0.3038  0.3537  0.1315
  115OSM    H2F12025   1.525   6.091   6.673 -0.3900 -0.1707 -0.2552
  115OSM    H2G12026   1.385   6.064   6.785  1.7613 -0.3916  1.0346
  115OSM    C3F12027   1.543   6.219   6.839  0.8459  0.2841  0.0745
  115OSM    H3F12028   1.615   6.284   6.785  1.1500 -1.5265 -1.7369
  115OSM    H3G12029   1.603   6.149   6.901  0.6509 -0.1244 -0.1997
  115OSM    C4F12030   1.474   6.302   6.952  0.6788 -0.1897  0.0135
  115OSM    H4F12031   1.391   6.244   6.996  0.7466 -0.4498 -0.1996
  115OSM    H4G12032   1.423   6.390   6.907  0.2794  1.0775  2.8307
  115OSM    C5F12033   1.560   6.355   7.069 -0.3918 -0.1761 -0.2414
  115OSM    H5F12034   1.620   6.441   7.034 -1.7451  0.7002 -0.4282
  115OSM    H5G12035   1.623   6.265   7.081  0.9812  0.5083 -2.1332
  115OSM    C6F12036   1.486   6.396   7.193  0.5165 -0.1024 -0.1153
  115OSM    H6F12037   1.422   6.308   7.215  0.6574  0.0717  0.9922
  115OSM    H6G12038   1.418   6.477   7.159  1.5878  1.6077  1.7447
  115OSM    C7F12039   1.577   6.438   7.307 -0.1628 -0.5263  0.3720
  115OSM    H7F12040   1.621   6.539   7.294 -2.6574  0.5365 -0.0766
  115OSM    H7G12041   1.662   6.366   7.315  0.1481 -0.3148 -0.9298
  115OSM    C8F12042   1.508   6.429   7.449  0.1739  0.5360  0.0090
  115OSM    H8F12043   1.416   6.491   7.445 -0.0861  0.1687  0.3398
  115OSM    H8G12044   1.572   6.481   7.523 -0.2621  0.0995  0.7048
  115OSM    C9F12045   1.477   6.286   7.479  0.4658 -0.5505  0.2208
  115OSM    H9F12046   1.401   6.243   7.411  0.1100  1.4890 -0.6998
  115OSM   C10F12047   1.526   6.204   7.574  0.3212  0.1038 -0.3276
  115OSM   H10F12048   1.470   6.111   7.589 -0.3136  0.7851  1.5675
  115OSM   C11F12049   1.630   6.238   7.680  0.0012 -0.9925 -0.3623
  115OSM   H11F12050   1.673   6.339   7.662  0.6773 -1.0786  0.7350
  115OSM   H11G12051   1.716   6.170   7.669  0.6330 -0.0539 -1.3171
  115OSM   C12F12052   1.583   6.226   7.819 -0.1410 -0.0304 -0.3202
  115OSM   H12F12053   1.669   6.209   7.888 -1.3900  3.5738  2.2834
  115OSM   H12G12054   1.516   6.139   7.836  0.0181 -0.4606 -1.8879
  115OSM   C13F12055   1.512   6.352   7.874  0.0176  0.6437  0.8666
  115OSM   H13F12056   1.438   6.382   7.798  0.4296  1.5441  0.8168
  115OSM   H13G12057   1.591   6.428   7.893  0.5482  0.3273 -0.0008
  115OSM   C14F12058   1.438   6.325   8.008 -0.7312 -0.1306 -0.7429
  115OSM   H14F12059   1.516   6.297   8.082 -1.0395 -0.4549 -0.5341
  115OSM   H14G12060   1.372   6.237   7.991 -0.8384 -0.1891 -0.0402
  115OSM   C15F12061   1.356   6.442   8.049  0.2287 -0.7647  0.8764
  115OSM   H15F12062   1.301   6.480   7.960 -0.4117 -3.2802  0.1630
  115OSM   H15G12063   1.411   6.532   8.084 -0.2425 -0.0436 -0.2067
  115OSM   C16F12064   1.247   6.401   8.148 -0.3449 -0.0157  0.1347
  115OSM   H16F12065   1.155   6.357   8.104  1.5171 -2.7193 -1.2208
  115OSM   H16G12066   1.206   6.499   8.180  0.4818  0.2621  0.3682
  115OSM   C17F12067   1.297   6.323   8.275  0.4547 -0.7020  0.2897
  115OSM   H17F12068   1.339   6.226   8.240 -0.4503 -0.5336 -1.2849
  115OSM   H17G12069   1.210   6.290   8.335  0.8365 -0.1876  1.1463
  115OSM   C18F12070   1.398   6.403   8.358  0.0656  0.8128  0.1112
  115OSM   H18F12071   1.492   6.415   8.301 -0.4914 -1.1594 -1.3047
  115OSM   H18G12072   1.419   6.356   8.456 -1.6454 -0.3742 -0.0588
  115OSM   H18H12073   1.363   6.506   8.381  0.1032  1.5112 -2.7472
  116OSM      N12074   1.363   4.138   6.237 -0.2015  0.2118 -0.2325
  116OSM    C1512075   1.236   4.196   6.183  0.4879 -0.6872  0.5712
  116OSM   H15A12076   1.225   4.299   6.212 -1.9250 -0.2287 -1.8581
  116OSM   H15B12077   1.155   4.125   6.191  0.2352 -1.0045 -3.5836
  116OSM   H15C12078   1.234   4.204   6.075 -1.2195 -0.9989  0.5698
  116OSM    C1412079   1.456   4.248   6.262  0.1755  0.5863  0.5316
  116OSM   H14A12080   1.461   4.303   6.169 -0.7386  0.4717  0.4165
  116OSM   H14B12081   1.554   4.222   6.300  0.3309  0.4776  0.0573
  116OSM   H14C12082   1.415   4.317   6.334 -1.8149 -1.0227  0.9730
  116OSM    C1312083   1.346   4.059   6.366 -0.1354 -0.2819 -0.0724
  116OSM   H13A12084   1.443   4.021   6.394  0.4510  1.2707  0.0277
  116OSM   H13B12085   1.283   3.972   6.353 -1.7768  0.9801 -0.8300
  116OSM   H13C12086   1.306   4.116   6.449 -1.0706 -0.6357 -0.2648
  116OSM    C1212087   1.411   4.040   6.134  0.0009  0.2051  0.0221
  116OSM   H12A12088   1.507   4.004   6.169  0.3157 -0.1696 -1.1932
  116OSM   H12B12089   1.432   4.085   6.038 -1.0452 -1.4684 -1.0143
  116OSM    C1112090   1.318   3.913   6.117  0.1171 -0.1100 -0.0376
  116OSM   H11A12091   1.335   3.860   6.021 -2.6653  0.1302 -0.7099
  116OSM   H11B12092   1.214   3.951   6.116  0.5649  1.1481 -0.1170
  116OSM      P12093   1.216   3.729   6.275 -0.4200 -0.2598  0.3667
  116OSM    O1312094   1.099   3.757   6.190  0.2625 -0.6079  0.3174
  116OSM    O1412095   1.267   3.591   6.280 -0.2693  0.1537 -0.1814
  116OSM    O1112096   1.189   3.782   6.425 -0.2420 -0.1018 -0.0899
  116OSM    O1212097   1.338   3.822   6.228 -0.4297  0.6963 -0.0497
  116OSM    C1S12098   1.254   3.724   6.534  0.7013  0.2751  0.9445
  116OSM    H1S12099   1.359   3.757   6.524  0.5518  0.3078 -0.4970
  116OSM    H1T12100   1.248   3.614   6.525  0.4096  0.4830 -1.6976
  116OSM     NF12101   1.263   3.714   6.793  0.2203  0.1544  0.4289
  116OSM    HNF12102   1.214   3.656   6.857 -1.1603 -0.1628 -0.8659
  116OSM    C2S12103   1.190   3.757   6.669 -0.2199  0.5851  0.3125
  116OSM    H2S12104   1.201   3.867   6.672 -1.1095  0.6954 -0.2641
  116OSM    C3S12105   1.037   3.722   6.668 -0.5790 -0.4525 -0.6467
  116OSM    H3S12106   1.028   3.613   6.686 -0.1056 -0.1976  1.1503
  116OSM     O312107   0.969   3.751   6.543  0.2778 -0.3038  0.9270
  116OSM    HO312108   1.046   3.767   6.487  0.4364 -0.6407  1.0504
  116OSM    C4S12109   0.970   3.792   6.782  0.2247 -0.7462  0.4324
  116OSM    H4S12110   0.956   3.728   6.871 -1.0562  1.0209  1.5297
  116OSM    C5S12111   0.939   3.919   6.794 -0.8100 -0.1328  0.0721
  116OSM    H5S12112   0.961   3.984   6.708  0.1083  0.5858  0.8307
  116OSM    C6S12113   0.884   4.006   6.903 -0.1176  0.5987 -0.0255
  116OSM    H6S12114   0.786   4.045   6.869  0.0579 -0.8171 -2.2633
  116OSM    H6T12115   0.951   4.094   6.912  1.3325 -0.5326  0.4061
  116OSM    C7S12116   0.853   3.939   7.040 -0.2471  0.1442  0.0143
  116OSM    H7S12117   0.943   3.929   7.104  0.9115 -2.4058 -1.9098
  116OSM    H7T12118   0.816   3.837   7.016  1.5896 -0.5467  0.0640
  116OSM    C8S12119   0.744   4.024   7.109  0.4665  0.7469 -0.1379
  116OSM    H8S12120   0.658   4.019   7.039  1.3163  1.2006 -1.2270
  116OSM    H8T12121   0.782   4.127   7.120  1.0322  0.6997 -1.4786
  116OSM    C9S12122   0.709   3.972   7.251 -1.1537 -0.1533  0.2497
  116OSM    H9S12123   0.800   3.973   7.313  0.7816 -4.7833 -2.2807
  116OSM    H9T12124   0.681   3.866   7.231 -1.9188  0.1484 -0.3200
  116OSM   C10S12125   0.598   4.061   7.317 -0.9147 -0.9740  0.3003
  116OSM   H10S12126   0.511   4.048   7.249  0.3550  1.0009 -1.7952
  116OSM   H10T12127   0.628   4.168   7.322  1.1216 -1.5112  0.0832
  116OSM   C11S12128   0.568   4.014   7.453 -0.1770 -0.6553 -0.2620
  116OSM   H11S12129   0.651   3.993   7.524  0.0873  0.8216 -0.1249
  116OSM   H11T12130   0.517   3.915   7.460 -1.6187  0.1441  0.7265
  116OSM   C12S12131   0.462   4.109   7.520 -0.3018  0.4550  0.0274
  116OSM   H12S12132   0.367   4.117   7.463 -1.7209  3.2286  2.5757
  116OSM   H12T12133   0.513   4.207   7.534  1.1507 -0.3976  0.7593
  116OSM   C13S12134   0.416   4.061   7.661 -0.4228  0.7940  0.7645
  116OSM   H13S12135   0.423   3.950   7.662  2.9392  0.9358  0.3932
  116OSM   H13T12136   0.306   4.070   7.671 -0.7974 -1.9690 -0.4347
  116OSM   C14S12137   0.479   4.128   7.778 -0.1474  0.4617  0.3373
  116OSM   H14S12138   0.451   4.234   7.793 -1.8731 -0.0585  0.8406
  116OSM   H14T12139   0.590   4.121   7.765 -0.0334  0.1303  1.4955
  116OSM   C15S12140   0.441   4.068   7.912 -0.6307  0.4066  0.3263
  116OSM   H15S12141   0.450   3.957   7.907  0.3014  0.4983 -0.0623
  116OSM   H15T12142   0.334   4.092   7.933 -0.1113  1.8763  1.3210
  116OSM   C16S12143   0.525   4.126   8.024  0.6593 -0.2551  0.1274
  116OSM   H16S12144   0.495   4.233   8.021  1.1478 -0.1556 -2.5899
  116OSM   H16T12145   0.631   4.107   7.996  0.0964 -1.4169 -1.3105
  116OSM   C17S12146   0.497   4.065   8.165 -0.2054 -0.7527 -0.4261
  116OSM   H17S12147   0.524   3.957   8.160  0.4179 -0.6771  0.9415
  116OSM   H17T12148   0.388   4.074   8.185  0.0587 -0.5953  0.9835
  116OSM   C18S12149   0.587   4.132   8.267 -0.0724 -0.1374  0.9395
  116OSM   H18S12150   0.697   4.115   8.258  0.0277  0.3602  1.2045
  116OSM   H18T12151   0.552   4.107   8.369 -2.5748  1.4725  0.5087
  116OSM   H18U12152   0.559   4.239   8.260  0.5033  0.0204  0.9978
  116OSM    C1F12153   1.387   3.738   6.822 -0.5238 -0.2125 -0.0916
  116OSM     OF12154   1.455   3.811   6.750  0.0613  0.9259  0.2606
  116OSM    C2F12155   1.442   3.660   6.936 -0.0224  0.4153 -0.2136
  116OSM    H2F12156   1.422   3.552   6.917  2.3408 -0.7342  3.3694
  116OSM    H2G12157   1.390   3.681   7.031  3.0104 -0.2084  1.6691
  116OSM    C3F12158   1.590   3.701   6.958 -0.3849  0.4442 -0.0069
  116OSM    H3F12159   1.601   3.809   6.982  0.9534 -0.1616  2.2813
  116OSM    H3G12160   1.646   3.682   6.864 -1.2980 -0.1980 -0.4384
  116OSM    C4F12161   1.651   3.624   7.079 -0.0656  0.4571 -0.3421
  116OSM    H4F12162   1.576   3.625   7.162  0.0826 -2.2551 -0.1471
  116OSM    H4G12163   1.741   3.681   7.110 -0.1491 -0.2451  1.2095
  116OSM    C5F12164   1.689   3.476   7.048 -0.7236  0.4902  0.3493
  116OSM    H5F12165   1.800   3.479   7.041 -0.7721  0.2967 -0.5070
  116OSM    H5G12166   1.649   3.443   6.950 -0.2754 -0.9537  0.6298
  116OSM    C6F12167   1.638   3.376   7.154 -0.8908 -0.0905  0.6624
  116OSM    H6F12168   1.660   3.270   7.129  2.0565  0.5167  0.4482
  116OSM    H6G12169   1.527   3.371   7.150 -0.9362  1.8234 -3.2087
  116OSM    C7F12170   1.680   3.396   7.299  0.2041 -0.3657 -0.0822
  116OSM    H7F12171   1.640   3.494   7.331  1.0160 -0.6986  2.0971
  116OSM    H7G12172   1.789   3.382   7.313 -0.0664 -1.3985  1.1768
  116OSM    C8F12173   1.607   3.301   7.400  0.4002  0.6358 -0.7158
  116OSM    H8F12174   1.625   3.200   7.357 -0.8913  0.9899 -2.1435
  116OSM    H8G12175   1.499   3.319   7.420  0.5584 -1.5370  2.5141
  116OSM    C9F12176   1.675   3.319   7.530  0.0838 -0.0210 -0.2602
  116OSM    H9F12177   1.785   3.310   7.521  0.0697 -0.4594  0.0101
  116OSM   C10F12178   1.626   3.337   7.653 -0.0271  0.5088  0.1223
  116OSM   H10F12179   1.695   3.358   7.736 -1.4276  1.4411  1.0668
  116OSM   C11F12180   1.477   3.348   7.690  0.4739  0.2156 -0.0109
  116OSM   H11F12181   1.438   3.273   7.762 -1.6599 -0.9936 -2.3178
  116OSM   H11G12182   1.406   3.337   7.605  2.3666 -2.6727 -1.2951
  116OSM   C12F12183   1.443   3.485   7.768  0.2973  0.5552 -0.6267
  116OSM   H12F12184   1.331   3.482   7.768  0.2971  0.3706 -2.1660
  116OSM   H12G12185   1.464   3.571   7.702 -0.6180 -0.0784 -1.7669
  116OSM   C13F12186   1.520   3.498   7.901 -0.2231 -0.1705  0.3338
  116OSM   H13F12187   1.620   3.545   7.888 -0.7701  0.7709 -0.5131
  116OSM   H13G12188   1.531   3.395   7.942  1.2609  0.1776  0.8712
  116OSM   C14F12189   1.439   3.574   7.999  0.2500 -0.9489 -0.1011
  116OSM   H14F12190   1.337   3.533   8.012 -0.3974  0.3075 -1.1331
  116OSM   H14G12191   1.418   3.680   7.972  1.7817 -0.5270  0.2902
  116OSM   C15F12192   1.513   3.581   8.140  0.1098 -0.1667 -0.2853
  116OSM   H15F12193   1.620   3.603   8.121 -0.4417  4.2806  1.1455
  116OSM   H15G12194   1.515   3.476   8.177  0.6335  0.3788  1.2675
  116OSM   C16F12195   1.468   3.671   8.252 -0.5478 -0.1894 -0.2579
  116OSM   H16F12196   1.360   3.646   8.259 -0.7772  0.4072 -1.6149
  116OSM   H16G12197   1.470   3.775   8.212  0.7905 -0.9326 -2.1998
  116OSM   C17F12198   1.547   3.644   8.383 -0.3496 -0.3170  0.1556
  116OSM   H17F12199   1.658   3.634   8.378 -0.2720  0.3881  0.4236
  116OSM   H17G12200   1.508   3.549   8.425 -1.0991 -0.8185 -1.6249
  116OSM   C18F12201   1.526   3.749   8.492  0.3044  0.1703 -0.6995
  116OSM   H18F12202   1.577   3.844   8.468  0.0930  0.1770 -1.1226
  116OSM   H18G12203   1.578   3.705   8.580 -1.2993 -1.3508 -0.4745
  116OSM   H18H12204   1.419   3.778   8.506  0.8249  2.5416 -1.4833
  117OSM      N12205   6.145   5.673   5.982  0.0776  0.3805  0.2823
  117OSM    C1512206   6.191   5.699   5.848 -0.0498  0.1736 -0.3559
  117OSM   H15A12207   6.105   5.716   5.785 -0.3926  1.5237  0.4538
  117OSM   H15B12208   6.261   5.628   5.805  0.0810 -1.0299  1.7617
  117OSM   H15C12209   6.243   5.793   5.850  3.7096 -1.8358  1.5569
  117OSM    C1412210   6.031   5.769   6.008 -0.2779  0.5370  0.3870
  117OSM   H14A12211   5.968   5.725   6.084  1.1234 -0.7644  0.8328
  117OSM   H14B12212   5.988   5.791   5.911  1.9367  0.5551 -0.6328
  117OSM   H14C12213   6.065   5.864   6.046 -1.9339  0.4513  2.1345
  117OSM    C1312214   6.094   5.537   5.986 -0.2015 -0.3074  0.2866
  117OSM   H13A12215   6.167   5.464   5.953 -1.2110 -0.9431 -0.5555
  117OSM   H13B12216   6.002   5.528   5.931 -0.4232 -0.2639  0.6518
  117OSM   H13C12217   6.064   5.502   6.083 -1.7560  0.6713  0.1779
  117OSM    C1212218   6.260   5.698   6.087  0.2848  0.3809 -0.3145
  117OSM   H12A12219   6.329   5.618   6.069 -0.3042 -0.1513 -0.2195
  117OSM   H12B12220   6.221   5.680   6.186  1.0933 -1.7016 -0.3544
  117OSM    C1112221   6.333   5.833   6.095  1.2435 -0.2527 -0.2523
  117OSM   H11A12222   6.360   5.863   5.991 -2.7465  0.1172 -1.2569
  117OSM   H11B12223   6.424   5.819   6.158  0.9273 -1.3803 -0.0458
  117OSM      P12224   6.233   5.932   6.312  0.1010  0.0475 -0.4483
  117OSM    O1312225   6.364   5.976   6.362  0.0511 -0.1070  0.3240
  117OSM    O1412226   6.113   6.012   6.351 -0.1258  0.1337  0.9689
  117OSM    O1112227   6.205   5.776   6.351  0.3072  0.3080  0.1216
  117OSM    O1212228   6.237   5.926   6.157 -0.6502  0.2444 -0.0189
  117OSM    C1S12229   6.235   5.739   6.483  0.6308 -0.7625  0.2737
  117OSM    H1S12230   6.337   5.774   6.514  1.4324  0.3257 -3.3759
  117OSM    H1T12231   6.252   5.629   6.489 -0.0324 -0.9424 -1.2346
  117OSM     NF12232   6.178   5.724   6.721  0.3707  0.0090 -1.2191
  117OSM    HNF12233   6.119   5.650   6.753  0.8992 -0.6589 -1.7766
  117OSM    C2S12234   6.141   5.782   6.599 -0.0768  0.5373 -0.2476
  117OSM    H2S12235   6.145   5.891   6.615 -1.8573  0.4405  0.9975
  117OSM    C3S12236   5.987   5.745   6.563  0.1986 -0.1195 -0.1499
  117OSM    H3S12237   5.975   5.645   6.517 -0.1894  0.3729 -1.1470
  117OSM     O312238   5.923   5.841   6.479 -0.1204 -0.1815 -0.0891
  117OSM    HO312239   5.996   5.867   6.422  1.7916  0.5276  2.5844
  117OSM    C4S12240   5.902   5.747   6.689  0.1548  0.7587 -0.3115
  117OSM    H4S12241   5.861   5.846   6.712  2.0316  1.7728 -1.2676
  117OSM    C5S12242   5.858   5.633   6.744  0.1291  0.6252  0.0030
  117OSM    H5S12243   5.880   5.531   6.707  0.2298  1.3729 -2.0530
  117OSM    C6S12244   5.763   5.630   6.855 -0.2068 -0.5179 -0.0461
  117OSM    H6S12245   5.681   5.557   6.837  1.4476 -2.1130 -1.2790
  117OSM    H6T12246   5.704   5.724   6.870 -1.3319 -0.9808 -1.4534
  117OSM    C7S12247   5.834   5.590   6.989  0.2220 -0.2369 -0.0636
  117OSM    H7S12248   5.926   5.650   7.008  0.9656 -1.1981 -0.5659
  117OSM    H7T12249   5.852   5.481   6.988  0.7018 -0.1643  0.1953
  117OSM    C8S12250   5.756   5.604   7.125  0.7303 -0.0501  0.5255
  117OSM    H8S12251   5.655   5.560   7.108  1.6509 -2.4894  1.2701
  117OSM    H8T12252   5.753   5.713   7.147  1.7118  0.3984 -1.4479
  117OSM    C9S12253   5.824   5.548   7.250 -0.0694 -0.3268  0.0991
  117OSM    H9S12254   5.932   5.577   7.256  0.1234 -0.7893 -0.9504
  117OSM    H9T12255   5.827   5.438   7.242 -0.6244 -0.5122  2.2240
  117OSM   C10S12256   5.752   5.573   7.382  0.0647  0.0877 -0.5084
  117OSM   H10S12257   5.665   5.506   7.394 -0.2558  0.8655  1.8481
  117OSM   H10T12258   5.712   5.677   7.386  0.1921  0.1290 -0.2169
  117OSM   C11S12259   5.850   5.534   7.492  0.0187 -0.2429  0.0257
  117OSM   H11S12260   5.950   5.578   7.472 -0.3703 -0.1484 -1.7911
  117OSM   H11T12261   5.855   5.424   7.506  1.8838 -0.5144 -2.4224
  117OSM   C12S12262   5.803   5.588   7.628 -0.1779 -0.1915  0.8709
  117OSM   H12S12263   5.707   5.540   7.656 -0.3781 -0.2710  0.0710
  117OSM   H12T12264   5.784   5.698   7.627 -2.3270 -0.5438  0.0009
  117OSM   C13S12265   5.911   5.541   7.733  0.3740 -0.2258 -0.3523
  117OSM   H13S12266   6.010   5.589   7.723  0.3768  0.5647  2.7615
  117OSM   H13T12267   5.939   5.436   7.709 -1.8016 -0.5298 -1.7578
  117OSM   C14S12268   5.867   5.550   7.885 -0.2637 -0.3260 -0.5883
  117OSM   H14S12269   5.937   5.489   7.946  0.6267  0.9534 -0.3130
  117OSM   H14T12270   5.771   5.494   7.888  1.7679 -3.9121  0.2345
  117OSM   C15S12271   5.845   5.693   7.951 -0.5182 -0.3412 -0.7115
  117OSM   H15S12272   5.760   5.742   7.897 -1.5218 -1.0374  0.2141
  117OSM   H15T12273   5.935   5.753   7.926  1.0383 -1.9683  0.9528
  117OSM   C16S12274   5.815   5.677   8.097 -0.2258 -0.0838  0.4830
  117OSM   H16S12275   5.865   5.593   8.149 -1.7711 -1.5064 -0.2730
  117OSM   H16T12276   5.709   5.646   8.094 -0.3576  0.2974  1.1925
  117OSM   C17S12277   5.830   5.812   8.169  0.2354 -0.6306  0.5165
  117OSM   H17S12278   5.757   5.866   8.106 -0.1504 -0.0035  1.4904
  117OSM   H17T12279   5.932   5.854   8.154 -0.5188  1.0901  0.1118
  117OSM   C18S12280   5.802   5.800   8.313 -0.2403 -0.4656 -0.2019
  117OSM   H18S12281   5.877   5.743   8.372  1.5452  1.8546 -0.1500
  117OSM   H18T12282   5.704   5.749   8.324 -0.3468 -0.5387 -1.4346
  117OSM   H18U12283   5.795   5.899   8.362  0.2209  0.5964 -2.2473
  117OSM    C1F12284   6.286   5.750   6.787 -0.8739  0.5458 -0.0252
  117OSM     OF12285   6.349   5.854   6.752  0.0728 -0.3203 -0.0895
  117OSM    C2F12286   6.322   5.666   6.909 -0.3412  0.4150 -0.1699
  117OSM    H2F12287   6.433   5.659   6.915 -0.3817 -0.1730 -0.0092
  117OSM    H2G12288   6.278   5.566   6.890  2.1322 -0.4201 -1.7638
  117OSM    C3F12289   6.254   5.724   7.038  0.0289 -0.1867 -0.0447
  117OSM    H3F12290   6.146   5.738   7.019  0.1613 -0.3636 -0.9216
  117OSM    H3G12291   6.293   5.826   7.062  0.5457 -0.3181 -0.3273
  117OSM    C4F12292   6.265   5.636   7.161 -0.2813 -0.8151  0.6333
  117OSM    H4F12293   6.372   5.605   7.152 -0.9011 -2.9833  0.5061
  117OSM    H4G12294   6.199   5.548   7.146  0.5442 -0.8521 -3.6602
  117OSM    C5F12295   6.232   5.713   7.288  0.0259  0.1172  0.0237
  117OSM    H5F12296   6.124   5.720   7.312 -0.7698 -0.4226 -3.1655
  117OSM    H5G12297   6.270   5.817   7.279  0.4577 -0.0947 -0.5837
  117OSM    C6F12298   6.306   5.654   7.407 -0.1409  0.1144 -0.4058
  117OSM    H6F12299   6.411   5.621   7.394 -0.0721 -0.1403  0.7934
  117OSM    H6G12300   6.258   5.565   7.452  2.3833 -0.6546  0.8332
  117OSM    C7F12301   6.297   5.750   7.527 -1.0574  0.5541  0.7060
  117OSM    H7F12302   6.199   5.756   7.579 -1.0428  0.1664  0.7841
  117OSM    H7G12303   6.322   5.852   7.492 -2.3665  0.8510  0.6205
  117OSM    C8F12304   6.406   5.721   7.636  0.5184 -0.5376  0.3298
  117OSM    H8F12305   6.504   5.717   7.583 -0.5188  2.2113 -1.9121
  117OSM    H8G12306   6.390   5.621   7.682  0.3030 -0.6142  0.0859
  117OSM    C9F12307   6.428   5.821   7.749 -0.0865 -0.3554  0.3624
  117OSM    H9F12308   6.503   5.893   7.713  0.3758 -1.1814 -0.3634
  117OSM   C10F12309   6.375   5.819   7.875  0.1503  0.2163  0.2194
  117OSM   H10F12310   6.401   5.893   7.952 -0.3882 -1.1723  1.7605
  117OSM   C11F12311   6.292   5.716   7.945  0.0951 -0.2570  0.1299
  117OSM   H11F12312   6.276   5.619   7.895 -0.8423  0.1941 -0.4435
  117OSM   H11G12313   6.198   5.772   7.967  0.0427  0.3891 -1.6706
  117OSM   C12F12314   6.353   5.677   8.085  1.1028  0.0041 -0.0432
  117OSM   H12F12315   6.382   5.774   8.130  1.8614 -0.3256  0.1772
  117OSM   H12G12316   6.443   5.613   8.070  2.0825  1.0177  1.4424
  117OSM   C13F12317   6.250   5.602   8.173 -0.0321 -0.2051  0.1809
  117OSM   H13F12318   6.166   5.672   8.195  1.5757  0.9916  2.7145
  117OSM   H13G12319   6.296   5.575   8.271 -2.1362 -0.4514  1.1301
  117OSM   C14F12320   6.196   5.468   8.112  0.8062 -1.0590 -0.7401
  117OSM   H14F12321   6.280   5.396   8.101  1.8470 -0.6345  3.5594
  117OSM   H14G12322   6.154   5.503   8.016  2.0890  2.3780 -0.1101
  117OSM   C15F12323   6.086   5.420   8.200 -0.3608 -0.6602  0.8226
  117OSM   H15F12324   5.998   5.392   8.137  1.3345 -0.0660 -1.8809
  117OSM   H15G12325   6.047   5.503   8.263 -0.3267  0.3636 -0.4796
  117OSM   C16F12326   6.136   5.305   8.294  0.8942  0.2004 -0.3080
  117OSM   H16F12327   6.242   5.330   8.317  0.3525 -0.6251  3.3123
  117OSM   H16G12328   6.150   5.213   8.234 -0.0663  0.0934 -0.3734
  117OSM   C17F12329   6.040   5.287   8.413 -0.0594  0.0387 -0.1503
  117OSM   H17F12330   5.937   5.308   8.377  0.7290  2.0050 -1.3833
  117OSM   H17G12331   6.041   5.187   8.462 -2.6012 -1.2179 -2.5011
  117OSM   C18F12332   6.084   5.374   8.531 -0.0607 -0.1774  0.1652
  117OSM   H18F12333   6.063   5.483   8.522  0.8195  0.0880  1.3488
  117OSM   H18G12334   6.188   5.358   8.566 -0.5530 -3.8165  0.1849
  117OSM   H18H12335   6.023   5.333   8.614 -0.7453 -0.3526 -0.4199
  118OSM      N12336   2.269   0.640   6.276 -0.4074 -0.5424 -0.1218
  118OSM    C1512337   2.306   0.783   6.286 -0.4919 -0.2227  0.6319
  118OSM   H15A12338   2.358   0.819   6.198  0.2081 -1.8324  0.3701
  118OSM   H15B12339   2.373   0.800   6.369  0.2074 -0.0447  0.0432
  118OSM   H15C12340   2.218   0.844   6.299 -0.1176  0.8506 -1.5611
  118OSM    C1412341   2.388   0.554   6.249  0.2872 -0.1868  0.7096
  118OSM   H14A12342   2.349   0.460   6.214  2.9372  0.0222 -3.1921
  118OSM   H14B12343   2.448   0.528   6.335 -2.4040 -0.8754  2.4057
  118OSM   H14C12344   2.450   0.598   6.171 -1.0026  1.1344  0.3987
  118OSM    C1312345   2.217   0.601   6.405 -0.2928 -0.3605 -0.0961
  118OSM   H13A12346   2.198   0.495   6.393 -2.3339  0.1826 -1.9884
  118OSM   H13B12347   2.130   0.660   6.432 -0.2577 -0.5415  0.4189
  118OSM   H13C12348   2.285   0.612   6.489 -1.1330 -0.4136  0.6007
  118OSM    C1212349   2.178   0.623   6.164  0.5018 -0.8083  0.4589
  118OSM   H12A12350   2.139   0.522   6.159  1.8999 -1.2672 -1.4303
  118OSM   H12B12351   2.227   0.641   6.069  0.1017  2.3386  0.7677
  118OSM    C1112352   2.050   0.707   6.165  0.0035 -0.0539  0.0696
  118OSM   H11A12353   2.011   0.689   6.062  0.8771 -2.4475  0.1293
  118OSM   H11B12354   2.062   0.817   6.166  0.0807 -0.0645  0.5121
  118OSM      P12355   1.811   0.681   6.255  0.1500 -0.3193  0.1983
  118OSM    O1312356   1.778   0.794   6.167 -0.7388  0.7009 -0.2232
  118OSM    O1412357   1.746   0.548   6.217  0.1267  0.1263  0.2944
  118OSM    O1112358   1.749   0.733   6.390 -0.1930  0.0569  0.4576
  118OSM    O1212359   1.960   0.667   6.271 -0.3386  0.1066  0.0452
  118OSM    C1S12360   1.797   0.669   6.507  0.2322 -0.3738  0.0634
  118OSM    H1S12361   1.887   0.605   6.497  2.6576  2.8855  0.4890
  118OSM    H1T12362   1.723   0.598   6.550  0.5461 -1.2634 -0.8535
  118OSM     NF12363   1.881   0.694   6.731  0.7070  0.0389  0.1798
  118OSM    HNF12364   1.823   0.659   6.805 -1.5016 -1.0856 -1.9920
  118OSM    C2S12365   1.819   0.772   6.623  0.6343  0.0172  0.3215
  118OSM    H2S12366   1.888   0.855   6.594 -1.0518  1.1980 -0.3958
  118OSM    C3S12367   1.691   0.846   6.664 -0.4004 -0.1831  0.2573
  118OSM    H3S12368   1.619   0.771   6.707 -0.3472  0.7532  2.0351
  118OSM     O312369   1.613   0.899   6.554  0.3313 -0.1745 -0.6476
  118OSM    HO312370   1.639   0.849   6.477  1.6709 -2.6833  1.3320
  118OSM    C4S12371   1.718   0.961   6.756 -0.8953 -0.2715 -0.4627
  118OSM    H4S12372   1.711   1.063   6.716  0.4335  0.1224  0.2572
  118OSM    C5S12373   1.741   0.942   6.883 -0.4045 -0.5168 -0.1437
  118OSM    H5S12374   1.725   0.841   6.923 -0.2168  0.0696  1.4508
  118OSM    C6S12375   1.765   1.048   6.984  0.1491  0.8866  0.3906
  118OSM    H6S12376   1.756   1.150   6.942 -2.8396  0.2677 -0.5917
  118OSM    H6T12377   1.870   1.042   7.017  0.5116 -0.4510 -0.9534
  118OSM    C7S12378   1.665   1.041   7.107 -0.5338  0.0587  0.5465
  118OSM    H7S12379   1.560   1.034   7.070  0.5445 -0.7147 -2.4321
  118OSM    H7T12380   1.666   1.145   7.148  2.6745  0.6959 -1.0012
  118OSM    C8S12381   1.701   0.945   7.223 -0.2815  0.2985  0.5430
  118OSM    H8S12382   1.811   0.947   7.241 -0.4774  1.6625  1.6404
  118OSM    H8T12383   1.681   0.838   7.201  0.5799  0.1623  0.3931
  118OSM    C9S12384   1.634   0.992   7.354  0.1859  0.1422 -0.2991
  118OSM    H9S12385   1.523   1.000   7.349  0.1021 -0.1790  0.8832
  118OSM    H9T12386   1.671   1.095   7.372 -0.0009  0.0944  0.3617
  118OSM   C10S12387   1.682   0.910   7.474 -0.4469  0.0391  0.1043
  118OSM   H10S12388   1.789   0.934   7.489  0.1596 -2.7290  0.4160
  118OSM   H10T12389   1.680   0.803   7.443  3.1676  0.2042 -0.9077
  118OSM   C11S12390   1.595   0.930   7.601 -0.0255  0.3921  0.5644
  118OSM   H11S12391   1.490   0.912   7.569  0.1257 -1.3160  0.9701
  118OSM   H11T12392   1.596   1.037   7.631  1.5871  0.7943 -0.9055
  118OSM   C12S12393   1.643   0.842   7.719  0.4592 -0.1070 -0.0978
  118OSM   H12S12394   1.752   0.860   7.731  0.8541 -1.7958 -0.9468
  118OSM   H12T12395   1.622   0.735   7.697 -0.9258 -0.0000  0.6171
  118OSM   C13S12396   1.577   0.883   7.848 -0.3080 -0.2966  0.3232
  118OSM   H13S12397   1.476   0.838   7.840 -0.7571  0.9718 -1.4296
  118OSM   H13T12398   1.569   0.993   7.865 -0.7856 -0.4247  0.9518
  118OSM   C14S12399   1.639   0.820   7.975  0.1843 -0.0949 -0.2048
  118OSM   H14S12400   1.733   0.878   7.984  0.2551  0.1083 -2.0264
  118OSM   H14T12401   1.671   0.714   7.966 -1.8421 -0.8096  0.6608
  118OSM   C15S12402   1.554   0.836   8.096  0.4723 -0.0910  0.0404
  118OSM   H15S12403   1.477   0.914   8.080  0.9726  0.4243  0.1115
  118OSM   H15T12404   1.594   0.860   8.197  0.9387 -2.1366  0.3550
  118OSM   C16S12405   1.473   0.713   8.123 -0.1062 -0.5602 -0.2154
  118OSM   H16S12406   1.531   0.639   8.182 -1.3535 -0.0105  1.7470
  118OSM   H16T12407   1.446   0.669   8.024  1.7782 -0.4676 -0.7842
  118OSM   C17S12408   1.342   0.745   8.199  0.5436 -0.0183  0.0141
  118OSM   H17S12409   1.281   0.802   8.125  0.9398  0.0004 -0.2979
  118OSM   H17T12410   1.353   0.802   8.294 -1.1247  0.2806  0.0529
  118OSM   C18S12411   1.265   0.628   8.234  1.0056 -0.4074  0.4415
  118OSM   H18S12412   1.314   0.584   8.323  2.4079  1.3516  0.5644
  118OSM   H18T12413   1.261   0.547   8.158  0.6109 -0.0345  0.0639
  118OSM   H18U12414   1.165   0.658   8.272  0.7117 -1.1473  0.2594
  118OSM    C1F12415   2.005   0.650   6.725 -0.3143 -0.0383 -0.0726
  118OSM     OF12416   2.073   0.676   6.627 -0.1666  0.1230 -0.4687
  118OSM    C2F12417   2.065   0.570   6.838 -0.3980  0.6408  0.1317
  118OSM    H2F12418   2.163   0.530   6.806  0.6197  0.3630  3.3687
  118OSM    H2G12419   2.000   0.481   6.856 -1.0409  1.1751  0.4827
  118OSM    C3F12420   2.076   0.637   6.971  0.0039  0.3223 -0.1410
  118OSM    H3F12421   2.076   0.563   7.053 -0.7105 -0.9910 -1.3118
  118OSM    H3G12422   1.989   0.704   6.989  0.7595  0.9078  1.4670
  118OSM    C4F12423   2.196   0.731   6.974  0.0685  0.3868  0.8947
  118OSM    H4F12424   2.220   0.771   6.873 -0.6659 -0.7381  0.2656
  118OSM    H4G12425   2.284   0.675   7.011 -0.1259 -0.9236 -0.5870
  118OSM    C5F12426   2.175   0.850   7.066 -0.3806  0.0355 -0.3169
  118OSM    H5F12427   2.098   0.920   7.029  2.1399  2.6011 -0.8523
  118OSM    H5G12428   2.273   0.903   7.058  0.3302 -1.3278 -0.8313
  118OSM    C6F12429   2.155   0.807   7.217 -0.6669  0.2189 -0.5055
  118OSM    H6F12430   2.244   0.748   7.248  0.4761  1.5088 -1.3058
  118OSM    H6G12431   2.059   0.750   7.217 -2.0068  2.4189  1.0088
  118OSM    C7F12432   2.144   0.925   7.308  0.2676  0.2054  0.0342
  118OSM    H7F12433   2.056   0.987   7.280 -0.2192  0.1910  1.4721
  118OSM    H7G12434   2.237   0.983   7.287  0.4450 -0.4940 -1.1552
  118OSM    C8F12435   2.147   0.880   7.458 -0.3334  0.5049  0.1778
  118OSM    H8F12436   2.216   0.793   7.463 -0.4675  0.4524  1.3450
  118OSM    H8G12437   2.042   0.855   7.486 -1.0358  1.1088 -1.8757
  118OSM    C9F12438   2.184   0.992   7.552  0.8620 -0.2497 -0.0380
  118OSM    H9F12439   2.123   1.083   7.545 -1.1638 -1.6215 -0.3777
  118OSM   C10F12440   2.286   0.990   7.638 -0.3296 -0.4999  0.5409
  118OSM   H10F12441   2.306   1.080   7.699 -3.2751 -0.0126  0.8707
  118OSM   C11F12442   2.396   0.888   7.658 -0.0969 -1.0862 -0.2554
  118OSM   H11F12443   2.389   0.801   7.589 -2.0873 -1.7651  0.7387
  118OSM   H11G12444   2.377   0.852   7.762 -0.0711  1.7845  0.7783
  118OSM   C12F12445   2.536   0.939   7.627  0.2898  0.0102  0.3384
  118OSM   H12F12446   2.550   0.965   7.519 -0.7574  1.9400  0.6405
  118OSM   H12G12447   2.611   0.858   7.638  0.8529  0.4732 -0.0474
  118OSM   C13F12448   2.577   1.048   7.721 -0.1604 -0.6777  0.2098
  118OSM   H13F12449   2.529   1.146   7.701 -0.0763 -0.7487 -0.3557
  118OSM   H13G12450   2.684   1.066   7.695 -0.6288  1.0698 -0.6314
  118OSM   C14F12451   2.559   1.015   7.871 -0.3531  0.7429 -0.0405
  118OSM   H14F12452   2.593   0.911   7.890  0.2849  1.1519  1.0580
  118OSM   H14G12453   2.452   1.024   7.901 -0.4489  1.2453 -0.5308
  118OSM   C15F12454   2.639   1.113   7.955 -0.2153  0.6440  0.0460
  118OSM   H15F12455   2.575   1.202   7.973 -0.2241  0.5384  0.5576
  118OSM   H15G12456   2.731   1.150   7.905  0.4976 -0.4165  0.5375
  118OSM   C16F12457   2.671   1.049   8.089  0.7159 -0.7408  0.0395
  118OSM   H16F12458   2.749   1.106   8.143  1.3164 -1.7316  0.2437
  118OSM   H16G12459   2.712   0.946   8.075 -0.9362 -1.3345 -0.5476
  118OSM   C17F12460   2.556   1.052   8.189  0.0782 -0.2584  0.2068
  118OSM   H17F12461   2.464   1.005   8.150  2.0468 -3.9257 -0.2523
  118OSM   H17G12462   2.541   1.159   8.217  0.0460  0.3494 -2.0716
  118OSM   C18F12463   2.587   0.971   8.318 -0.5376  0.5777 -0.2794
  118OSM   H18F12464   2.603   0.863   8.296 -2.9243  0.6783 -2.6695
  118OSM   H18G12465   2.507   0.997   8.390 -1.1925  0.1624 -0.8552
  118OSM   H18H12466   2.683   1.006   8.362  1.1332 -0.7265 -2.7839
  119OSM      N12467   3.614   0.595   5.807  0.0355  0.2482  1.0199
  119OSM    C1512468   3.671   0.732   5.813  0.2566  0.1749 -0.3570
  119OSM   H15A12469   3.585   0.794   5.830  0.6017  0.0039  2.1740
  119OSM   H15B12470   3.720   0.774   5.726  0.8653 -1.1469 -0.6607
  119OSM   H15C12471   3.728   0.736   5.904 -0.4502  1.9444  0.0313
  119OSM    C1412472   3.514   0.589   5.692 -0.1697 -0.3656  0.1851
  119OSM   H14A12473   3.565   0.599   5.597 -0.3786  0.4087  0.1510
  119OSM   H14B12474   3.449   0.675   5.695 -0.4766 -0.6080  0.3937
  119OSM   H14C12475   3.451   0.502   5.684 -1.1654  0.3955 -0.3721
  119OSM    C1312476   3.727   0.504   5.784  0.6416  0.4455 -0.1258
  119OSM   H13A12477   3.753   0.520   5.680 -0.4952 -2.2502 -0.8930
  119OSM   H13B12478   3.702   0.400   5.800  1.6101  0.2853  0.4172
  119OSM   H13C12479   3.816   0.532   5.838 -1.3320  0.8222  3.0267
  119OSM    C1212480   3.544   0.563   5.937 -0.3787 -0.3792  0.7585
  119OSM   H12A12481   3.606   0.577   6.025  0.1888 -2.5828  0.7146
  119OSM   H12B12482   3.527   0.457   5.940  0.5241 -0.5419 -0.0630
  119OSM    C1112483   3.414   0.648   5.976 -0.3238  0.8168 -0.6507
  119OSM   H11A12484   3.428   0.751   5.934  0.4569  0.8792 -0.2387
  119OSM   H11B12485   3.391   0.659   6.084  0.4364  0.0490 -0.4045
  119OSM      P12486   3.188   0.654   5.842  0.4285 -0.3662 -0.1371
  119OSM    O1312487   3.233   0.729   5.724 -0.2560 -0.4898 -0.3386
  119OSM    O1412488   3.086   0.550   5.807  0.1904  0.3344 -0.3439
  119OSM    O1112489   3.140   0.755   5.943  0.3185  0.6354  0.4105
  119OSM    O1212490   3.308   0.584   5.910  0.8896 -0.3648  0.4531
  119OSM    C1S12491   3.067   0.714   6.060  0.5401 -0.6938  0.0710
  119OSM    H1S12492   3.079   0.606   6.086  0.4088 -0.8825 -0.6410
  119OSM    H1T12493   2.961   0.730   6.028  1.0404 -1.5808 -2.1002
  119OSM     NF12494   3.036   0.768   6.303  0.4644 -0.9639  0.0675
  119OSM    HNF12495   2.968   0.826   6.348 -0.3533 -1.1391 -0.9219
  119OSM    C2S12496   3.101   0.813   6.180  0.0323 -0.3054  0.3345
  119OSM    H2S12497   3.212   0.807   6.191 -0.0167  0.5737  1.4219
  119OSM    C3S12498   3.069   0.962   6.141  0.5511 -0.0779 -0.0622
  119OSM    H3S12499   2.960   0.968   6.117  1.7013  1.8418 -5.4540
  119OSM     O312500   3.127   1.007   6.013 -0.0091  0.4130  0.0101
  119OSM    HO312501   3.154   0.923   5.975 -3.8319  0.2381 -2.6989
  119OSM    C4S12502   3.097   1.054   6.259  0.6011  0.4227 -0.5353
  119OSM    H4S12503   3.190   1.041   6.317  0.3444  2.0430  0.2715
  119OSM    C5S12504   3.026   1.164   6.284 -0.0746 -0.0964 -0.4726
  119OSM    H5S12505   2.953   1.206   6.212 -0.6903  1.9833  1.3013
  119OSM    C6S12506   3.057   1.263   6.394 -0.8395  0.3245 -0.4228
  119OSM    H6S12507   3.068   1.369   6.363  0.4883  0.6534  1.1012
  119OSM    H6T12508   3.161   1.253   6.432 -0.9301 -0.7133 -0.4461
  119OSM    C7S12509   2.956   1.257   6.510  0.6196  0.9323 -0.1545
  119OSM    H7S12510   2.854   1.270   6.466 -0.8025 -3.6269  1.4495
  119OSM    H7T12511   2.989   1.342   6.574  1.8053 -0.3362  0.9400
  119OSM    C8S12512   2.968   1.139   6.607 -0.0421 -0.5590  0.4544
  119OSM    H8S12513   3.053   1.166   6.673  0.1990  1.9813 -0.8501
  119OSM    H8T12514   2.991   1.037   6.570  0.6913  0.2728 -1.4317
  119OSM    C9S12515   2.839   1.126   6.685  0.4176  0.1243  0.3482
  119OSM    H9S12516   2.844   1.029   6.739 -1.0019 -0.6350 -0.8363
  119OSM    H9T12517   2.754   1.127   6.613 -0.7878 -2.1651  1.6686
  119OSM   C10S12518   2.820   1.237   6.790  0.1022 -0.4939 -0.7804
  119OSM   H10S12519   2.813   1.336   6.739 -1.1466  0.5138  1.2367
  119OSM   H10T12520   2.911   1.232   6.853 -0.1576 -1.1030 -0.4473
  119OSM   C11S12521   2.694   1.221   6.880 -0.0171 -0.5500 -0.6145
  119OSM   H11S12522   2.605   1.206   6.814 -0.5595 -0.4052  0.0763
  119OSM   H11T12523   2.686   1.315   6.939 -1.6669  0.3865 -2.2633
  119OSM   C12S12524   2.707   1.115   6.989  0.0832  0.5485 -0.5847
  119OSM   H12S12525   2.793   1.147   7.050 -0.1378 -2.1402  1.2331
  119OSM   H12T12526   2.733   1.019   6.938 -1.6516 -0.6512  0.7250
  119OSM   C13S12527   2.584   1.105   7.079 -0.0990  0.6390 -0.4715
  119OSM   H13S12528   2.502   1.063   7.017  0.0515  0.3570 -0.4786
  119OSM   H13T12529   2.554   1.204   7.120 -0.6447  1.3269 -2.4653
  119OSM   C14S12530   2.615   1.008   7.196  0.0384  0.4242  0.2802
  119OSM   H14S12531   2.526   1.007   7.262  1.1848 -2.6238  1.8696
  119OSM   H14T12532   2.699   1.056   7.253  0.2754  0.0076  0.2802
  119OSM   C15S12533   2.643   0.865   7.160 -0.0558 -0.1040  0.2522
  119OSM   H15S12534   2.747   0.843   7.129 -0.4327 -0.2227 -0.9615
  119OSM   H15T12535   2.576   0.835   7.076 -1.6605 -0.5954  1.6744
  119OSM   C16S12536   2.623   0.763   7.274 -0.5358 -0.3095  0.7036
  119OSM   H16S12537   2.514   0.770   7.297 -0.3218  1.1169  1.3369
  119OSM   H16T12538   2.672   0.804   7.365 -0.5659  0.1839  0.4988
  119OSM   C17S12539   2.661   0.619   7.236 -0.0358  0.0964  0.0575
  119OSM   H17S12540   2.658   0.548   7.321 -0.0110 -0.6632 -0.5749
  119OSM   H17T12541   2.771   0.616   7.223  0.1974  0.1227  1.8677
  119OSM   C18S12542   2.583   0.564   7.120  0.1237 -0.2267  0.2779
  119OSM   H18S12543   2.608   0.631   7.036  1.9463 -0.1232  0.8866
  119OSM   H18T12544   2.472   0.569   7.131  0.3876  0.2283  3.3403
  119OSM   H18U12545   2.609   0.458   7.097 -0.2231  0.1645 -1.9900
  119OSM    C1F12546   3.072   0.650   6.361  0.5791  0.9450 -0.1673
  119OSM     OF12547   3.167   0.585   6.321 -0.0177  0.2582 -0.1655
  119OSM    C2F12548   2.998   0.599   6.482 -0.7062 -0.4957 -0.2708
  119OSM    H2F12549   2.938   0.509   6.456 -1.4336 -0.3104  0.7278
  119OSM    H2G12550   2.930   0.683   6.508  1.0463  1.3129 -1.3512
  119OSM    C3F12551   3.099   0.562   6.596 -0.0354  0.3118 -0.1553
  119OSM    H3F12552   3.168   0.649   6.599 -1.4881  1.5391 -1.2538
  119OSM    H3G12553   3.163   0.473   6.584 -2.4117 -1.9006  2.7295
  119OSM    C4F12554   3.029   0.549   6.725  0.0082  0.9465 -1.3172
  119OSM    H4F12555   2.958   0.466   6.706  1.1264  0.1013 -1.8881
  119OSM    H4G12556   2.976   0.644   6.745 -1.3306 -0.3125  1.5043
  119OSM    C5F12557   3.126   0.519   6.845 -0.3734 -0.1198 -0.9774
  119OSM    H5F12558   3.212   0.589   6.847  0.0192 -0.5900 -1.2672
  119OSM    H5G12559   3.160   0.421   6.805 -0.8672  0.2251 -2.2678
  119OSM    C6F12560   3.062   0.521   6.986  0.5334 -0.1563  0.5823
  119OSM    H6F12561   2.981   0.445   6.990  1.0730 -0.7509  0.2511
  119OSM    H6G12562   3.004   0.615   6.997 -0.1615 -0.5145  0.0222
  119OSM    C7F12563   3.146   0.478   7.102  0.1841  0.1037  0.0356
  119OSM    H7F12564   3.231   0.549   7.116 -0.4255  0.5770  1.5183
  119OSM    H7G12565   3.185   0.376   7.085 -1.8585 -0.6691 -0.1276
  119OSM    C8F12566   3.068   0.462   7.247 -0.1245 -0.5141 -0.2446
  119OSM    H8F12567   3.129   0.385   7.298 -0.9499 -0.7162  0.4500
  119OSM    H8G12568   2.974   0.411   7.219 -1.1854  0.1383  2.0037
  119OSM    C9F12569   3.047   0.586   7.327 -0.0564 -0.3993  0.5393
  119OSM    H9F12570   3.016   0.675   7.270  1.3254 -0.0258  0.3273
  119OSM   C10F12571   3.067   0.593   7.461  0.6993  0.0134 -0.5702
  119OSM   H10F12572   3.056   0.688   7.515  1.4932  0.4276 -1.1242
  119OSM   C11F12573   3.122   0.484   7.558  0.3003  0.8930  0.0896
  119OSM   H11F12574   3.226   0.504   7.591  0.4140  0.9613 -0.3085
  119OSM   H11G12575   3.128   0.389   7.501  1.5483  0.7457  0.4544
  119OSM   C12F12576   3.055   0.467   7.702 -0.4304  0.0419 -0.3808
  119OSM   H12F12577   2.945   0.468   7.690 -0.3835  1.5909 -0.8851
  119OSM   H12G12578   3.084   0.544   7.777 -0.2186 -1.6035  1.2402
  119OSM   C13F12579   3.089   0.337   7.774 -0.1784 -0.2329  0.4474
  119OSM   H13F12580   3.200   0.335   7.782 -0.0338  1.2934 -0.8995
  119OSM   H13G12581   3.064   0.256   7.702  0.3616  1.7605 -2.0784
  119OSM   C14F12582   3.014   0.305   7.908  0.0688 -0.5525  0.2688
  119OSM   H14F12583   2.906   0.287   7.886  0.0565 -0.1375 -0.0165
  119OSM   H14G12584   3.022   0.395   7.972  0.1291 -0.2670 -0.1377
  119OSM   C15F12585   3.070   0.200   7.990  0.2066 -0.4346  0.3678
  119OSM   H15F12586   3.168   0.227   8.034 -1.1199  1.9302  1.9128
  119OSM   H15G12587   3.087   0.108   7.929  0.1141 -0.1864 -0.0345
  119OSM   C16F12588   2.958   0.153   8.083  0.4725  0.4499 -0.1637
  119OSM   H16F12589   2.869   0.114   8.029  0.3486  0.8226 -0.2288
  119OSM   H16G12590   2.928   0.247   8.133 -1.6749 -0.2023 -0.1984
  119OSM   C17F12591   3.016   0.062   8.182 -0.6886 -0.4255 -0.9110
  119OSM   H17F12592   3.106   0.108   8.228 -1.1463 -0.1169 -0.3133
  119OSM   H17G12593   3.054  -0.026   8.127 -1.0563 -1.2968  0.2237
  119OSM   C18F12594   2.920   0.013   8.291 -0.2126  0.1991 -0.2172
  119OSM   H18F12595   2.827  -0.027   8.246 -0.7739 -0.3306  1.3873
  119OSM   H18G12596   2.895   0.090   8.366 -0.1689  0.1046 -0.1061
  119OSM   H18H12597   2.965  -0.074   8.344 -2.8891 -0.0929  1.6698
  120OSM      N12598   1.046   4.815   6.606 -0.5210  0.4124  0.7383
  120OSM    C1512599   1.000   4.937   6.540  0.4119 -0.1288 -0.0627
  120OSM   H15A12600   0.967   5.017   6.605  1.2710 -0.5958  0.9407
  120OSM   H15B12601   0.916   4.916   6.474 -0.6958  2.6244  0.3681
  120OSM   H15C12602   1.072   4.989   6.478 -0.5711 -1.4570 -2.4095
  120OSM    C1412603   1.192   4.839   6.629 -0.4767 -0.3756  0.3419
  120OSM   H14A12604   1.185   4.934   6.681 -0.1263  0.6545 -1.4280
  120OSM   H14B12605   1.241   4.860   6.535 -2.0897  1.9886 -0.0291
  120OSM   H14C12606   1.240   4.767   6.693  2.0147 -0.1943 -1.2766
  120OSM    C1312607   0.980   4.800   6.726 -0.3362 -0.1163 -0.1294
  120OSM   H13A12608   0.873   4.787   6.720 -0.7295  3.4889 -2.2936
  120OSM   H13B12609   0.997   4.882   6.794  1.2960  0.9106 -1.7044
  120OSM   H13C12610   1.032   4.721   6.778  0.5851 -0.6307 -1.8128
  120OSM    C1212611   1.027   4.692   6.512 -0.1559  0.2967  0.1633
  120OSM   H12A12612   0.922   4.668   6.506  0.0465 -0.5392  0.0004
  120OSM   H12B12613   1.076   4.608   6.558  1.5760 -0.0968 -2.3204
  120OSM    C1112614   1.075   4.708   6.370 -0.6696  0.4318 -0.0334
  120OSM   H11A12615   1.047   4.810   6.336  1.7781  0.7469 -1.2482
  120OSM   H11B12616   1.024   4.644   6.296  0.5025 -1.0286  0.3952
  120OSM      P12617   1.278   4.560   6.333  0.1711  0.5405  0.0601
  120OSM    O1312618   1.210   4.485   6.224 -0.1304  0.0897 -0.1288
  120OSM    O1412619   1.425   4.578   6.311 -0.4688  0.8115  0.0997
  120OSM    O1112620   1.251   4.495   6.472  0.5036 -0.0202  0.2060
  120OSM    O1212621   1.217   4.699   6.357  0.3328  0.0899  0.1602
  120OSM    C1S12622   1.344   4.513   6.581  0.4378  0.2790  0.2285
  120OSM    H1S12623   1.355   4.621   6.605  0.6321 -0.1072  1.9425
  120OSM    H1T12624   1.451   4.486   6.565  1.1026  3.4760 -1.2830
  120OSM     NF12625   1.405   4.478   6.828 -0.2164 -0.0316  0.3447
  120OSM    HNF12626   1.466   4.407   6.861 -0.8250 -1.1028 -0.7554
  120OSM    C2S12627   1.311   4.440   6.716  0.5886 -0.0622 -0.0091
  120OSM    H2S12628   1.208   4.466   6.746  0.4458 -1.6655  0.9079
  120OSM    C3S12629   1.311   4.285   6.690 -0.5833  0.6724  0.2377
  120OSM    H3S12630   1.411   4.255   6.651 -1.3741 -1.9245  0.1319
  120OSM     O312631   1.236   4.248   6.574  0.0355 -0.0977  0.0852
  120OSM    HO312632   1.224   4.334   6.534  2.5233 -0.0638 -0.6429
  120OSM    C4S12633   1.268   4.210   6.807 -0.2585  0.4762  0.0843
  120OSM    H4S12634   1.169   4.239   6.845 -0.7455 -1.8856  0.7151
  120OSM    C5S12635   1.335   4.118   6.878  0.9279 -0.5059  0.6727
  120OSM    H5S12636   1.441   4.103   6.850  1.0933  1.1758  0.3069
  120OSM    C6S12637   1.274   4.042   7.000  0.0999 -0.3416 -0.0017
  120OSM    H6S12638   1.228   3.948   6.964  1.7482 -0.8387 -0.8710
  120OSM    H6T12639   1.212   4.115   7.055  0.4302  0.4027 -0.6039
  120OSM    C7S12640   1.376   3.997   7.107 -0.1645 -0.4088 -0.5347
  120OSM    H7S12641   1.459   3.940   7.062 -0.7239 -1.5635 -0.1273
  120OSM    H7T12642   1.319   3.932   7.177 -1.2887  0.7061 -0.3955
  120OSM    C8S12643   1.441   4.113   7.188 -0.4540 -0.0119  0.3058
  120OSM    H8S12644   1.364   4.182   7.229  0.7774  0.5275  1.7446
  120OSM    H8T12645   1.485   4.176   7.107  1.8444 -1.0687  0.7052
  120OSM    C9S12646   1.549   4.061   7.289  0.0533  0.3681  0.7335
  120OSM    H9S12647   1.592   4.154   7.332  2.6658 -0.2665 -0.3712
  120OSM    H9T12648   1.635   4.010   7.240  0.3859  1.3991  0.2418
  120OSM   C10S12649   1.501   3.962   7.393  1.1993 -0.3680  0.6072
  120OSM   H10S12650   1.471   3.870   7.339 -3.6467  1.2826  0.2034
  120OSM   H10T12651   1.408   4.006   7.435  0.2514 -0.3466 -1.4494
  120OSM   C11S12652   1.597   3.951   7.512  0.6842 -0.7453 -0.0201
  120OSM   H11S12653   1.636   4.053   7.531 -0.5556 -0.4706  1.1720
  120OSM   H11T12654   1.678   3.885   7.475 -0.1854 -1.5612 -0.4933
  120OSM   C12S12655   1.535   3.903   7.650 -0.0906 -0.2761  0.9349
  120OSM   H12S12656   1.614   3.864   7.717  1.1666 -0.1293 -0.4599
  120OSM   H12T12657   1.474   3.814   7.624 -0.2100 -0.0430  0.3946
  120OSM   C13S12658   1.462   4.013   7.728 -0.1914 -0.0755 -0.0310
  120OSM   H13S12659   1.388   4.060   7.660 -0.2840  1.7275  1.2960
  120OSM   H13T12660   1.534   4.091   7.758 -0.3232 -0.1245  0.4133
  120OSM   C14S12661   1.399   3.962   7.850  0.2336 -0.3698 -0.0918
  120OSM   H14S12662   1.476   3.921   7.919 -0.2595 -3.0495 -1.0617
  120OSM   H14T12663   1.334   3.876   7.824 -0.1577 -0.6094  1.6181
  120OSM   C15S12664   1.303   4.063   7.920 -0.8574  0.1725  0.3764
  120OSM   H15S12665   1.206   4.077   7.866  0.5791  2.0186 -1.8280
  120OSM   H15T12666   1.340   4.168   7.920  0.2349 -0.2171  1.4471
  120OSM   C16S12667   1.280   4.033   8.065  0.4827  0.1278 -0.1668
  120OSM   H16S12668   1.252   3.927   8.080 -0.4731  0.6541  1.8415
  120OSM   H16T12669   1.187   4.088   8.091  1.6719  3.3004 -2.1518
  120OSM   C17S12670   1.394   4.067   8.154  0.6623 -0.0222  0.1043
  120OSM   H17S12671   1.441   4.163   8.126  1.1950 -0.0044  1.0262
  120OSM   H17T12672   1.476   3.992   8.144  0.8228  0.3789 -1.6293
  120OSM   C18S12673   1.355   4.073   8.300 -0.0832  0.5293  0.5270
  120OSM   H18S12674   1.278   3.996   8.325 -0.5607  1.3239  1.5498
  120OSM   H18T12675   1.307   4.172   8.313 -1.0182  0.2569 -0.7555
  120OSM   H18U12676   1.445   4.071   8.366  1.6595  1.0469 -1.7962
  120OSM    C1F12677   1.411   4.599   6.883  0.5396 -0.0285 -0.3450
  120OSM     OF12678   1.340   4.688   6.837  0.4514 -0.6398 -0.0474
  120OSM    C2F12679   1.512   4.618   6.995  0.8176 -0.9974 -0.7273
  120OSM    H2F12680   1.513   4.726   7.021 -2.7602 -0.7988 -1.1513
  120OSM    H2G12681   1.609   4.592   6.947  0.1817  0.0883 -2.6385
  120OSM    C3F12682   1.476   4.524   7.124 -0.3456 -0.5419  0.3476
  120OSM    H3F12683   1.479   4.419   7.088  0.7864  0.1425 -1.6334
  120OSM    H3G12684   1.370   4.538   7.155 -1.4951 -2.9187 -2.3119
  120OSM    C4F12685   1.551   4.549   7.250  0.3515  0.2748 -0.6330
  120OSM    H4F12686   1.547   4.654   7.284 -4.2479 -0.1437  0.4624
  120OSM    H4G12687   1.659   4.529   7.233  0.7828  0.5361  1.6241
  120OSM    C5F12688   1.500   4.452   7.363  0.1212  0.2276 -0.1526
  120OSM    H5F12689   1.502   4.345   7.332 -1.2455 -0.2740  1.4379
  120OSM    H5G12690   1.396   4.485   7.384  0.0669 -0.0082 -0.0443
  120OSM    C6F12691   1.572   4.458   7.499 -0.1719  0.9395  0.4962
  120OSM    H6F12692   1.567   4.565   7.529 -0.3529  0.4967  2.1250
  120OSM    H6G12693   1.676   4.429   7.473 -1.1631 -1.0905 -1.3063
  120OSM    C7F12694   1.490   4.372   7.597  0.0745  0.1528 -1.1712
  120OSM    H7F12695   1.480   4.270   7.554  2.2638 -0.3285 -0.5968
  120OSM    H7G12696   1.386   4.411   7.594 -0.4758 -1.0971  0.9575
  120OSM    C8F12697   1.544   4.352   7.740 -0.3506  0.0603  0.3763
  120OSM    H8F12698   1.638   4.294   7.734 -0.8367 -0.6148 -0.8448
  120OSM    H8G12699   1.473   4.286   7.795 -1.1687  0.4003 -0.2665
  120OSM    C9F12700   1.570   4.497   7.799  0.8404  0.1587  0.2113
  120OSM    H9F12701   1.648   4.558   7.751  2.0995 -1.0001  0.7385
  120OSM   C10F12702   1.514   4.542   7.919  1.0218 -0.0255  0.1723
  120OSM   H10F12703   1.542   4.642   7.955  0.7725 -0.6615  2.1755
  120OSM   C11F12704   1.421   4.462   8.004  0.3875  0.1616 -0.1329
  120OSM   H11F12705   1.468   4.362   8.009 -0.1801 -0.0656  0.7626
  120OSM   H11G12706   1.321   4.447   7.957 -0.5178  2.1131  1.0937
  120OSM   C12F12707   1.423   4.515   8.144 -0.1423 -0.0864  0.2002
  120OSM   H12F12708   1.520   4.554   8.181  0.1076  0.7188 -1.3077
  120OSM   H12G12709   1.388   4.441   8.220  1.2098  0.7329  1.6512
  120OSM   C13F12710   1.308   4.621   8.164 -0.3062  0.8131  0.0058
  120OSM   H13F12711   1.211   4.574   8.135  0.0007  0.1205  0.0908
  120OSM   H13G12712   1.318   4.708   8.096  1.6483 -0.4801 -1.4199
  120OSM   C14F12713   1.293   4.676   8.306 -0.2559  0.4250  0.3101
  120OSM   H14F12714   1.395   4.713   8.330 -0.9343  3.3618 -1.0303
  120OSM   H14G12715   1.268   4.594   8.377 -1.6979 -0.6605 -1.4151
  120OSM   C15F12716   1.191   4.790   8.315  1.1167  0.2058 -0.2819
  120OSM   H15F12717   1.093   4.738   8.313  0.9862  0.2737  2.8290
  120OSM   H15G12718   1.183   4.849   8.221 -3.8196  4.3951  2.4624
  120OSM   C16F12719   1.201   4.876   8.442  0.1020 -0.2999  0.7246
  120OSM   H16F12720   1.108   4.937   8.444 -0.1076 -0.5336 -1.0752
  120OSM   H16G12721   1.288   4.945   8.436 -0.8445  0.9945  1.4298
  120OSM   C17F12722   1.208   4.808   8.573  0.3720  0.0350  0.1562
  120OSM   H17F12723   1.221   4.884   8.653  0.2864  0.4114 -0.1822
  120OSM   H17G12724   1.298   4.743   8.574  0.2154 -0.1584  2.3260
  120OSM   C18F12725   1.081   4.727   8.615  0.1651 -0.2197  0.3225
  120OSM   H18F12726   1.060   4.742   8.723  1.0410  0.2076  0.4362
  120OSM   H18G12727   1.095   4.618   8.602  0.4943 -0.2253  0.7167
  120OSM   H18H12728   0.996   4.750   8.547 -1.2383 -2.7714  1.1668
  121OSM      N12729   3.352   6.776   6.059  0.3187  0.6372 -0.3040
  121OSM    C1512730   3.462   6.860   6.111 -0.1913 -0.2520  0.1475
  121OSM   H15A12731   3.468   6.957   6.064  1.9769 -0.0590  0.7602
  121OSM   H15B12732   3.559   6.813   6.099 -0.4893 -0.9854  0.5472
  121OSM   H15C12733   3.458   6.871   6.219  3.9896 -2.0946  0.6011
  121OSM    C1412734   3.225   6.845   6.091  0.1815 -0.1456 -0.3757
  121OSM   H14A12735   3.188   6.816   6.188  0.9043 -1.1974 -0.4008
  121OSM   H14B12736   3.146   6.821   6.021 -1.2450  2.2918  0.3499
  121OSM   H14C12737   3.246   6.950   6.101  2.1388 -0.5880  0.4448
  121OSM    C1312738   3.367   6.770   5.910  0.3303 -0.0107  1.2689
  121OSM   H13A12739   3.283   6.716   5.868  1.2035  0.6865 -1.4761
  121OSM   H13B12740   3.457   6.716   5.885 -0.5910 -1.5977  1.3850
  121OSM   H13C12741   3.367   6.862   5.853  0.6383 -0.8229 -0.0703
  121OSM    C1212742   3.352   6.634   6.112 -0.8284 -0.2290 -0.3228
  121OSM   H12A12743   3.445   6.580   6.109 -2.4977 -3.1320 -1.2025
  121OSM   H12B12744   3.280   6.581   6.051 -0.5359  1.0551 -1.8289
  121OSM    C1112745   3.304   6.608   6.267  0.6360  0.4250 -0.6591
  121OSM   H11A12746   3.373   6.665   6.333 -1.0106  2.3956 -0.5915
  121OSM   H11B12747   3.328   6.500   6.278  1.8290  0.4807 -2.3847
  121OSM      P12748   3.059   6.532   6.269 -0.2413  0.2193  0.4019
  121OSM    O1312749   2.922   6.571   6.306  0.2630 -0.2862 -0.5246
  121OSM    O1412750   3.080   6.474   6.130  0.1634  0.3058 -0.5508
  121OSM    O1112751   3.081   6.414   6.365  0.1135 -0.3522  0.3518
  121OSM    O1212752   3.168   6.640   6.308 -0.2640 -0.2794  0.0748
  121OSM    C1S12753   3.129   6.426   6.505  0.3019 -0.1807 -0.1790
  121OSM    H1S12754   3.215   6.496   6.513 -1.1912  1.9984 -2.5443
  121OSM    H1T12755   3.143   6.325   6.547 -2.7215 -1.8563 -2.9737
  121OSM     NF12756   3.072   6.502   6.728 -0.5094 -0.0885  0.0191
  121OSM    HNF12757   3.071   6.421   6.786  2.5945 -0.9647 -1.0456
  121OSM    C2S12758   3.019   6.476   6.596 -0.2705 -0.4860 -0.0125
  121OSM    H2S12759   2.982   6.570   6.550  1.1348  0.0354 -0.1003
  121OSM    C3S12760   2.894   6.384   6.587  0.2122 -0.3803 -0.2944
  121OSM    H3S12761   2.939   6.283   6.600  0.3546 -0.5013 -1.7208
  121OSM     O312762   2.822   6.378   6.462  0.5978 -0.1677  0.3235
  121OSM    HO312763   2.859   6.438   6.398 -1.7216  1.1458  0.1549
  121OSM    C4S12764   2.807   6.416   6.704 -0.2489 -0.0846  0.0329
  121OSM    H4S12765   2.818   6.353   6.793  1.7574 -1.8984 -1.4257
  121OSM    C5S12766   2.712   6.504   6.703  0.4193  0.1678  0.1108
  121OSM    H5S12767   2.687   6.559   6.611  1.1888  1.9785  0.9793
  121OSM    C6S12768   2.611   6.526   6.809  0.8095  0.2221 -0.1130
  121OSM    H6S12769   2.523   6.464   6.783 -0.1154  1.3395  0.2681
  121OSM    H6T12770   2.575   6.631   6.811 -1.7136 -0.6200 -0.2161
  121OSM    C7S12771   2.657   6.480   6.951 -0.0187 -0.1083 -0.2421
  121OSM    H7S12772   2.754   6.526   6.978  0.0197 -0.8769  0.9615
  121OSM    H7T12773   2.675   6.371   6.946  0.8244 -0.0823  1.8303
  121OSM    C8S12774   2.561   6.500   7.060  1.0171 -0.5104 -0.5309
  121OSM    H8S12775   2.468   6.440   7.050  1.2152 -0.9901  0.3576
  121OSM    H8T12776   2.531   6.606   7.065 -0.5555 -0.9214 -1.1434
  121OSM    C9S12777   2.622   6.465   7.195 -0.1888 -0.1351  0.2905
  121OSM    H9S12778   2.707   6.534   7.213 -0.0721 -0.5199  1.2224
  121OSM    H9T12779   2.665   6.363   7.188  1.5948  0.7234 -2.0681
  121OSM   C10S12780   2.523   6.459   7.310  0.3240 -0.5742  0.3049
  121OSM   H10S12781   2.571   6.395   7.387  0.5655  0.8138  1.3220
  121OSM   H10T12782   2.427   6.417   7.272 -0.2702  0.4741  0.6265
  121OSM   C11S12783   2.489   6.607   7.359  0.1124 -0.2254  0.0712
  121OSM   H11S12784   2.464   6.660   7.264 -1.1065 -0.7784  0.0669
  121OSM   H11T12785   2.588   6.651   7.381 -1.2837  3.7824 -1.2013
  121OSM   C12S12786   2.378   6.615   7.469 -0.2771 -0.0050 -0.0356
  121OSM   H12S12787   2.284   6.569   7.430 -1.3623 -0.5688  3.1480
  121OSM   H12T12788   2.357   6.723   7.484 -0.7025 -0.1991  0.7878
  121OSM   C13S12789   2.408   6.557   7.610  0.5868 -0.2349 -0.5650
  121OSM   H13S12790   2.502   6.606   7.643  0.2735 -0.0488  0.0524
  121OSM   H13T12791   2.415   6.446   7.615  0.8249 -0.1318  2.4772
  121OSM   C14S12792   2.298   6.586   7.719  0.3149 -0.0928  1.0047
  121OSM   H14S12793   2.342   6.542   7.811 -0.7554 -1.3212  0.9526
  121OSM   H14T12794   2.200   6.536   7.701  0.4675  0.2705 -0.9960
  121OSM   C15S12795   2.278   6.737   7.745 -0.3797 -0.4764 -0.2770
  121OSM   H15S12796   2.211   6.772   7.664 -0.4905 -0.9188 -0.3765
  121OSM   H15T12797   2.379   6.783   7.741 -1.4419  1.9303 -0.7252
  121OSM   C16S12798   2.207   6.767   7.873 -0.0628  0.7292 -0.5727
  121OSM   H16S12799   2.271   6.730   7.955 -1.6544  1.1179  0.8619
  121OSM   H16T12800   2.117   6.704   7.859  1.3123 -1.4985  0.3657
  121OSM   C17S12801   2.184   6.914   7.916  0.2239 -0.4355 -0.2303
  121OSM   H17S12802   2.277   6.971   7.936 -1.4154  2.3558 -0.2445
  121OSM   H17T12803   2.116   6.922   8.004  0.8484 -3.0718  0.5373
  121OSM   C18S12804   2.105   6.986   7.801  0.7423 -0.3590  0.0121
  121OSM   H18S12805   2.097   7.094   7.826  0.3091  0.0802 -2.0037
  121OSM   H18T12806   2.007   6.934   7.795  1.6139 -1.8176 -2.3565
  121OSM   H18U12807   2.156   6.985   7.703 -0.9874  2.9058 -0.9732
  121OSM    C1F12808   3.145   6.602   6.775 -0.3729 -0.5904  0.0969
  121OSM     OF12809   3.164   6.694   6.702 -0.3634 -0.5486  0.4656
  121OSM    C2F12810   3.199   6.590   6.910  0.0544  0.3896  0.2348
  121OSM    H2F12811   3.307   6.608   6.891  0.1872  1.0031  1.5141
  121OSM    H2G12812   3.178   6.494   6.961 -0.7412 -0.0576 -0.9215
  121OSM    C3F12813   3.146   6.700   6.999  0.0479  0.2972 -0.5975
  121OSM    H3F12814   3.036   6.686   7.009  0.3243 -1.2096  0.5039
  121OSM    H3G12815   3.155   6.798   6.946  0.0351  1.0659  0.7934
  121OSM    C4F12816   3.205   6.705   7.135  0.2795  0.3131 -0.9987
  121OSM    H4F12817   3.311   6.737   7.132  0.2432  0.4642 -0.6081
  121OSM    H4G12818   3.199   6.597   7.163 -0.5766  0.2518 -1.3899
  121OSM    C5F12819   3.141   6.805   7.226 -0.6928  0.1787 -0.8942
  121OSM    H5F12820   3.031   6.795   7.213 -0.2156 -2.2292 -3.5081
  121OSM    H5G12821   3.153   6.914   7.206  0.8601  0.4074  1.2287
  121OSM    C6F12822   3.172   6.766   7.374 -0.6493 -0.3858 -0.7584
  121OSM    H6F12823   3.279   6.744   7.395 -0.2908  1.1447 -0.8785
  121OSM    H6G12824   3.124   6.667   7.392 -0.3108 -0.4191 -0.0491
  121OSM    C7F12825   3.093   6.857   7.469  0.5798 -0.4455 -0.6869
  121OSM    H7F12826   2.985   6.859   7.443  0.1265  0.8227  1.1861
  121OSM    H7G12827   3.131   6.961   7.461 -1.5131  0.2943 -1.3160
  121OSM    C8F12828   3.094   6.805   7.616 -0.0844  1.0157 -0.5606
  121OSM    H8F12829   3.066   6.697   7.619  1.8958  0.4724 -0.9461
  121OSM    H8G12830   3.019   6.855   7.680 -0.5879 -1.2508  0.6949
  121OSM    C9F12831   3.236   6.818   7.670 -0.2546  0.2064  0.4591
  121OSM    H9F12832   3.296   6.889   7.612 -1.8111  0.0376 -1.4259
  121OSM   C10F12833   3.285   6.753   7.772  0.4615  0.1183 -0.1515
  121OSM   H10F12834   3.392   6.769   7.794  0.3827  2.7869 -1.5100
  121OSM   C11F12835   3.218   6.650   7.865  0.3739  0.2876  0.1548
  121OSM   H11F12836   3.110   6.635   7.846  1.0315 -1.1902 -2.6500
  121OSM   H11G12837   3.231   6.680   7.971 -0.8148 -1.3976  0.7901
  121OSM   C12F12838   3.290   6.517   7.843  0.0542 -0.1474  0.4773
  121OSM   H12F12839   3.250   6.452   7.923 -2.2356 -0.7196 -1.0884
  121OSM   H12G12840   3.399   6.526   7.864  0.1127 -0.2808  0.2439
  121OSM   C13F12841   3.253   6.440   7.708  0.3423 -0.3536  0.6451
  121OSM   H13F12842   3.300   6.340   7.715 -0.0986 -0.4675  2.1905
  121OSM   H13G12843   3.303   6.487   7.620 -1.4702  0.3971  0.0046
  121OSM   C14F12844   3.106   6.398   7.693  0.3281  0.6012  0.3244
  121OSM   H14F12845   3.040   6.486   7.682  1.6712  1.4267 -1.4580
  121OSM   H14G12846   3.065   6.341   7.779 -3.4445 -2.0094 -2.9989
  121OSM   C15F12847   3.055   6.309   7.575  0.3941 -0.6466 -0.2364
  121OSM   H15F12848   2.945   6.295   7.573  0.3378 -0.1980 -0.5902
  121OSM   H15G12849   3.100   6.208   7.574  1.4822 -0.1937  2.1778
  121OSM   C16F12850   3.090   6.362   7.430  0.1885  0.1567 -0.2728
  121OSM   H16F12851   3.199   6.377   7.419  0.3746 -1.4440 -0.7380
  121OSM   H16G12852   3.035   6.458   7.422  1.4531  0.9472  0.2907
  121OSM   C17F12853   3.035   6.263   7.320  0.3093  0.0701 -0.6748
  121OSM   H17F12854   2.927   6.278   7.340  0.8208  0.5062  2.0195
  121OSM   H17G12855   3.061   6.158   7.345 -0.4240  0.4173  1.6889
  121OSM   C18F12856   3.062   6.311   7.177 -0.8539 -0.3635 -0.5309
  121OSM   H18F12857   3.025   6.414   7.155 -2.5694 -0.8372  0.0830
  121OSM   H18G12858   3.023   6.238   7.102 -0.5421 -3.2114  2.0173
  121OSM   H18H12859   3.172   6.318   7.162 -0.8498  0.9732  0.0435
  122OSM      N12860   1.224   1.829   5.771  0.4482  0.1966 -0.0640
  122OSM    C1512861   1.103   1.875   5.695 -0.6309  0.4267 -0.0205
  122OSM   H15A12862   1.075   1.976   5.721 -1.2676  0.4253 -0.6946
  122OSM   H15B12863   1.017   1.818   5.726 -1.4575  0.6063 -1.9084
  122OSM   H15C12864   1.112   1.869   5.588 -0.4575 -1.4437  0.0949
  122OSM    C1412865   1.260   1.700   5.714 -0.3359 -0.1696  0.1272
  122OSM   H14A12866   1.189   1.620   5.724  0.7926 -1.2169 -0.1072
  122OSM   H14B12867   1.356   1.672   5.755 -1.6322 -0.4776  3.0802
  122OSM   H14C12868   1.265   1.705   5.606  0.6224  0.9400  0.2103
  122OSM    C1312869   1.336   1.918   5.767 -1.0624  0.1912  0.5327
  122OSM   H13A12870   1.367   1.951   5.669 -1.2348  0.0363  0.4264
  122OSM   H13B12871   1.425   1.881   5.816 -3.0445 -1.8519  2.7095
  122OSM   H13C12872   1.315   2.011   5.819 -2.3419  0.2711 -0.1092
  122OSM    C1212873   1.181   1.813   5.914  0.1541  0.0648  0.0754
  122OSM   H12A12874   1.095   1.749   5.926  0.0180  0.5519  1.7509
  122OSM   H12B12875   1.143   1.910   5.941 -1.8755  0.2435 -3.1838
  122OSM    C1112876   1.288   1.772   6.020 -0.0260 -0.5151 -0.2457
  122OSM   H11A12877   1.244   1.776   6.122 -1.3353  1.0582 -0.8380
  122OSM   H11B12878   1.372   1.844   6.022 -0.4788  0.1306 -2.5037
  122OSM      P12879   1.283   1.496   6.013  0.0525 -0.6185 -0.3658
  122OSM    O1312880   1.151   1.492   5.946  0.1648 -0.3031 -0.1953
  122OSM    O1412881   1.391   1.404   5.960  0.1472  0.2723 -0.2826
  122OSM    O1112882   1.250   1.470   6.159  0.0276 -0.3991 -0.3392
  122OSM    O1212883   1.347   1.641   6.003  0.3319  0.2041 -0.3721
  122OSM    C1S12884   1.333   1.374   6.234  0.3754  0.2501 -0.0297
  122OSM    H1S12885   1.435   1.366   6.191 -0.1992  0.1836 -1.4034
  122OSM    H1T12886   1.291   1.272   6.242 -0.2719  0.5846  0.8488
  122OSM     NF12887   1.456   1.327   6.452 -0.1491  0.4165 -0.0792
  122OSM    HNF12888   1.429   1.263   6.523 -3.4788  0.7518 -0.9876
  122OSM    C2S12889   1.360   1.418   6.384 -0.9106  0.0731  1.0291
  122OSM    H2S12890   1.408   1.518   6.388 -0.4707 -0.0742 -0.1082
  122OSM    C3S12891   1.223   1.431   6.453  0.2702 -0.0526 -0.8780
  122OSM    H3S12892   1.184   1.327   6.454  0.2431 -0.0835  2.8926
  122OSM     O312893   1.133   1.522   6.404  0.1197  0.4175  0.3841
  122OSM    HO312894   1.182   1.561   6.331 -0.9129  0.8785 -0.0718
  122OSM    C4S12895   1.250   1.465   6.597 -0.4986 -0.5611 -0.3065
  122OSM    H4S12896   1.319   1.547   6.621 -0.6443 -0.3475 -0.6185
  122OSM    C5S12897   1.199   1.405   6.699 -0.2508  0.6816  0.3483
  122OSM    H5S12898   1.130   1.321   6.681 -0.9493  1.4390 -0.5899
  122OSM    C6S12899   1.214   1.425   6.842 -0.5462  0.7300 -0.2575
  122OSM    H6S12900   1.112   1.439   6.884 -0.5485 -1.3279  0.4427
  122OSM    H6T12901   1.262   1.522   6.865 -0.8598  0.6880  0.5880
  122OSM    C7S12902   1.286   1.318   6.930  0.2168  0.6474 -0.0672
  122OSM    H7S12903   1.396   1.332   6.920  0.5206  0.1054  2.1245
  122OSM    H7T12904   1.262   1.214   6.896 -0.3813  0.5950  0.4982
  122OSM    C8S12905   1.259   1.348   7.086  0.0783 -0.3162  0.2689
  122OSM    H8S12906   1.153   1.327   7.114  0.4975  0.5998  2.6799
  122OSM    H8T12907   1.278   1.455   7.111 -2.0304 -0.3759  2.3033
  122OSM    C9S12908   1.350   1.270   7.180 -0.1741 -0.5599  0.0954
  122OSM    H9S12909   1.451   1.271   7.133 -0.3205  0.2872 -0.2047
  122OSM    H9T12910   1.321   1.163   7.191 -1.5617 -0.2308 -0.2844
  122OSM   C10S12911   1.359   1.336   7.322 -0.6051  0.1090 -0.3934
  122OSM   H10S12912   1.256   1.335   7.364 -1.1861  1.0523 -1.7581
  122OSM   H10T12913   1.395   1.440   7.313  2.2712 -0.9496 -1.8994
  122OSM   C11S12914   1.445   1.278   7.430 -0.1020 -0.6151 -0.5848
  122OSM   H11S12915   1.556   1.281   7.424 -0.0745  0.6279  0.2346
  122OSM   H11T12916   1.425   1.169   7.432  1.3203 -0.8704  1.3237
  122OSM   C12S12917   1.412   1.362   7.561 -0.5387  0.6608  0.7143
  122OSM   H12S12918   1.303   1.365   7.580 -0.3696  0.8182  1.7102
  122OSM   H12T12919   1.437   1.470   7.550  1.7263  0.0715 -0.2322
  122OSM   C13S12920   1.486   1.316   7.693  0.8094  0.4980 -0.1102
  122OSM   H13S12921   1.595   1.335   7.680  1.2214 -2.2278 -0.7933
  122OSM   H13T12922   1.473   1.209   7.719  2.0491  0.1244 -1.0310
  122OSM   C14S12923   1.440   1.410   7.812 -0.0010 -0.4044 -0.3433
  122OSM   H14S12924   1.332   1.391   7.826 -0.1714  1.5013  1.0845
  122OSM   H14T12925   1.474   1.513   7.787 -0.7616  0.1922  1.1005
  122OSM   C15S12926   1.504   1.356   7.939 -0.0418 -0.3785  0.3830
  122OSM   H15S12927   1.613   1.380   7.932 -0.6577  2.3950 -0.4538
  122OSM   H15T12928   1.480   1.249   7.955 -2.8728 -0.0928 -1.5924
  122OSM   C16S12929   1.462   1.436   8.061 -0.0863  0.4632 -0.5134
  122OSM   H16S12930   1.351   1.436   8.064 -0.0878  2.2310 -0.1012
  122OSM   H16T12931   1.495   1.540   8.036  0.3845  0.3410 -0.4083
  122OSM   C17S12932   1.518   1.404   8.197  0.2317  0.3231  0.3543
  122OSM   H17S12933   1.444   1.448   8.267 -1.5498 -1.7899 -0.0975
  122OSM   H17T12934   1.604   1.472   8.213  0.9674 -0.4610 -0.2339
  122OSM   C18S12935   1.552   1.260   8.233 -0.6603 -0.1096  0.4359
  122OSM   H18S12936   1.554   1.245   8.343  0.4089 -0.9786  0.3075
  122OSM   H18T12937   1.659   1.246   8.207 -0.4707 -1.3690  1.8132
  122OSM   H18U12938   1.483   1.192   8.180  1.1996  0.0901 -2.3238
  122OSM    C1F12939   1.587   1.331   6.421  0.9765  0.3745  0.2024
  122OSM     OF12940   1.633   1.406   6.334 -0.1430 -0.0187  0.1787
  122OSM    C2F12941   1.680   1.242   6.495  0.4878 -0.3693 -0.3672
  122OSM    H2F12942   1.736   1.191   6.414 -0.4044  0.3410 -1.4423
  122OSM    H2G12943   1.626   1.172   6.562 -0.5803  0.4751 -0.3302
  122OSM    C3F12944   1.774   1.318   6.590  0.4557 -0.1484 -0.3595
  122OSM    H3F12945   1.817   1.401   6.531  0.1504 -0.6828 -1.3544
  122OSM    H3G12946   1.852   1.244   6.618 -1.6010 -1.8129  1.2307
  122OSM    C4F12947   1.700   1.369   6.720  0.2091  0.1731 -0.4094
  122OSM    H4F12948   1.661   1.286   6.782  1.5054  0.2886  0.5778
  122OSM    H4G12949   1.614   1.436   6.701  1.8025  2.6406  0.7225
  122OSM    C5F12950   1.798   1.444   6.815 -0.9806  0.6411  0.6377
  122OSM    H5F12951   1.820   1.547   6.780 -0.4910  0.2939 -0.0899
  122OSM    H5G12952   1.889   1.381   6.829 -3.0095 -2.2136  1.4580
  122OSM    C6F12953   1.726   1.469   6.947 -0.1583  0.0141  0.0815
  122OSM    H6F12954   1.796   1.509   7.024  0.2289 -1.3708  0.4654
  122OSM    H6G12955   1.676   1.380   6.990 -2.8215 -0.0851 -3.0501
  122OSM    C7F12956   1.614   1.573   6.940 -0.0477 -0.9494  0.1587
  122OSM    H7F12957   1.531   1.507   6.907  0.4452 -0.7369 -1.5111
  122OSM    H7G12958   1.634   1.649   6.862  0.6659  0.5043  1.7035
  122OSM    C8F12959   1.583   1.649   7.071 -0.2455  0.2175  0.1748
  122OSM    H8F12960   1.541   1.566   7.133  2.1424 -1.4597 -0.3751
  122OSM    H8G12961   1.495   1.716   7.057 -0.7301 -0.0397  1.7760
  122OSM    C9F12962   1.693   1.730   7.128  0.5340 -0.1557  0.1833
  122OSM    H9F12963   1.730   1.801   7.052 -1.1454  1.3647  0.7572
  122OSM   C10F12964   1.746   1.732   7.256 -1.2386 -0.0895 -0.2052
  122OSM   H10F12965   1.824   1.807   7.276 -0.8667 -0.4429 -0.3138
  122OSM   C11F12966   1.693   1.650   7.373 -0.1158  0.1659  0.2698
  122OSM   H11F12967   1.747   1.556   7.397  0.0637 -0.1570 -1.3492
  122OSM   H11G12968   1.588   1.625   7.345 -1.2917  2.6274  2.2852
  122OSM   C12F12969   1.706   1.739   7.496 -0.0391  0.6675  0.2434
  122OSM   H12F12970   1.667   1.842   7.479 -0.4800  0.4336 -0.1612
  122OSM   H12G12971   1.815   1.753   7.508  0.4120 -2.2114 -0.2421
  122OSM   C13F12972   1.645   1.692   7.629  0.3559 -0.3182 -0.2721
  122OSM   H13F12973   1.695   1.594   7.649  1.2664 -0.4439 -3.0026
  122OSM   H13G12974   1.536   1.679   7.607  0.5336 -2.2978 -0.1206
  122OSM   C14F12975   1.666   1.790   7.747 -0.3409 -0.8961 -0.4501
  122OSM   H14F12976   1.597   1.865   7.703  1.1900  0.4851 -0.5290
  122OSM   H14G12977   1.770   1.828   7.760 -0.4768 -0.2991 -1.1361
  122OSM   C15F12978   1.605   1.754   7.888  0.5161 -0.1169 -0.5062
  122OSM   H15F12979   1.651   1.661   7.927  0.6759 -0.6320 -1.8994
  122OSM   H15G12980   1.500   1.723   7.870 -0.0796  1.4571  0.1375
  122OSM   C16F12981   1.620   1.869   7.984 -0.1167 -0.4988  0.7121
  122OSM   H16F12982   1.583   1.958   7.930  0.5272 -0.4852  0.2844
  122OSM   H16G12983   1.723   1.894   8.019 -0.3895  1.5959  0.0781
  122OSM   C17F12984   1.533   1.834   8.101  0.4202 -0.1330 -0.1021
  122OSM   H17F12985   1.557   1.731   8.136 -1.3926 -0.7634 -0.6647
  122OSM   H17G12986   1.427   1.833   8.068 -0.2827 -1.7365  2.0808
  122OSM   C18F12987   1.551   1.942   8.216  0.0786 -0.0660  0.8504
  122OSM   H18F12988   1.657   1.975   8.214 -0.3760  1.4312 -0.2432
  122OSM   H18G12989   1.530   1.887   8.310 -0.8210 -0.3607  0.4770
  122OSM   H18H12990   1.471   2.019   8.206 -0.1283 -0.4755 -0.7829
  123OSM      N12991   6.497   3.406   6.284 -0.3115 -0.6069  0.4328
  123OSM    C1512992   6.640   3.456   6.276 -0.2616  0.4182 -0.1401
  123OSM   H15A12993   6.667   3.481   6.175  1.8467  0.8197  0.4995
  123OSM   H15B12994   6.714   3.381   6.298  2.9163  3.0327 -1.5689
  123OSM   H15C12995   6.648   3.542   6.341 -1.0133 -0.6692  1.4543
  123OSM    C1412996   6.401   3.503   6.222 -0.4338 -0.3456 -0.1999
  123OSM   H14A12997   6.303   3.461   6.236 -0.3205  0.1272  2.2261
  123OSM   H14B12998   6.415   3.524   6.117  1.1334 -1.0652 -0.1486
  123OSM   H14C12999   6.405   3.599   6.270 -1.4082 -0.1287 -0.5474
  123OSM    C1313000   6.493   3.275   6.212 -0.8620 -0.1036  0.8282
  123OSM   H13A13001   6.389   3.246   6.206 -1.1336  1.2312 -1.8961
  123OSM   H13B13002   6.555   3.196   6.253  3.8919  1.1317 -3.3892
  123OSM   H13C13003   6.527   3.288   6.110 -1.2720 -0.9673  0.5746
  123OSM    C1213004   6.459   3.366   6.430  0.0216 -0.1209  0.0922
  123OSM   H12A13005   6.536   3.298   6.462  0.8827  1.7559  2.1187
  123OSM   H12B13006   6.362   3.318   6.421 -0.1702  0.3116 -0.2017
  123OSM    C1113007   6.448   3.493   6.526 -0.8367  0.0580 -0.1353
  123OSM   H11A13008   6.427   3.451   6.626 -2.1985  2.6624  0.7210
  123OSM   H11B13009   6.357   3.553   6.504 -1.4581 -0.1735  1.8045
  123OSM      P13010   6.550   3.727   6.518 -0.1744 -0.0953 -0.1869
  123OSM    O1313011   6.684   3.791   6.502 -0.2509 -0.3298  0.2776
  123OSM    O1413012   6.450   3.757   6.414 -0.2880  0.0065 -0.3027
  123OSM    O1113013   6.479   3.775   6.660  0.3263 -0.4713  0.3197
  123OSM    O1213014   6.569   3.570   6.530 -0.3055  0.3561  0.3294
  123OSM    C1S13015   6.554   3.755   6.784 -0.0595  0.7828 -0.1751
  123OSM    H1S13016   6.634   3.831   6.792  0.4705  0.5484 -2.8617
  123OSM    H1T13017   6.602   3.655   6.791 -0.0002  0.9038  1.2590
  123OSM     NF13018   6.562   3.774   7.028 -0.0915  0.8203 -0.0750
  123OSM    HNF13019   6.559   3.689   7.080  0.8436 -0.1305 -1.5309
  123OSM    C2S13020   6.470   3.773   6.911 -0.6182 -0.3934 -0.2016
  123OSM    H2S13021   6.426   3.875   6.908 -0.1576 -0.1974 -0.6020
  123OSM    C3S13022   6.349   3.674   6.918  0.0270  0.2752 -0.2003
  123OSM    H3S13023   6.388   3.570   6.911 -1.9296 -0.5318  0.5467
  123OSM     O313024   6.263   3.689   6.809  0.1467  0.9008 -0.2742
  123OSM    HO313025   6.316   3.720   6.735 -0.6243  0.1561 -1.1554
  123OSM    C4S13026   6.283   3.697   7.050  0.3880 -0.1395  0.5576
  123OSM    H4S13027   6.319   3.636   7.134  0.0663  2.1515  2.4096
  123OSM    C5S13028   6.189   3.786   7.074  0.1665  0.6861 -0.0567
  123OSM    H5S13029   6.155   3.850   6.992 -0.9605 -0.3757 -0.4335
  123OSM    C6S13030   6.120   3.808   7.205  0.2285 -0.6437  0.0145
  123OSM    H6S13031   6.157   3.734   7.279  0.5944 -0.0226  0.4616
  123OSM    H6T13032   6.010   3.801   7.206  0.2620 -0.9964  1.3349
  123OSM    C7S13033   6.145   3.948   7.269 -0.0388  0.8549  0.3687
  123OSM    H7S13034   6.105   4.029   7.204 -0.4350  0.9667  0.7458
  123OSM    H7T13035   6.253   3.962   7.287  0.2723 -0.2601 -0.5655
  123OSM    C8S13036   6.070   3.961   7.402 -0.5981 -0.2958 -0.1503
  123OSM    H8S13037   5.961   3.952   7.380 -1.0243 -0.5148  1.9239
  123OSM    H8T13038   6.082   4.066   7.436  1.3387  0.5971 -3.3864
  123OSM    C9S13039   6.122   3.871   7.516 -0.1018  0.0859 -0.1620
  123OSM    H9S13040   6.225   3.900   7.544 -0.3507 -0.5821  1.4836
  123OSM    H9T13041   6.117   3.770   7.470  1.9254 -1.1793  2.2924
  123OSM   C10S13042   6.020   3.892   7.633  0.4423  0.0666 -0.3807
  123OSM   H10S13043   5.924   3.865   7.586  0.4020  2.9385 -2.1227
  123OSM   H10T13044   6.028   3.999   7.662  3.5210 -0.1589 -0.2068
  123OSM   C11S13045   6.047   3.806   7.756  0.3541 -0.0722 -0.2846
  123OSM   H11S13046   6.148   3.814   7.802 -0.0244 -0.1860  0.5584
  123OSM   H11T13047   6.032   3.701   7.720 -1.5537  0.6567 -1.6961
  123OSM   C12S13048   5.939   3.820   7.860  0.5249 -0.1626 -0.2086
  123OSM   H12S13049   5.842   3.802   7.807  0.0042 -2.8971  1.5732
  123OSM   H12T13050   5.925   3.923   7.896  2.0541 -0.6776  1.9229
  123OSM   C13S13051   5.965   3.723   7.982  0.2304  0.0623 -0.1315
  123OSM   H13S13052   6.063   3.752   8.025 -0.3801  2.7389 -0.3999
  123OSM   H13T13053   5.976   3.621   7.939  0.8703  0.1957 -0.2965
  123OSM   C14S13054   5.862   3.732   8.094  0.1962 -0.0716  0.0545
  123OSM   H14S13055   5.863   3.636   8.150 -2.3350 -0.4621 -0.5363
  123OSM   H14T13056   5.760   3.754   8.056  1.3229  2.0376 -1.8361
  123OSM   C15S13057   5.920   3.832   8.200  0.2975 -0.1280  0.5216
  123OSM   H15S13058   5.935   3.937   8.165  1.7652 -0.4074  0.2918
  123OSM   H15T13059   6.016   3.796   8.241  1.2087  2.6976  1.0216
  123OSM   C16S13060   5.826   3.843   8.318  0.5286 -0.4054  0.3624
  123OSM   H16S13061   5.812   3.751   8.378  0.1955 -0.4747  0.1756
  123OSM   H16T13062   5.727   3.884   8.290  1.1554 -0.0723 -1.4519
  123OSM   C17S13063   5.886   3.940   8.422 -0.1033  0.5451  1.0809
  123OSM   H17S13064   5.805   3.995   8.475  0.6526  3.4270 -0.6216
  123OSM   H17T13065   5.939   4.026   8.375 -1.3683  1.2264  0.8628
  123OSM   C18S13066   5.979   3.866   8.521  0.4843  0.2258  0.6869
  123OSM   H18S13067   5.972   3.921   8.617 -0.1363  0.9961  0.2078
  123OSM   H18T13068   6.082   3.856   8.481 -0.8742  2.5844 -3.6946
  123OSM   H18U13069   5.943   3.762   8.537 -1.2738  0.7717  0.3800
  123OSM    C1F13070   6.654   3.861   7.057 -0.1678  0.8313 -0.3446
  123OSM     OF13071   6.679   3.949   6.978  1.1919 -0.2614 -0.1802
  123OSM    C2F13072   6.742   3.853   7.174  0.3025 -0.6102  0.3917
  123OSM    H2F13073   6.824   3.924   7.153  1.4546 -2.1798 -0.4894
  123OSM    H2G13074   6.794   3.756   7.186  0.5085 -0.6830 -1.0212
  123OSM    C3F13075   6.681   3.909   7.304  0.8374 -0.0967  0.3716
  123OSM    H3F13076   6.600   3.840   7.337  0.0933  0.9721  0.8259
  123OSM    H3G13077   6.632   4.005   7.276 -0.2259 -0.5306  0.7199
  123OSM    C4F13078   6.779   3.932   7.414  0.1962 -0.0051  0.0823
  123OSM    H4F13079   6.867   3.991   7.380 -1.5832  4.1172  2.2492
  123OSM    H4G13080   6.824   3.836   7.447 -1.3979 -1.0766 -0.8418
  123OSM    C5F13081   6.715   4.008   7.527 -0.5635  0.2257 -0.4068
  123OSM    H5F13082   6.612   3.967   7.537  0.2857 -1.9577 -0.5767
  123OSM    H5G13083   6.721   4.112   7.486  2.1388  0.0443 -0.5359
  123OSM    C6F13084   6.799   4.008   7.657 -0.6440 -0.0301 -0.5330
  123OSM    H6F13085   6.889   4.069   7.631 -0.8459  0.3032 -0.4563
  123OSM    H6G13086   6.832   3.909   7.694  3.4600  1.2649 -0.4086
  123OSM    C7F13087   6.720   4.056   7.785 -0.7291  0.4777  0.0300
  123OSM    H7F13088   6.636   3.984   7.792  0.5608 -0.8943  1.7943
  123OSM    H7G13089   6.688   4.158   7.754  0.6962  1.1767  0.8064
  123OSM    C8F13090   6.812   4.063   7.906 -0.3913 -0.4911  0.0212
  123OSM    H8F13091   6.906   4.115   7.879 -0.8429  0.6558  0.6249
  123OSM    H8G13092   6.844   3.965   7.948  3.1865  0.5918 -0.0090
  123OSM    C9F13093   6.732   4.149   8.005 -0.5808 -0.0329 -0.0978
  123OSM    H9F13094   6.630   4.173   7.973 -0.2888 -0.0872 -1.0788
  123OSM   C10F13095   6.788   4.212   8.108  0.2043 -0.4381  0.4126
  123OSM   H10F13096   6.732   4.275   8.180  1.3955  0.8845  0.2083
  123OSM   C11F13097   6.929   4.189   8.142  0.2329 -1.0491  0.2325
  123OSM   H11F13098   7.004   4.208   8.063  0.3927  0.6459  0.7624
  123OSM   H11G13099   6.954   4.084   8.170  2.2876 -0.5932  0.1964
  123OSM   C12F13100   6.982   4.277   8.259 -0.5496 -0.2139 -0.1613
  123OSM   H12F13101   6.948   4.383   8.266  1.2396  0.2211  3.7969
  123OSM   H12G13102   7.093   4.286   8.261 -0.4099 -1.8906 -0.1995
  123OSM   C13F13103   6.946   4.209   8.396 -0.0526  0.1783  0.5457
  123OSM   H13F13104   6.989   4.107   8.387 -2.1528 -0.5987 -1.2595
  123OSM   H13G13105   6.837   4.185   8.398  0.4083 -2.1018  0.3478
  123OSM   C14F13106   6.989   4.301   8.511  0.3708  0.4461  0.6439
  123OSM   H14F13107   6.903   4.371   8.518 -0.0574 -0.0665  0.5128
  123OSM   H14G13108   7.074   4.360   8.471 -0.1391 -1.1031 -2.9704
  123OSM   C15F13109   7.020   4.225   8.641  0.2340  0.8132 -0.8037
  123OSM   H15F13110   7.110   4.164   8.621 -0.1301 -0.3446  0.9064
  123OSM   H15G13111   6.932   4.160   8.662  0.4701  0.8982  0.4717
  123OSM   C16F13112   7.048   4.317   8.754 -0.1275  0.2920  0.6866
  123OSM   H16F13113   7.076   4.254   8.841 -2.6153  0.4182  1.6307
  123OSM   H16G13114   6.954   4.376   8.760  0.2943  0.7098  3.7344
  123OSM   C17F13115   7.159   4.419   8.750  0.3959 -0.0264 -0.0883
  123OSM   H17F13116   7.140   4.491   8.833 -3.5654  0.4744 -1.3113
  123OSM   H17G13117   7.154   4.486   8.661  2.7959  2.5181  1.6198
  123OSM   C18F13118   7.292   4.366   8.783 -0.4240  0.7088 -0.2017
  123OSM   H18F13119   7.369   4.445   8.771  0.7948  0.2941  4.1201
  123OSM   H18G13120   7.324   4.284   8.715 -0.2680 -0.2315  0.9840
  123OSM   H18H13121   7.301   4.326   8.886  2.2054 -0.3478 -0.8119
  124OSM      N13122   0.647   6.272   6.029  0.8695 -0.0641  0.0764
  124OSM    C1513123   0.573   6.190   5.927 -0.1378 -0.0959 -0.5551
  124OSM   H15A13124   0.521   6.243   5.849  0.9209 -0.1613 -1.3330
  124OSM   H15B13125   0.515   6.111   5.971 -0.7099  0.1700 -0.8309
  124OSM   H15C13126   0.649   6.145   5.863 -0.2987  0.0482 -0.8467
  124OSM    C1413127   0.732   6.176   6.107 -0.5775  0.8674 -0.1487
  124OSM   H14A13128   0.802   6.245   6.153 -1.5904  3.8190 -2.8664
  124OSM   H14B13129   0.783   6.102   6.048  0.7522 -0.6262  2.7439
  124OSM   H14C13130   0.681   6.111   6.176 -1.3801  2.0577  0.4086
  124OSM    C1313131   0.738   6.359   5.948 -0.0970  0.5255  0.2386
  124OSM   H13A13132   0.682   6.428   5.887 -0.0132  0.4784  0.1073
  124OSM   H13B13133   0.804   6.301   5.885 -0.5492  0.7304 -0.4286
  124OSM   H13C13134   0.805   6.418   6.009  1.4845 -2.1041  1.1491
  124OSM    C1213135   0.555   6.357   6.102 -0.4672 -0.4848 -0.0385
  124OSM   H12A13136   0.604   6.420   6.175 -2.3362  0.7955  0.1259
  124OSM   H12B13137   0.491   6.297   6.164  1.4647 -1.4446  1.0675
  124OSM    C1113138   0.476   6.461   6.010 -0.2660  0.0261 -0.3083
  124OSM   H11A13139   0.426   6.413   5.923  0.2946 -1.6522  0.2669
  124OSM   H11B13140   0.550   6.529   5.962 -1.3834  2.5874  1.4938
  124OSM      P13141   0.258   6.476   6.143  0.2454  0.4212  0.0615
  124OSM    O1313142   0.149   6.580   6.121  0.1435  0.6001  0.4364
  124OSM    O1413143   0.241   6.339   6.089 -0.6810 -0.5324  0.3521
  124OSM    O1113144   0.284   6.475   6.300  0.2804 -0.1078  0.4287
  124OSM    O1213145   0.387   6.545   6.081  0.4645  0.2085  0.0082
  124OSM    C1S13146   0.313   6.600   6.362 -0.5125  1.0093  0.2933
  124OSM    H1S13147   0.216   6.654   6.368 -2.4230 -2.4794  2.4084
  124OSM    H1T13148   0.377   6.656   6.290 -0.2109  0.6212  0.2633
  124OSM     NF13149   0.405   6.715   6.560 -0.4624  0.2412 -0.0152
  124OSM    HNF13150   0.491   6.754   6.531  0.4779  0.5145  2.9986
  124OSM    C2S13151   0.379   6.583   6.501  0.3493 -0.0068  0.2407
  124OSM    H2S13152   0.308   6.533   6.570  1.8016 -0.6998  1.2584
  124OSM    C3S13153   0.499   6.494   6.498 -0.1215  0.4976  0.2090
  124OSM    H3S13154   0.575   6.537   6.429 -1.4100  1.8393 -0.4283
  124OSM     O313155   0.467   6.359   6.451  0.4553 -0.1423  0.1931
  124OSM    HO313156   0.374   6.370   6.431  0.4115  0.8200  0.8687
  124OSM    C4S13157   0.565   6.494   6.634 -0.5462 -0.0084  0.2958
  124OSM    H4S13158   0.665   6.539   6.646 -0.1957 -1.1956  1.9312
  124OSM    C5S13159   0.519   6.431   6.743 -0.4273 -0.6599 -0.3738
  124OSM    H5S13160   0.421   6.383   6.750  0.5154 -2.3385  2.4312
  124OSM    C6S13161   0.593   6.432   6.872  0.2946  0.0590 -0.2812
  124OSM    H6S13162   0.690   6.485   6.856 -0.2816  0.9791 -0.7803
  124OSM    H6T13163   0.611   6.329   6.910 -0.7186  0.0655  0.2312
  124OSM    C7S13164   0.519   6.515   6.981  0.3193 -0.2802 -0.9684
  124OSM    H7S13165   0.429   6.453   6.999 -0.9182  1.4088 -1.2063
  124OSM    H7T13166   0.486   6.614   6.942  0.8426  0.5588  0.6882
  124OSM    C8S13167   0.608   6.523   7.105 -0.3390  0.4273  0.2323
  124OSM    H8S13168   0.688   6.598   7.088 -1.2443  1.0509 -1.3278
  124OSM    H8T13169   0.646   6.419   7.115 -0.7797  0.2893  0.4789
  124OSM    C9S13170   0.525   6.571   7.217  0.2877  0.5526 -0.5625
  124OSM    H9S13171   0.431   6.511   7.224 -0.4468  1.5849 -1.4522
  124OSM    H9T13172   0.497   6.676   7.198 -0.0210  0.3554 -1.2050
  124OSM   C10S13173   0.590   6.569   7.352  0.1174 -0.7159  0.4884
  124OSM   H10S13174   0.692   6.612   7.351  0.1321 -0.7572 -1.7244
  124OSM   H10T13175   0.589   6.473   7.407 -0.9443 -0.9888  0.0117
  124OSM   C11S13176   0.498   6.659   7.435  0.2406  0.4863 -0.2057
  124OSM   H11S13177   0.397   6.612   7.442  0.5712 -0.3647 -0.9939
  124OSM   H11T13178   0.476   6.754   7.382 -1.7657 -0.2551 -0.7376
  124OSM   C12S13179   0.548   6.662   7.576 -0.4556 -0.6968 -0.0250
  124OSM   H12S13180   0.656   6.689   7.580 -0.1468 -1.7215 -1.0257
  124OSM   H12T13181   0.542   6.570   7.638 -0.2133 -0.7983 -0.1469
  124OSM   C13S13182   0.486   6.771   7.670  0.2948  0.8335 -0.7462
  124OSM   H13S13183   0.380   6.743   7.689 -0.4471  1.9206 -3.0463
  124OSM   H13T13184   0.491   6.867   7.614 -2.8332  2.8154  2.1989
  124OSM   C14S13185   0.565   6.777   7.802 -0.6312 -0.2329 -0.7978
  124OSM   H14S13186   0.668   6.809   7.774 -0.6068 -1.2709 -1.9080
  124OSM   H14T13187   0.565   6.678   7.853  0.0191 -0.5413 -1.4028
  124OSM   C15S13188   0.517   6.888   7.896  0.1631  0.0271 -0.8538
  124OSM   H15S13189   0.406   6.894   7.894  0.2675  2.0687 -2.3232
  124OSM   H15T13190   0.546   6.987   7.854  2.7946  0.7454  2.4252
  124OSM   C16S13191   0.567   6.882   8.043  0.2762  0.0500 -0.2993
  124OSM   H16S13192   0.642   6.961   8.060  1.5721 -1.5674  1.7627
  124OSM   H16T13193   0.624   6.788   8.059  0.5033  0.0950 -0.8366
  124OSM   C17S13194   0.445   6.885   8.136  0.0199 -0.2077  0.2400
  124OSM   H17S13195   0.360   6.822   8.102  1.3735 -1.4219 -1.0124
  124OSM   H17T13196   0.399   6.986   8.143  0.3502  0.2439 -3.0828
  124OSM   C18S13197   0.495   6.838   8.272  0.5348  0.3716  0.7655
  124OSM   H18S13198   0.420   6.848   8.353  0.5629  0.0683  0.8322
  124OSM   H18T13199   0.583   6.894   8.310  1.2438 -1.9910  2.7634
  124OSM   H18U13200   0.530   6.732   8.264 -0.1985  0.1054  1.0203
  124OSM    C1F13201   0.303   6.789   6.605  0.2359 -0.4544 -0.0141
  124OSM     OF13202   0.197   6.728   6.620  0.5304 -0.0821 -0.1357
  124OSM    C2F13203   0.326   6.933   6.640 -0.7854 -0.3722  0.3320
  124OSM    H2F13204   0.407   6.971   6.574  0.1747 -1.9329  0.5992
  124OSM    H2G13205   0.358   6.926   6.746  1.5495  2.2250 -0.1360
  124OSM    C3F13206   0.191   7.010   6.629 -0.2587  0.7120 -0.1007
  124OSM    H3F13207   0.109   6.948   6.671 -0.1036  0.5339 -0.0576
  124OSM    H3G13208   0.173   7.028   6.521  1.4104  1.0645 -0.3328
  124OSM    C4F13209   0.206   7.142   6.703  0.3644 -0.1621  0.4655
  124OSM    H4F13210   0.123   7.205   6.665  1.8314  0.9277 -0.9769
  124OSM    H4G13211   0.302   7.191   6.676 -0.8618  1.3344 -1.2662
  124OSM    C5F13212   0.193   7.122   6.850 -0.0821 -1.2189 -0.3935
  124OSM    H5F13213   0.268   7.063   6.908  0.8594  0.0689 -0.2748
  124OSM    H5G13214   0.093   7.080   6.875 -0.0941  0.1395  1.9365
  124OSM    C6F13215   0.185   7.258   6.923  0.3209 -0.5700  0.1241
  124OSM    H6F13216   0.095   7.306   6.880  1.0865  1.5639  0.8356
  124OSM    H6G13217   0.276   7.318   6.901 -0.0341 -0.2011 -0.3324
  124OSM    C7F13218   0.164   7.241   7.080 -0.1227  0.8983  0.9556
  124OSM    H7F13219   0.224   7.154   7.113 -0.9237 -0.1397 -0.2852
  124OSM    H7G13220   0.054   7.234   7.095 -0.0572 -2.8771  0.1572
  124OSM    C8F13221   0.220   7.354   7.166  0.7571  0.1068  0.3718
  124OSM    H8F13222   0.325   7.366   7.133  0.1623  0.4184 -1.4174
  124OSM    H8G13223   0.218   7.308   7.267 -0.0939 -2.3667 -0.7405
  124OSM    C9F13224   0.129   7.473   7.151 -0.3260 -0.4832 -0.6888
  124OSM    H9F13225   0.141   7.518   7.051  1.4690  1.3691  0.3143
  124OSM   C10F13226   0.056   7.532   7.247  0.4479 -0.3614 -0.0939
  124OSM   H10F13227   0.000   7.624   7.224  1.5273  0.7632  1.6688
  124OSM   C11F13228   0.045   7.486   7.392 -0.2226  0.9637  0.2421
  124OSM   H11F13229   0.128   7.536   7.447 -0.0518 -0.7961  1.6422
  124OSM   H11G13230   0.044   7.376   7.406 -1.4909  0.9763  0.2853
  124OSM   C12F13231  -0.095   7.521   7.437  0.5319 -0.0985  0.0211
  124OSM   H12F13232  -0.178   7.485   7.372 -0.6865  1.1786  0.8513
  124OSM   H12G13233  -0.104   7.630   7.419 -0.5294 -0.3784 -1.2058
  124OSM   C13F13234  -0.137   7.496   7.579 -0.4198  0.1338  0.2776
  124OSM   H13F13235  -0.150   7.386   7.583  1.3075 -0.2569 -3.4322
  124OSM   H13G13236  -0.231   7.548   7.606 -0.0254 -0.3128  2.6813
  124OSM   C14F13237  -0.039   7.544   7.684  0.0953 -0.1536 -0.6766
  124OSM   H14F13238  -0.007   7.648   7.659 -0.6355  0.4167  0.7216
  124OSM   H14G13239   0.054   7.486   7.669  1.1021  0.9633  1.1207
  124OSM   C15F13240  -0.094   7.532   7.823 -0.1004 -0.6262 -0.3442
  124OSM   H15F13241  -0.136   7.431   7.836  0.3659 -0.8901 -0.8533
  124OSM   H15G13242  -0.182   7.600   7.828 -0.1820 -0.7324 -0.3391
  124OSM   C16F13243   0.005   7.573   7.933 -0.4275 -0.3919 -0.0978
  124OSM   H16F13244   0.057   7.670   7.915 -0.9612 -0.5577 -2.8615
  124OSM   H16G13245   0.094   7.509   7.950  0.2312  0.3141 -0.8014
  124OSM   C17F13246  -0.055   7.571   8.076  0.0814  0.5885  0.7495
  124OSM   H17F13247  -0.086   7.465   8.089 -1.8558  1.0015 -0.3686
  124OSM   H17G13248  -0.143   7.637   8.082 -0.3116  0.4026 -2.1976
  124OSM   C18F13249   0.052   7.605   8.182 -0.1451 -1.0306  0.8169
  124OSM   H18F13250   0.115   7.691   8.151  0.7325 -1.7978  0.4691
  124OSM   H18G13251   0.126   7.523   8.180  1.3423  0.3073  0.1752
  124OSM   H18H13252  -0.001   7.626   8.278  0.6131  2.8050  0.5040
  125OSM      N13253   3.776   5.965   5.878 -0.4542  0.1318  0.5635
  125OSM    C1513254   3.786   6.024   5.742 -0.0339 -0.0121  0.0720
  125OSM   H15A13255   3.885   6.027   5.700 -0.4600  0.7662 -0.8942
  125OSM   H15B13256   3.758   6.129   5.746  1.3618  0.5040 -2.6092
  125OSM   H15C13257   3.711   5.972   5.684  0.8028 -0.3330 -0.7197
  125OSM    C1413258   3.817   5.825   5.867  0.5997 -1.2842  0.1946
  125OSM   H14A13259   3.774   5.766   5.787  0.8414  2.0243 -2.5041
  125OSM   H14B13260   3.815   5.783   5.966 -1.9091  0.4319  0.9253
  125OSM   H14C13261   3.919   5.813   5.834 -0.1194 -2.4034 -1.7111
  125OSM    C1313262   3.869   6.040   5.967 -0.4511  0.1287  0.3128
  125OSM   H13A13263   3.841   6.143   5.980 -1.4528 -0.0731 -0.1722
  125OSM   H13B13264   3.971   6.013   5.947 -0.1036  0.7087  1.2984
  125OSM   H13C13265   3.861   5.993   6.065  1.3737 -0.1041  0.3613
  125OSM    C1213266   3.637   5.976   5.921 -0.1450  0.2459 -0.5373
  125OSM   H12A13267   3.581   5.901   5.867  1.1425 -0.1521 -1.3402
  125OSM   H12B13268   3.587   6.070   5.903 -0.1228  0.6077  1.1440
  125OSM    C1113269   3.614   5.927   6.066 -0.4238 -0.6845 -1.0120
  125OSM   H11A13270   3.667   5.998   6.133  0.7615 -2.7682  0.2997
  125OSM   H11B13271   3.648   5.822   6.079  1.0453 -0.0997 -0.0428
  125OSM      P13272   3.404   6.075   6.116 -0.2121 -0.0507 -0.0820
  125OSM    O1313273   3.428   6.174   6.005 -0.0241  0.2266 -0.2434
  125OSM    O1413274   3.258   6.056   6.144 -0.4598  0.1978 -0.0585
  125OSM    O1113275   3.480   6.108   6.255 -0.0236  0.0004  0.0947
  125OSM    O1213276   3.474   5.935   6.089  0.7829  0.0838 -0.6678
  125OSM    C1S13277   3.461   6.037   6.375  0.2354  0.1639 -0.5082
  125OSM    H1S13278   3.495   5.934   6.352  1.1786  0.0391  1.3636
  125OSM    H1T13279   3.351   6.040   6.393  0.5748 -0.8644  1.9476
  125OSM     NF13280   3.534   6.005   6.611  0.8494  0.3257 -0.3561
  125OSM    HNF13281   3.456   6.020   6.673  1.4233  1.6273  0.0640
  125OSM    C2S13282   3.540   6.099   6.497 -0.3680 -0.4435  0.7042
  125OSM    H2S13283   3.644   6.127   6.472 -0.3713 -0.8868  0.1677
  125OSM    C3S13284   3.471   6.238   6.532  0.6768 -0.6763  0.1768
  125OSM    H3S13285   3.372   6.206   6.570 -1.0026  1.5177 -2.1352
  125OSM     O313286   3.457   6.324   6.420  0.1264 -0.1196 -0.2448
  125OSM    HO313287   3.459   6.257   6.351  0.3033  0.3521 -0.7035
  125OSM    C4S13288   3.532   6.317   6.641  0.6668  0.8581 -0.4704
  125OSM    H4S13289   3.640   6.296   6.637  0.6685  0.7329  0.1410
  125OSM    C5S13290   3.474   6.392   6.733  0.2005 -0.5727  0.3298
  125OSM    H5S13291   3.365   6.402   6.737  0.0581 -2.2187  0.9219
  125OSM    C6S13292   3.550   6.455   6.839 -0.2131 -0.1805 -0.1410
  125OSM    H6S13293   3.504   6.553   6.862 -0.5959  0.1964 -2.4073
  125OSM    H6T13294   3.659   6.471   6.823  0.1589 -2.4498 -0.0651
  125OSM    C7S13295   3.526   6.359   6.949 -0.1940  0.8128 -1.3018
  125OSM    H7S13296   3.578   6.264   6.923  0.1861  1.0714 -1.4832
  125OSM    H7T13297   3.418   6.338   6.964  0.3646 -1.4023 -0.0905
  125OSM    C8S13298   3.582   6.407   7.084 -0.2201  0.2772  0.5627
  125OSM    H8S13299   3.692   6.414   7.069 -0.3904  2.4079  0.1197
  125OSM    H8T13300   3.558   6.328   7.159  0.0879 -0.2826  0.0814
  125OSM    C9S13301   3.512   6.533   7.146 -0.1518  0.6342  0.2134
  125OSM    H9S13302   3.404   6.506   7.144  0.0575 -0.2215  0.2900
  125OSM    H9T13303   3.518   6.617   7.074  1.6624  0.1251 -0.2639
  125OSM   C10S13304   3.570   6.564   7.284  0.2201 -0.2618 -0.3563
  125OSM   H10S13305   3.517   6.655   7.319  4.0103  1.1369  2.0985
  125OSM   H10T13306   3.673   6.606   7.278 -0.1275  0.6635 -0.0130
  125OSM   C11S13307   3.554   6.457   7.392 -0.2045 -0.7794 -0.0146
  125OSM   H11S13308   3.579   6.359   7.344 -2.1342 -1.4739  0.3622
  125OSM   H11T13309   3.447   6.459   7.421  0.2713 -0.7055  1.7588
  125OSM   C12S13310   3.637   6.474   7.521  0.0894 -0.0615 -0.4341
  125OSM   H12S13311   3.744   6.445   7.519 -0.1939 -1.0654 -3.7164
  125OSM   H12T13312   3.583   6.412   7.597 -2.2097  0.2026 -1.8268
  125OSM   C13S13313   3.623   6.617   7.590  0.0207  0.3005  0.4668
  125OSM   H13S13314   3.518   6.651   7.573  0.5779  2.3232  0.8732
  125OSM   H13T13315   3.686   6.699   7.550 -2.1166  0.7631 -2.1151
  125OSM   C14S13316   3.651   6.613   7.738 -0.3908 -0.1362 -0.4596
  125OSM   H14S13317   3.595   6.531   7.785 -0.1788 -1.1179 -1.8844
  125OSM   H14T13318   3.618   6.707   7.788 -0.4788  0.1045 -0.9635
  125OSM   C15S13319   3.800   6.604   7.773  0.5051 -1.2943 -0.7008
  125OSM   H15S13320   3.844   6.706   7.762 -2.1316  0.0395  0.5837
  125OSM   H15T13321   3.844   6.530   7.704  0.0094  0.2098 -2.6789
  125OSM   C16S13322   3.818   6.564   7.922  0.5165 -0.4101 -0.0948
  125OSM   H16S13323   3.928   6.555   7.938  0.5936  0.6706  0.0447
  125OSM   H16T13324   3.790   6.459   7.944  0.5748 -0.5534 -0.7019
  125OSM   C17S13325   3.756   6.652   8.030 -0.0327 -0.1305  0.5838
  125OSM   H17S13326   3.646   6.643   8.028 -0.2098  2.0744 -2.5692
  125OSM   H17T13327   3.784   6.758   8.010  0.7011 -0.6488 -1.2067
  125OSM   C18S13328   3.815   6.607   8.162  0.1833  0.2091  0.0949
  125OSM   H18S13329   3.763   6.666   8.241 -0.7174 -0.8746  0.3273
  125OSM   H18T13330   3.921   6.632   8.183  0.1093  1.0102 -0.4965
  125OSM   H18U13331   3.800   6.499   8.184 -2.0308  0.3039 -0.8858
  125OSM    C1F13332   3.597   5.888   6.612 -0.5241 -0.3153 -0.2441
  125OSM     OF13333   3.677   5.871   6.526  0.3967 -0.5115 -0.6971
  125OSM    C2F13334   3.562   5.784   6.711  0.9269 -0.5143 -0.0698
  125OSM    H2F13335   3.453   5.768   6.717  0.4775  1.0838 -2.9537
  125OSM    H2G13336   3.602   5.813   6.810  0.3135 -1.4996  0.4823
  125OSM    C3F13337   3.620   5.648   6.668  0.2712  0.0761  0.1425
  125OSM    H3F13338   3.730   5.637   6.682  0.5684 -0.9173 -2.6689
  125OSM    H3G13339   3.599   5.636   6.560  1.3691  1.2058 -0.2098
  125OSM    C4F13340   3.567   5.533   6.759 -0.4368  0.0836  0.7455
  125OSM    H4F13341   3.612   5.437   6.726  0.7250  0.8771 -0.0148
  125OSM    H4G13342   3.457   5.528   6.741  0.1556 -1.2495 -2.9154
  125OSM    C5F13343   3.595   5.555   6.912  0.5823  0.6184  0.8739
  125OSM    H5F13344   3.554   5.479   6.981  0.4871 -0.0846  0.0483
  125OSM    H5G13345   3.530   5.640   6.941 -1.6331 -1.9416  3.7113
  125OSM    C6F13346   3.748   5.579   6.927  1.0319 -0.1153 -0.4947
  125OSM    H6F13347   3.778   5.684   6.912  0.4302  0.3945  1.6543
  125OSM    H6G13348   3.800   5.521   6.848 -0.1807 -0.2097 -1.2453
  125OSM    C7F13349   3.791   5.544   7.073  0.5175  0.2159 -0.2151
  125OSM    H7F13350   3.901   5.562   7.071  0.5748  0.3866  2.5017
  125OSM    H7G13351   3.760   5.438   7.087 -0.5024  0.2051 -2.2850
  125OSM    C8F13352   3.732   5.633   7.185 -0.0481  0.3295 -0.5737
  125OSM    H8F13353   3.621   5.629   7.181 -0.0320  1.4348 -2.9273
  125OSM    H8G13354   3.757   5.740   7.175  0.7662  0.3070  1.1224
  125OSM    C9F13355   3.796   5.575   7.305  0.0758  0.2462 -0.2781
  125OSM    H9F13356   3.898   5.609   7.330 -1.0752  2.3715  1.8019
  125OSM   C10F13357   3.749   5.476   7.383  0.1149 -0.6140  0.2980
  125OSM   H10F13358   3.814   5.430   7.459  0.2926  0.8412  1.0379
  125OSM   C11F13359   3.617   5.393   7.377  0.5273 -0.2707  0.1021
  125OSM   H11F13360   3.653   5.291   7.401  4.0131  0.8641 -0.0101
  125OSM   H11G13361   3.570   5.391   7.276  0.1860 -2.0969  0.2977
  125OSM   C12F13362   3.511   5.435   7.485 -0.0925 -0.3247  0.1536
  125OSM   H12F13363   3.417   5.385   7.455 -1.2095  1.1775  1.1019
  125OSM   H12G13364   3.495   5.545   7.477 -1.2520 -0.5112 -0.2602
  125OSM   C13F13365   3.544   5.400   7.626  0.4198  0.4097  0.7614
  125OSM   H13F13366   3.579   5.295   7.632 -0.5894 -0.1223 -1.9790
  125OSM   H13G13367   3.442   5.402   7.670  0.1420  0.3750  0.1135
  125OSM   C14F13368   3.635   5.493   7.714 -0.2211  0.2671  0.1376
  125OSM   H14F13369   3.612   5.599   7.693 -1.5573  0.0184  0.3487
  125OSM   H14G13370   3.741   5.484   7.679  0.0653  0.7326  0.8857
  125OSM   C15F13371   3.624   5.469   7.867  0.1514 -0.4469  0.3787
  125OSM   H15F13372   3.523   5.509   7.891  0.2112 -1.5646  2.6618
  125OSM   H15G13373   3.700   5.536   7.912  1.9704 -0.4684 -2.5406
  125OSM   C16F13374   3.647   5.327   7.917 -0.0264 -0.1281 -0.3875
  125OSM   H16F13375   3.742   5.294   7.871 -0.4113 -0.5371 -0.8858
  125OSM   H16G13376   3.559   5.264   7.892  0.9551 -2.9635  2.9718
  125OSM   C17F13377   3.664   5.333   8.073  0.2583  0.3640 -0.1348
  125OSM   H17F13378   3.754   5.388   8.107  0.2283 -0.5264  1.4495
  125OSM   H17G13379   3.672   5.227   8.108  0.6062  0.3450 -0.2730
  125OSM   C18F13380   3.537   5.395   8.148 -0.0053 -0.3185 -1.0080
  125OSM   H18F13381   3.508   5.500   8.126  0.1410 -0.4231 -1.7277
  125OSM   H18G13382   3.553   5.398   8.258 -2.0689  0.0404 -0.7041
  125OSM   H18H13383   3.449   5.330   8.127 -0.3421  0.0352 -0.7104
  126OSM      N13384   0.809   3.553   6.219  0.0153  0.0195 -0.6640
  126OSM    C1513385   0.705   3.453   6.183 -0.5150 -0.0927  0.1113
  126OSM   H15A13386   0.649   3.419   6.268 -0.6606 -0.1210  0.0052
  126OSM   H15B13387   0.749   3.366   6.137 -0.5575  0.4835 -1.0593
  126OSM   H15C13388   0.634   3.492   6.111  0.1021  0.9567  0.0573
  126OSM    C1413389   0.913   3.530   6.124 -0.2163  0.1672  0.4639
  126OSM   H14A13390   0.869   3.527   6.026  0.1152  1.4174  0.2688
  126OSM   H14B13391   0.969   3.439   6.141  1.7525  1.5350  1.4888
  126OSM   H14C13392   0.993   3.603   6.118 -0.0762 -0.0070  0.2014
  126OSM    C1313393   0.762   3.695   6.204  0.0326 -0.5535 -1.2104
  126OSM   H13A13394   0.747   3.736   6.105 -1.0556  0.2058 -0.7394
  126OSM   H13B13395   0.832   3.765   6.247  0.2014 -0.0925 -2.2264
  126OSM   H13C13396   0.663   3.707   6.246  0.1065 -1.4163 -0.7780
  126OSM    C1213397   0.853   3.541   6.364  0.3496  0.4111 -0.4923
  126OSM   H12A13398   0.928   3.618   6.378  1.4592 -0.5120 -1.2462
  126OSM   H12B13399   0.901   3.445   6.378  0.7436  0.3579 -2.0874
  126OSM    C1113400   0.747   3.557   6.479 -0.1024 -0.0611  0.5554
  126OSM   H11A13401   0.689   3.647   6.451 -1.3994 -0.9749  0.2198
  126OSM   H11B13402   0.791   3.579   6.579 -0.9552 -0.5572  1.0433
  126OSM      P13403   0.683   3.321   6.574 -0.2022 -0.5909 -0.0592
  126OSM    O1313404   0.566   3.236   6.568 -0.1537 -0.1828 -0.3758
  126OSM    O1413405   0.814   3.259   6.531 -0.5264  0.5377 -0.3369
  126OSM    O1113406   0.689   3.381   6.716  0.5358  0.2718 -0.3547
  126OSM    O1213407   0.650   3.444   6.486 -0.1254 -0.4004  0.0960
  126OSM    C1S13408   0.636   3.306   6.827  0.3153 -0.4494  0.3085
  126OSM    H1S13409   0.712   3.228   6.846  0.4011 -0.1559  1.1728
  126OSM    H1T13410   0.534   3.265   6.809  0.4439 -0.4718 -0.3633
  126OSM     NF13411   0.605   3.315   7.069  0.2925 -0.2023  0.0720
  126OSM    HNF13412   0.522   3.302   7.122 -0.2171 -0.9266 -0.9025
  126OSM    C2S13413   0.620   3.401   6.949 -0.4978  0.6202 -0.0645
  126OSM    H2S13414   0.714   3.458   6.963 -0.2185  0.9582 -3.0168
  126OSM    C3S13415   0.506   3.499   6.920  0.4956  0.6485  0.0675
  126OSM    H3S13416   0.418   3.448   6.874 -1.2677  2.8504  0.9646
  126OSM     O313417   0.543   3.581   6.808  0.0448  0.2253  0.3211
  126OSM    HO313418   0.621   3.541   6.770 -1.3901 -1.1356 -1.2904
  126OSM    C4S13419   0.469   3.580   7.039  0.1002  0.2414  0.8149
  126OSM    H4S13420   0.555   3.616   7.098  1.4599  1.6273 -1.9480
  126OSM    C5S13421   0.343   3.622   7.079  0.1962 -0.1240  0.1891
  126OSM    H5S13422   0.256   3.587   7.022 -0.5541  0.6823  0.8181
  126OSM    C6S13423   0.321   3.706   7.206 -0.7163  0.7461 -0.3688
  126OSM    H6S13424   0.212   3.723   7.203 -0.7549  1.0247  1.8864
  126OSM    H6T13425   0.373   3.803   7.188 -1.7769  1.2641 -0.6214
  126OSM    C7S13426   0.362   3.646   7.343 -0.4293 -0.1732 -0.2115
  126OSM    H7S13427   0.471   3.662   7.357 -0.3082 -0.9700 -0.2356
  126OSM    H7T13428   0.344   3.536   7.348  0.8202 -0.4534 -1.5699
  126OSM    C8S13429   0.279   3.695   7.452  0.0856  0.0723 -0.2996
  126OSM    H8S13430   0.181   3.648   7.431  1.2287 -2.7357  0.4102
  126OSM    H8T13431   0.261   3.804   7.452  1.1745  0.2547 -0.3553
  126OSM    C9S13432   0.338   3.644   7.583 -0.2391  0.2620 -0.2678
  126OSM    H9S13433   0.429   3.699   7.614 -0.1778  0.3111 -0.5347
  126OSM    H9T13434   0.362   3.536   7.576  0.0403  0.2886  0.2391
  126OSM   C10S13435   0.240   3.671   7.697 -0.3051  0.2752  0.0621
  126OSM   H10S13436   0.141   3.631   7.666 -0.2565  0.7034 -0.6512
  126OSM   H10T13437   0.245   3.779   7.722 -1.4962  0.0442  1.3440
  126OSM   C11S13438   0.276   3.598   7.836 -0.1951  0.0674 -0.0135
  126OSM   H11S13439   0.380   3.625   7.864  0.2559 -2.0262  0.4527
  126OSM   H11T13440   0.273   3.487   7.827  2.5066 -0.0295 -0.2188
  126OSM   C12S13441   0.178   3.644   7.943 -0.8124  0.6314 -0.3283
  126OSM   H12S13442   0.079   3.596   7.925 -0.2405 -0.7208  0.0549
  126OSM   H12T13443   0.168   3.754   7.943  0.7551  0.7781 -0.7822
  126OSM   C13S13444   0.222   3.596   8.073 -0.5077  0.4920  0.5984
  126OSM   H13S13445   0.162   3.655   8.146 -0.6572 -1.1915  1.8704
  126OSM   H13T13446   0.327   3.626   8.093  0.1525 -1.5719  0.3728
  126OSM   C14S13447   0.186   3.450   8.117  0.0538 -0.1300  0.2221
  126OSM   H14S13448   0.215   3.452   8.225  0.7170  1.9857  0.0259
  126OSM   H14T13449   0.238   3.364   8.069 -1.1226 -1.0634  0.5984
  126OSM   C15S13450   0.037   3.409   8.113  0.5418  0.7778  0.0569
  126OSM   H15S13451   0.028   3.307   8.158 -1.0731  0.0725 -1.8335
  126OSM   H15T13452   0.011   3.385   8.008 -1.4004  0.7938  0.5128
  126OSM   C16S13453  -0.072   3.491   8.185  0.1452 -0.4145 -0.0292
  126OSM   H16S13454  -0.172   3.443   8.174 -1.0190  1.6478  1.2549
  126OSM   H16T13455  -0.071   3.589   8.133 -0.8507 -1.6741 -2.5426
  126OSM   C17S13456  -0.040   3.521   8.331  0.5805  0.0887  0.3690
  126OSM   H17S13457   0.059   3.571   8.338  0.3598  0.4596  0.8994
  126OSM   H17T13458  -0.036   3.419   8.373  1.7550 -0.5316 -1.2012
  126OSM   C18S13459  -0.135   3.605   8.419  0.2770 -0.0687  0.2374
  126OSM   H18S13460  -0.094   3.626   8.520 -1.7166  0.8425  0.8919
  126OSM   H18T13461  -0.222   3.538   8.434  0.8133 -0.4861  1.6084
  126OSM   H18U13462  -0.167   3.695   8.361  0.9719 -0.3573 -0.5978
  126OSM    C1F13463   0.706   3.247   7.116 -0.4194  0.0237 -0.9530
  126OSM     OF13464   0.815   3.243   7.063 -0.2082  0.5664  0.1819
  126OSM    C2F13465   0.683   3.180   7.246 -0.3790 -0.1285 -0.1497
  126OSM    H2F13466   0.740   3.086   7.246  1.0813  0.7436 -0.7157
  126OSM    H2G13467   0.577   3.148   7.259 -1.2221  1.4744 -2.7270
  126OSM    C3F13468   0.723   3.272   7.361  0.5944  0.6842  0.0430
  126OSM    H3F13469   0.667   3.367   7.347  0.0531  0.3712  0.0607
  126OSM    H3G13470   0.831   3.292   7.377  0.9964 -1.7467  0.5137
  126OSM    C4F13471   0.673   3.216   7.493 -0.1282  0.3416 -0.4433
  126OSM    H4F13472   0.742   3.133   7.519  0.1563  1.6103  3.0470
  126OSM    H4G13473   0.568   3.181   7.486 -0.4329  1.2100 -0.2612
  126OSM    C5F13474   0.674   3.328   7.610  0.0156  0.0249 -0.4083
  126OSM    H5F13475   0.603   3.408   7.580  0.9566  1.7975  2.0371
  126OSM    H5G13476   0.774   3.373   7.626 -0.0634  0.1710 -0.3304
  126OSM    C6F13477   0.628   3.266   7.738 -0.0957  0.5299 -0.2498
  126OSM    H6F13478   0.687   3.174   7.755 -0.4211  0.4089  0.2285
  126OSM    H6G13479   0.522   3.236   7.726 -0.3119  1.2604 -0.1986
  126OSM    C7F13480   0.653   3.361   7.852  0.7360  0.8192 -0.7132
  126OSM    H7F13481   0.615   3.461   7.823 -3.8711  0.2411  2.8343
  126OSM    H7G13482   0.760   3.381   7.874  0.4807  0.4929  0.9104
  126OSM    C8F13483   0.579   3.336   7.977 -0.3281  0.6996 -0.3939
  126OSM    H8F13484   0.469   3.320   7.968 -0.5627  2.7033 -1.3735
  126OSM    H8G13485   0.587   3.430   8.035 -1.7767  0.3042  0.4818
  126OSM    C9F13486   0.649   3.212   8.033 -0.0106 -0.3819 -0.3541
  126OSM    H9F13487   0.754   3.243   8.042 -0.2458  0.3468 -0.0085
  126OSM   C10F13488   0.603   3.096   8.075  0.1370  0.2638  0.4897
  126OSM   H10F13489   0.672   3.030   8.129 -1.8341  0.3800  3.2554
  126OSM   C11F13490   0.465   3.044   8.075 -0.5342 -0.1944 -0.8551
  126OSM   H11F13491   0.437   2.999   7.978 -0.6869 -2.9694  0.4491
  126OSM   H11G13492   0.399   3.132   8.094  0.5128  0.2155  0.9465
  126OSM   C12F13493   0.439   2.950   8.194 -0.6050  0.1163  0.4936
  126OSM   H12F13494   0.520   2.874   8.193 -1.0920 -0.4147 -1.2235
  126OSM   H12G13495   0.345   2.891   8.179 -2.0677  2.0984  1.6083
  126OSM   C13F13496   0.433   3.032   8.328  0.0698  0.4580  0.5299
  126OSM   H13F13497   0.520   3.101   8.340 -0.4157  1.1594  0.0832
  126OSM   H13G13498   0.439   2.961   8.413  0.4597 -0.6136 -0.3920
  126OSM   C14F13499   0.302   3.110   8.351  0.2982 -0.0211 -0.2228
  126OSM   H14F13500   0.212   3.063   8.306 -1.3698  1.0247  1.9380
  126OSM   H14G13501   0.312   3.204   8.294 -0.2435  0.0236 -0.2462
  126OSM   C15F13502   0.279   3.135   8.498 -0.5331  1.0277 -0.6255
  126OSM   H15F13503   0.374   3.132   8.556 -0.6611  0.0472 -0.4582
  126OSM   H15G13504   0.213   3.058   8.542 -0.6357  1.4870  0.0415
  126OSM   C16F13505   0.205   3.260   8.524  0.2851  0.7211 -0.2168
  126OSM   H16F13506   0.106   3.248   8.474  1.7927 -1.8477 -2.6563
  126OSM   H16G13507   0.246   3.347   8.468 -1.3066  2.5106  1.3302
  126OSM   C17F13508   0.193   3.292   8.673  0.4383 -0.0500  1.0256
  126OSM   H17F13509   0.293   3.324   8.711  1.0089  1.1189 -1.3732
  126OSM   H17G13510   0.166   3.204   8.736  3.5679 -3.3267 -2.0022
  126OSM   C18F13511   0.100   3.415   8.701 -0.3686  0.7282 -0.3943
  126OSM   H18F13512   0.135   3.511   8.658  0.3027  0.8158  0.3345
  126OSM   H18G13513   0.101   3.436   8.810 -0.6619  3.2310 -0.8629
  126OSM   H18H13514  -0.003   3.400   8.662 -1.3228 -0.6980  2.4924
  127OSM      N13515   6.382   4.131   6.620 -0.7388  0.3444 -0.9801
  127OSM    C1513516   6.273   4.035   6.593 -0.3508  0.5598  1.0453
  127OSM   H15A13517   6.176   4.049   6.638 -0.4573  2.4251  0.2824
  127OSM   H15B13518   6.301   3.932   6.610  1.2072  0.8157  0.0975
  127OSM   H15C13519   6.249   4.025   6.488  3.9694 -1.9100  0.1791
  127OSM    C1413520   6.426   4.127   6.761 -0.3248  0.4418 -0.2474
  127OSM   H14A13521   6.429   4.027   6.800 -4.3837 -0.2692 -1.4931
  127OSM   H14B13522   6.345   4.173   6.817 -0.8837 -1.7477  0.8093
  127OSM   H14C13523   6.522   4.167   6.789  0.1895  0.1432 -1.5569
  127OSM    C1313524   6.500   4.097   6.537  0.1260  0.1152 -0.5382
  127OSM   H13A13525   6.570   4.179   6.538 -0.7399  0.8679 -1.0288
  127OSM   H13B13526   6.468   4.089   6.434 -2.4833  0.5788  0.1967
  127OSM   H13C13527   6.542   3.999   6.555 -1.2588 -0.8851 -2.5361
  127OSM    C1213528   6.341   4.271   6.587 -0.2531  0.3519 -0.9500
  127OSM   H12A13529   6.425   4.337   6.599 -0.1010 -0.3629  2.3170
  127OSM   H12B13530   6.258   4.295   6.653 -1.3949 -1.0252 -1.8446
  127OSM    C1113531   6.292   4.314   6.443  0.3122 -0.2333 -0.0617
  127OSM   H11A13532   6.375   4.293   6.371  0.0380 -1.0388 -0.1588
  127OSM   H11B13533   6.272   4.421   6.461  0.3295 -0.0477 -1.1429
  127OSM      P13534   6.039   4.323   6.352  0.0094  0.7177 -0.1127
  127OSM    O1313535   6.068   4.395   6.228 -0.1214  0.3460 -0.3284
  127OSM    O1413536   5.927   4.226   6.340 -0.3771  0.1783  0.3638
  127OSM    O1113537   6.007   4.426   6.471  0.2179 -0.6679  0.4739
  127OSM    O1213538   6.171   4.249   6.401 -0.2595  0.2050 -0.0208
  127OSM    C1S13539   5.968   4.378   6.600  0.0640 -1.1887  0.2848
  127OSM    H1S13540   6.024   4.286   6.627  0.6523 -0.7114  0.7246
  127OSM    H1T13541   5.860   4.353   6.607 -0.2015 -0.3659 -0.7241
  127OSM     NF13542   5.966   4.418   6.838  0.1123  0.1218 -0.0752
  127OSM    HNF13543   5.871   4.417   6.868 -0.1677  0.8783 -0.9156
  127OSM    C2S13544   5.992   4.486   6.711 -0.0124 -0.4546 -0.5326
  127OSM    H2S13545   6.095   4.528   6.709  0.7778 -2.3844 -1.2603
  127OSM    C3S13546   5.899   4.604   6.680  0.4987 -0.4484  0.3447
  127OSM    H3S13547   5.793   4.570   6.677  0.3855 -0.0720  0.0249
  127OSM     O313548   5.912   4.663   6.553  0.4409  0.4779  0.1721
  127OSM    HO313549   5.949   4.595   6.496 -3.6140  0.0935 -2.1501
  127OSM    C4S13550   5.915   4.713   6.784 -0.5665  0.1536  0.1832
  127OSM    H4S13551   6.010   4.769   6.786 -1.8092  2.3500 -0.1551
  127OSM    C5S13552   5.821   4.757   6.873 -0.1986  0.1000  0.9934
  127OSM    H5S13553   5.729   4.699   6.885 -0.3275  0.3992  1.4808
  127OSM    C6S13554   5.828   4.859   6.980 -0.8460  0.0092 -0.0441
  127OSM    H6S13555   5.744   4.931   6.970  0.1198  1.0593 -0.7676
  127OSM    H6T13556   5.927   4.907   6.966 -0.2826 -1.3891 -0.9257
  127OSM    C7S13557   5.819   4.794   7.118  0.3259  0.4267 -0.1680
  127OSM    H7S13558   5.903   4.722   7.131 -1.3257 -1.0512  2.8581
  127OSM    H7T13559   5.731   4.729   7.136 -0.0984  1.2709  0.8529
  127OSM    C8S13560   5.824   4.898   7.233  0.3292  0.9765 -0.0353
  127OSM    H8S13561   5.722   4.942   7.233 -0.0169  0.1693  0.0784
  127OSM    H8T13562   5.896   4.981   7.211  0.0859  1.1573 -0.1526
  127OSM    C9S13563   5.840   4.839   7.371 -1.0747 -0.4955  0.3003
  127OSM    H9S13564   5.892   4.905   7.444  0.5146  0.1062 -1.3216
  127OSM    H9T13565   5.917   4.759   7.359 -0.9905 -0.3865  0.1045
  127OSM   C10S13566   5.717   4.778   7.429 -0.3857 -1.1435  0.2561
  127OSM   H10S13567   5.684   4.699   7.359 -0.7091 -0.5946 -0.2187
  127OSM   H10T13568   5.633   4.849   7.443 -0.0093 -0.8353  0.9914
  127OSM   C11S13569   5.740   4.711   7.570 -0.0054 -0.3577  0.0907
  127OSM   H11S13570   5.786   4.788   7.636 -0.0332 -0.4511  0.2205
  127OSM   H11T13571   5.809   4.624   7.568  1.3906  0.7134 -2.7061
  127OSM   C12S13572   5.608   4.664   7.631 -0.1051 -0.2732  0.4950
  127OSM   H12S13573   5.582   4.571   7.576  1.3983 -1.0723  1.0992
  127OSM   H12T13574   5.519   4.728   7.617 -0.3621 -1.0260 -1.3452
  127OSM   C13S13575   5.628   4.614   7.770  0.1214  0.4118 -0.2895
  127OSM   H13S13576   5.653   4.697   7.841  0.8450  0.6829 -0.8544
  127OSM   H13T13577   5.715   4.546   7.775  0.5069  0.9733  0.9245
  127OSM   C14S13578   5.503   4.545   7.826 -0.7099 -0.6784 -0.1854
  127OSM   H14S13579   5.476   4.448   7.778 -2.5386  0.0433 -0.6690
  127OSM   H14T13580   5.423   4.616   7.797  1.4629  1.6487 -0.6211
  127OSM   C15S13581   5.501   4.539   7.977  0.2679 -0.5499  1.0149
  127OSM   H15S13582   5.524   4.639   8.021  0.7411  0.7714 -2.1174
  127OSM   H15T13583   5.583   4.470   8.006  2.0728  1.3119  0.4536
  127OSM   C16S13584   5.370   4.491   8.035  0.0344 -0.2022  0.4152
  127OSM   H16S13585   5.322   4.407   7.980 -1.7019 -0.4425  2.2131
  127OSM   H16T13586   5.310   4.579   8.007 -0.6173 -1.4443 -2.2692
  127OSM   C17S13587   5.372   4.453   8.186 -0.2036 -0.1216 -0.3857
  127OSM   H17S13588   5.436   4.363   8.197  0.5226  0.4027 -0.2969
  127OSM   H17T13589   5.269   4.433   8.222  0.4711 -1.4656  0.8224
  127OSM   C18S13590   5.430   4.565   8.273  0.6069  0.5478 -0.5922
  127OSM   H18S13591   5.437   4.544   8.382  0.2911  1.6312 -0.3649
  127OSM   H18T13592   5.390   4.668   8.270 -1.4754 -0.0241  3.7890
  127OSM   H18U13593   5.534   4.587   8.241  0.4188 -0.3150 -1.8423
  127OSM    C1F13594   6.056   4.344   6.897  0.8674  0.9077  1.3054
  127OSM     OF13595   6.164   4.330   6.838 -0.2846  0.3548  0.0119
  127OSM    C2F13596   6.027   4.284   7.036 -0.6011  0.0882  0.4269
  127OSM    H2F13597   6.122   4.256   7.086 -0.5675  2.4872  1.7669
  127OSM    H2G13598   5.964   4.192   7.028 -0.1958 -0.1249 -0.3845
  127OSM    C3F13599   5.962   4.381   7.124  0.3238 -0.7354 -0.7570
  127OSM    H3F13600   5.864   4.421   7.089  0.8863  1.0022 -0.3964
  127OSM    H3G13601   6.018   4.476   7.139  1.7809 -1.4974 -1.3289
  127OSM    C4F13602   5.933   4.314   7.265 -0.1117  0.3623 -0.6018
  127OSM    H4F13603   6.035   4.309   7.310  0.4918 -0.1742 -1.9850
  127OSM    H4G13604   5.900   4.208   7.268  0.6795  0.0671 -1.7924
  127OSM    C5F13605   5.838   4.401   7.352  0.0096  0.0977  0.1554
  127OSM    H5F13606   5.736   4.409   7.310  0.5212 -1.3172 -1.3935
  127OSM    H5G13607   5.868   4.507   7.337 -1.1162 -0.1256 -4.6244
  127OSM    C6F13608   5.829   4.359   7.497  0.1405  0.0252  0.7418
  127OSM    H6F13609   5.769   4.425   7.563 -0.0754 -0.7833  1.3492
  127OSM    H6G13610   5.929   4.373   7.543  0.8863 -0.4750 -0.6598
  127OSM    C7F13611   5.779   4.217   7.537 -0.1870 -0.0529 -0.0396
  127OSM    H7F13612   5.856   4.144   7.504 -1.1984 -1.3222  0.3615
  127OSM    H7G13613   5.690   4.214   7.471  1.8081 -0.5566 -2.7811
  127OSM    C8F13614   5.761   4.208   7.683 -0.2461  0.7263  0.1690
  127OSM    H8F13615   5.695   4.289   7.721 -1.1268  0.9260 -1.7495
  127OSM    H8G13616   5.862   4.206   7.729  0.5507  2.5090 -1.4352
  127OSM    C9F13617   5.685   4.075   7.711  0.4884 -0.2117  0.3264
  127OSM    H9F13618   5.697   3.990   7.643 -1.3766  0.2360 -0.5905
  127OSM   C10F13619   5.603   4.050   7.815 -0.0197 -0.3219  0.0991
  127OSM   H10F13620   5.553   3.952   7.825  1.9603 -1.4027 -0.3619
  127OSM   C11F13621   5.583   4.142   7.936  0.7131  0.3557  0.0058
  127OSM   H11F13622   5.488   4.197   7.918  1.1376  1.0579 -0.0954
  127OSM   H11G13623   5.670   4.210   7.951  0.8107 -0.0093  1.0726
  127OSM   C12F13624   5.567   4.059   8.066 -0.6938 -0.2211 -0.0177
  127OSM   H12F13625   5.591   4.134   8.145 -2.1040 -0.1435  0.3415
  127OSM   H12G13626   5.650   3.985   8.066 -0.6218 -0.1445 -0.5134
  127OSM   C13F13627   5.428   4.003   8.086 -0.0842  0.4566 -0.0408
  127OSM   H13F13628   5.415   3.914   8.020  0.5166  1.5468 -1.6630
  127OSM   H13G13629   5.352   4.076   8.052 -1.6710 -0.5275  1.3208
  127OSM   C14F13630   5.406   3.947   8.231  0.7058  0.1898 -0.1043
  127OSM   H14F13631   5.499   3.895   8.261  0.2426 -1.4986 -1.4981
  127OSM   H14G13632   5.321   3.876   8.233  1.8591 -1.2080 -0.2653
  127OSM   C15F13633   5.380   4.059   8.330 -0.1181  0.7208 -0.7262
  127OSM   H15F13634   5.453   4.143   8.320  0.6640  0.2922  1.1056
  127OSM   H15G13635   5.404   4.020   8.431 -2.6499 -1.1717 -0.8139
  127OSM   C16F13636   5.237   4.116   8.324 -0.2083  0.9461 -0.0839
  127OSM   H16F13637   5.151   4.046   8.329 -1.0688  1.7214 -2.8368
  127OSM   H16G13638   5.218   4.186   8.240  0.3978  1.9743  0.6175
  127OSM   C17F13639   5.218   4.210   8.451 -0.0513 -0.1143 -0.3835
  127OSM   H17F13640   5.308   4.275   8.451  1.9396 -2.7628  1.9920
  127OSM   H17G13641   5.218   4.144   8.540 -1.5147  0.2802 -0.0814
  127OSM   C18F13642   5.092   4.285   8.436  0.5954 -0.7012  0.2762
  127OSM   H18F13643   5.111   4.394   8.437 -2.2290 -0.1737  0.7510
  127OSM   H18G13644   5.026   4.272   8.524 -0.9731 -0.8916 -0.9171
  127OSM   H18H13645   5.032   4.253   8.348  1.1732 -2.8370  0.6112
  128OSM      N13646   5.710   2.411   6.104  0.1541  0.0418  0.3226
  128OSM    C1513647   5.658   2.341   5.986 -0.7529  0.1477 -0.7605
  128OSM   H15A13648   5.740   2.322   5.917  0.1314  0.8046  0.0920
  128OSM   H15B13649   5.580   2.406   5.953 -1.9932 -0.5197  0.7788
  128OSM   H15C13650   5.624   2.242   6.011  1.5233 -0.1115  1.6061
  128OSM    C1413651   5.834   2.338   6.157  0.1160  0.3313 -0.4537
  128OSM   H14A13652   5.918   2.351   6.091  2.0409 -1.0987  1.6248
  128OSM   H14B13653   5.820   2.231   6.158  0.5983  0.2611 -1.0687
  128OSM   H14C13654   5.865   2.382   6.251  0.2200 -0.8656  0.0752
  128OSM    C1313655   5.754   2.544   6.060 -0.2338  0.4165 -0.6887
  128OSM   H13A13656   5.668   2.593   6.016 -0.7642  0.7452  0.6870
  128OSM   H13B13657   5.825   2.532   5.980  2.0425  1.4281  1.1464
  128OSM   H13C13658   5.791   2.598   6.146 -0.0362 -1.3365  0.3698
  128OSM    C1213659   5.613   2.417   6.221 -0.1372 -0.4573  1.1233
  128OSM   H12A13660   5.521   2.465   6.193  1.4451  2.2773  0.3805
  128OSM   H12B13661   5.657   2.476   6.300 -0.8749  1.2753  0.2925
  128OSM    C1113662   5.574   2.276   6.282 -0.3039  0.3959  0.7754
  128OSM   H11A13663   5.504   2.300   6.365 -0.0936  1.5887  0.6236
  128OSM   H11B13664   5.661   2.230   6.333  0.7290 -0.0215 -1.2947
  128OSM      P13665   5.365   2.186   6.159 -0.1639  0.1490 -0.1870
  128OSM    O1313666   5.326   2.316   6.097  0.2381  0.1223  0.5771
  128OSM    O1413667   5.332   2.073   6.068 -0.5579  0.0518  0.1360
  128OSM    O1113668   5.311   2.167   6.303  0.2555  0.1527  0.2119
  128OSM    O1213669   5.521   2.193   6.184  0.2868  0.4433 -0.6217
  128OSM    C1S13670   5.317   2.036   6.363 -0.8649  0.0555 -0.6783
  128OSM    H1S13671   5.386   1.969   6.306 -0.9057 -0.5623 -0.0185
  128OSM    H1T13672   5.222   1.979   6.363 -1.9954  1.8925 -3.4199
  128OSM     NF13673   5.408   1.902   6.547  0.2485 -0.1957 -0.4304
  128OSM    HNF13674   5.348   1.845   6.601  0.1871  2.2052  2.1357
  128OSM    C2S13675   5.362   2.034   6.512  0.7320 -0.9629  0.5092
  128OSM    H2S13676   5.452   2.100   6.512  0.6972 -0.9014 -0.9107
  128OSM    C3S13677   5.240   2.101   6.591 -0.6338  0.9434  1.1018
  128OSM    H3S13678   5.157   2.030   6.566  0.0854  0.6409 -0.5029
  128OSM     O313679   5.210   2.224   6.535 -0.1541  0.2854 -0.4054
  128OSM    HO313680   5.243   2.213   6.446 -0.9496 -0.6677 -0.5902
  128OSM    C4S13681   5.272   2.115   6.733  0.4927 -0.1554 -0.1202
  128OSM    H4S13682   5.360   2.178   6.754  1.2032 -1.7657  1.8418
  128OSM    C5S13683   5.212   2.045   6.833  1.0845  0.8512 -0.1594
  128OSM    H5S13684   5.123   1.983   6.813 -0.2909  2.1096  1.8447
  128OSM    C6S13685   5.243   2.069   6.973  0.6984  0.0734 -0.0454
  128OSM    H6S13686   5.306   1.982   7.001  2.5989  1.8128  1.2632
  128OSM    H6T13687   5.157   2.052   7.041  0.8400 -0.7276 -0.0666
  128OSM    C7S13688   5.313   2.202   7.013  0.2733 -0.2999 -0.4637
  128OSM    H7S13689   5.246   2.288   6.993 -0.8408 -1.4561 -1.8674
  128OSM    H7T13690   5.412   2.208   6.965  1.5087  0.9945  2.1500
  128OSM    C8S13691   5.339   2.221   7.162  0.2153  0.0628 -0.2072
  128OSM    H8S13692   5.419   2.297   7.169  0.7605 -0.5984  0.7962
  128OSM    H8T13693   5.366   2.116   7.185 -1.4165 -0.7250 -1.7047
  128OSM    C9S13694   5.223   2.256   7.256 -0.6467  0.1572  0.6482
  128OSM    H9S13695   5.151   2.171   7.253 -1.5372  0.9432 -0.7630
  128OSM    H9T13696   5.174   2.351   7.225  2.5975  1.4882 -0.5576
  128OSM   C10S13697   5.282   2.279   7.394 -0.9390 -0.1588 -0.4758
  128OSM   H10S13698   5.372   2.344   7.396 -0.7431 -0.3794 -1.6334
  128OSM   H10T13699   5.309   2.177   7.427  0.6500  0.7702  1.2215
  128OSM   C11S13700   5.180   2.341   7.494 -0.4498  0.0538 -0.5853
  128OSM   H11S13701   5.085   2.284   7.497 -0.4316  0.0784  0.8714
  128OSM   H11T13702   5.161   2.448   7.471 -0.1017  0.0563 -0.8664
  128OSM   C12S13703   5.232   2.359   7.637 -0.3328 -0.0388 -0.6765
  128OSM   H12S13704   5.299   2.447   7.647 -0.5432 -0.1296  1.8191
  128OSM   H12T13705   5.293   2.268   7.653 -0.5926 -0.5302 -2.4563
  128OSM   C13S13706   5.117   2.380   7.738  0.2453  0.0015  0.1424
  128OSM   H13S13707   5.074   2.281   7.765 -0.1223  0.0902 -0.1173
  128OSM   H13T13708   5.042   2.444   7.687 -0.4336  0.2519  1.4324
  128OSM   C14S13709   5.174   2.436   7.869  0.8069 -0.4382 -0.8236
  128OSM   H14S13710   5.244   2.522   7.858  0.3390  0.4999  2.8534
  128OSM   H14T13711   5.235   2.356   7.917  1.3329  0.7841  0.6166
  128OSM   C15S13712   5.058   2.470   7.957 -0.3519 -0.9658  0.4251
  128OSM   H15S13713   4.983   2.391   7.936 -1.9031  0.2770  1.1952
  128OSM   H15T13714   5.033   2.575   7.930  0.0891 -0.4679  1.9158
  128OSM   C16S13715   5.073   2.477   8.109  0.1064 -0.0235 -0.1532
  128OSM   H16S13716   5.154   2.550   8.130 -1.1886  1.6329 -0.8138
  128OSM   H16T13717   5.118   2.380   8.139  0.2267  0.1809  0.3353
  128OSM   C17S13718   4.951   2.505   8.183 -0.1866 -0.4719  0.1306
  128OSM   H17S13719   4.905   2.596   8.138 -1.4666 -1.6363 -0.9499
  128OSM   H17T13720   4.981   2.519   8.289  0.6059  1.8818 -0.3717
  128OSM   C18S13721   4.846   2.388   8.176  0.1795  0.0588  0.1942
  128OSM   H18S13722   4.770   2.407   8.255  1.5313  0.0619  1.5245
  128OSM   H18T13723   4.888   2.286   8.187 -0.1972 -0.2452 -1.1133
  128OSM   H18U13724   4.793   2.404   8.080  2.0193  4.2531 -0.2549
  128OSM    C1F13725   5.534   1.860   6.517 -0.4679 -0.2445  0.0912
  128OSM     OF13726   5.600   1.925   6.444  0.1247  0.3253 -0.2828
  128OSM    C2F13727   5.582   1.726   6.562 -0.2750  0.0037 -0.2301
  128OSM    H2F13728   5.693   1.728   6.567 -0.1715 -2.3481 -0.8886
  128OSM    H2G13729   5.548   1.662   6.478  2.2712  0.8295 -1.9434
  128OSM    C3F13730   5.532   1.672   6.695 -0.7228 -0.4207 -0.6776
  128OSM    H3F13731   5.553   1.563   6.696  5.2761  0.5849  0.1214
  128OSM    H3G13732   5.422   1.687   6.693 -0.4946  1.1928 -1.2132
  128OSM    C4F13733   5.599   1.732   6.821  0.3489 -0.1272  0.1569
  128OSM    H4F13734   5.579   1.840   6.838 -3.4660 -0.6723 -0.4924
  128OSM    H4G13735   5.708   1.711   6.825  0.5758  1.0730  0.6113
  128OSM    C5F13736   5.545   1.650   6.948 -0.4167  0.5012  1.0411
  128OSM    H5F13737   5.564   1.540   6.943 -0.5094  0.5499 -5.6667
  128OSM    H5G13738   5.436   1.668   6.941 -0.9231 -2.2484  1.2836
  128OSM    C6F13739   5.604   1.720   7.077 -0.5075 -0.0784  0.0322
  128OSM    H6F13740   5.580   1.828   7.077  0.8153  0.2278 -0.9832
  128OSM    H6G13741   5.714   1.709   7.069 -0.6221 -2.3617  1.1990
  128OSM    C7F13742   5.567   1.663   7.211  0.3019  0.0184  0.2782
  128OSM    H7F13743   5.462   1.688   7.240  0.9893  2.5306  0.7067
  128OSM    H7G13744   5.630   1.718   7.284 -0.5113  0.8781  0.3583
  128OSM    C8F13745   5.584   1.512   7.222  0.2490  0.0517 -0.2238
  128OSM    H8F13746   5.694   1.501   7.211  0.0613 -0.7569 -1.4394
  128OSM    H8G13747   5.541   1.465   7.131 -0.8374  0.6918 -0.0441
  128OSM    C9F13748   5.535   1.452   7.351 -0.1514  0.3645  0.2697
  128OSM    H9F13749   5.469   1.364   7.344 -0.5107  0.5777  0.9432
  128OSM   C10F13750   5.587   1.483   7.472  0.0593 -0.8683 -0.3077
  128OSM   H10F13751   5.562   1.420   7.559 -2.9248  0.0074 -0.4558
  128OSM   C11F13752   5.689   1.588   7.497 -0.5389 -0.0930 -0.2966
  128OSM   H11F13753   5.648   1.691   7.505  0.0380  0.0887  0.3583
  128OSM   H11G13754   5.768   1.590   7.419 -2.5929  1.5576 -2.4021
  128OSM   C12F13755   5.769   1.565   7.636 -0.2430  0.1234  0.3590
  128OSM   H12F13756   5.870   1.610   7.633 -0.4027  0.4746  0.3285
  128OSM   H12G13757   5.779   1.454   7.638 -0.3854  0.1114  0.4066
  128OSM   C13F13758   5.692   1.612   7.754  0.0679  0.2545  0.4190
  128OSM   H13F13759   5.602   1.547   7.762 -1.2149  1.9507  0.1205
  128OSM   H13G13760   5.655   1.714   7.734 -1.6629 -0.4614 -0.1524
  128OSM   C14F13761   5.769   1.595   7.889 -0.1455  0.1809 -0.0407
  128OSM   H14F13762   5.866   1.648   7.890 -0.4111  0.7768 -2.0193
  128OSM   H14G13763   5.777   1.489   7.918  0.4987  0.3019  0.2144
  128OSM   C15F13764   5.683   1.664   8.006 -0.0845 -0.0112 -0.5638
  128OSM   H15F13765   5.583   1.616   8.007  0.5113 -1.2664 -0.6190
  128OSM   H15G13766   5.651   1.767   7.980  0.0657  0.3238  0.5724
  128OSM   C16F13767   5.743   1.659   8.147 -0.1241  0.6703 -0.1317
  128OSM   H16F13768   5.677   1.707   8.223 -0.1817  1.6052 -0.7677
  128OSM   H16G13769   5.834   1.722   8.139  0.5333 -0.4157 -1.4595
  128OSM   C17F13770   5.773   1.517   8.198  0.5009 -0.5925  0.2630
  128OSM   H17F13771   5.816   1.519   8.300  2.8406 -0.0417 -0.6958
  128OSM   H17G13772   5.851   1.473   8.132  0.6682  0.3237 -0.1703
  128OSM   C18F13773   5.652   1.426   8.194 -0.0695 -0.7499  0.4151
  128OSM   H18F13774   5.667   1.326   8.239 -0.7597 -0.4326  1.3584
  128OSM   H18G13775   5.637   1.405   8.086 -0.4469  2.3304 -0.1721
  128OSM   H18H13776   5.564   1.479   8.237  0.3897  0.0858  0.3414
  129OSM      N13777   4.172   3.127   6.159  0.1653  0.5732  0.2948
  129OSM    C1513778   4.149   3.080   6.294 -0.5661 -0.0550 -0.4857
  129OSM   H15A13779   4.047   3.047   6.302 -0.5538 -0.0128 -0.1649
  129OSM   H15B13780   4.161   3.161   6.364 -3.0468  0.1061 -0.2189
  129OSM   H15C13781   4.217   2.999   6.316  0.4570  0.7545 -0.6085
  129OSM    C1413782   4.314   3.152   6.135  0.4870  0.0270  0.5296
  129OSM   H14A13783   4.371   3.061   6.123  2.6651  1.3502  0.7399
  129OSM   H14B13784   4.357   3.196   6.224 -0.0406  0.1392  0.7286
  129OSM   H14C13785   4.343   3.205   6.046 -0.8722 -0.5262 -0.2555
  129OSM    C1313786   4.123   3.019   6.071  0.1518  0.3162 -0.0919
  129OSM   H13A13787   4.133   3.039   5.965 -2.0298  0.0092 -0.3825
  129OSM   H13B13788   4.018   2.998   6.088 -0.5602  1.9043 -2.3071
  129OSM   H13C13789   4.177   2.928   6.094  0.3950  0.3749 -0.4105
  129OSM    C1213790   4.096   3.258   6.136 -0.0613 -0.6796 -0.0277
  129OSM   H12A13791   4.100   3.280   6.030  0.1596 -0.4483  0.0283
  129OSM   H12B13792   4.156   3.332   6.186 -0.4574 -0.2037 -0.2644
  129OSM    C1113793   3.944   3.261   6.175  0.5284  0.6359  0.0433
  129OSM   H11A13794   3.905   3.364   6.160 -1.9035  0.0787  2.1150
  129OSM   H11B13795   3.936   3.241   6.284 -0.8776 -0.0570 -0.1739
  129OSM      P13796   3.753   3.075   6.153  0.1939 -0.2236 -0.6338
  129OSM    O1313797   3.622   3.141   6.146 -0.0262  0.1485 -0.1184
  129OSM    O1413798   3.758   2.940   6.085  0.1878 -0.4065  0.1050
  129OSM    O1113799   3.788   3.050   6.308  0.4352  0.4058 -0.2737
  129OSM    O1213800   3.869   3.167   6.091 -0.2255  0.5023 -0.3860
  129OSM    C1S13801   3.723   3.127   6.414  0.1994 -0.3706  0.7412
  129OSM    H1S13802   3.613   3.115   6.402  0.2521 -0.7856  0.6437
  129OSM    H1T13803   3.726   3.236   6.396  1.2118 -0.0680  2.7079
  129OSM     NF13804   3.728   3.178   6.657  0.0416  0.1919  0.0393
  129OSM    HNF13805   3.802   3.199   6.721  0.7406 -2.5671  0.1950
  129OSM    C2S13806   3.754   3.077   6.554  0.4178  0.3827  0.0857
  129OSM    H2S13807   3.684   2.990   6.561  1.2538 -0.3309 -0.2367
  129OSM    C3S13808   3.895   3.015   6.565  0.3895 -1.2615  0.6497
  129OSM    H3S13809   3.967   3.098   6.548  0.3677 -0.4871  4.0890
  129OSM     O313810   3.924   2.908   6.477 -0.3722  0.2981 -0.7653
  129OSM    HO313811   3.868   2.915   6.399  1.3178 -1.5719 -2.1986
  129OSM    C4S13812   3.921   2.979   6.716 -0.1999 -0.4857  0.8318
  129OSM    H4S13813   3.988   3.054   6.761 -2.0703  1.0708  1.1256
  129OSM    C5S13814   3.876   2.871   6.787  0.9439  0.1660  0.5740
  129OSM    H5S13815   3.813   2.795   6.740 -1.3466  2.0021  0.5590
  129OSM    C6S13816   3.908   2.845   6.931 -0.1543 -0.1047  0.1242
  129OSM    H6S13817   4.009   2.889   6.949  0.1772 -0.8865  0.1945
  129OSM    H6T13818   3.917   2.736   6.951 -1.6303 -0.2079  0.2711
  129OSM    C7S13819   3.817   2.909   7.032 -0.1496 -0.1738  0.4023
  129OSM    H7S13820   3.715   2.871   7.014  0.1718 -0.6750 -0.3655
  129OSM    H7T13821   3.809   3.017   7.005 -3.4322 -0.7413 -1.1313
  129OSM    C8S13822   3.857   2.884   7.177  0.5088  0.5978 -0.2043
  129OSM    H8S13823   3.962   2.918   7.193  1.1392 -2.6798  3.3282
  129OSM    H8T13824   3.868   2.774   7.189 -0.8479  0.7488  2.6555
  129OSM    C9S13825   3.754   2.934   7.281  0.3144 -0.2988 -0.1048
  129OSM    H9S13826   3.675   2.857   7.278 -1.1794  1.1987  0.1987
  129OSM    H9T13827   3.702   3.027   7.249  0.5280 -0.0513  0.2636
  129OSM   C10S13828   3.823   2.937   7.415  0.3205 -0.1485  0.2833
  129OSM   H10S13829   3.904   3.012   7.418 -1.2371  1.5451  0.7231
  129OSM   H10T13830   3.875   2.841   7.439  0.1051 -0.1714  0.6516
  129OSM   C11S13831   3.728   2.967   7.535  0.1896  0.0447 -0.3064
  129OSM   H11S13832   3.649   2.891   7.554  1.8380 -1.0535  2.3195
  129OSM   H11T13833   3.676   3.062   7.509 -1.3262 -0.8558 -0.6521
  129OSM   C12S13834   3.800   2.987   7.671  0.8136  0.0923  0.0165
  129OSM   H12S13835   3.882   3.059   7.647 -0.9782  1.7298 -1.3551
  129OSM   H12T13836   3.837   2.894   7.717 -2.6410 -0.9910  0.6984
  129OSM   C13S13837   3.719   3.057   7.776  0.4292 -0.5733 -0.2846
  129OSM   H13S13838   3.635   2.997   7.817  0.0338  0.4213  0.4014
  129OSM   H13T13839   3.668   3.140   7.723 -0.4160 -0.9165 -0.0079
  129OSM   C14S13840   3.799   3.119   7.890  0.2049 -0.0318 -0.4847
  129OSM   H14S13841   3.882   3.183   7.851 -1.3406  1.0625 -2.0565
  129OSM   H14T13842   3.835   3.033   7.950 -0.0067 -0.6800 -1.2898
  129OSM   C15S13843   3.710   3.208   7.976 -0.1441  0.2247  0.4205
  129OSM   H15S13844   3.630   3.157   8.033 -0.3580 -0.5527 -0.5476
  129OSM   H15T13845   3.655   3.280   7.912  0.6081  1.3663  1.0399
  129OSM   C16S13846   3.800   3.286   8.065  0.0325  1.3360  0.1799
  129OSM   H16S13847   3.883   3.338   8.013 -2.4032  4.5315 -0.6700
  129OSM   H16T13848   3.852   3.223   8.140 -1.2855  1.0305  0.8402
  129OSM   C17S13849   3.718   3.402   8.134 -0.3705 -0.0881 -0.1283
  129OSM   H17S13850   3.633   3.349   8.183  0.2842 -0.8852  0.1637
  129OSM   H17T13851   3.671   3.472   8.062 -0.2858 -1.0650 -1.1419
  129OSM   C18S13852   3.802   3.484   8.220  0.1367 -0.9061  0.0297
  129OSM   H18S13853   3.872   3.551   8.167  0.7281  0.1691  2.1338
  129OSM   H18T13854   3.867   3.429   8.292  0.1883  0.7720  1.2981
  129OSM   H18U13855   3.746   3.548   8.292  0.2568 -0.9574  0.1697
  129OSM    C1F13856   3.611   3.233   6.683 -0.0544  0.4063  0.4009
  129OSM     OF13857   3.516   3.209   6.612  0.0055 -0.0968 -0.0870
  129OSM    C2F13858   3.598   3.328   6.798  0.0638  0.0469 -0.5476
  129OSM    H2F13859   3.514   3.400   6.782 -1.3672 -1.9214 -2.0786
  129OSM    H2G13860   3.690   3.391   6.799  0.7674 -0.8748 -3.1055
  129OSM    C3F13861   3.583   3.258   6.933  0.2549 -0.1025 -0.3813
  129OSM    H3F13862   3.667   3.191   6.961 -0.2331  0.1547  1.7336
  129OSM    H3G13863   3.488   3.201   6.923  1.4433 -2.5417  1.8556
  129OSM    C4F13864   3.578   3.345   7.053 -0.0546 -0.5870 -0.5963
  129OSM    H4F13865   3.515   3.435   7.040 -0.0474 -0.8189 -2.3277
  129OSM    H4G13866   3.680   3.380   7.081 -0.4359  0.5079 -0.5785
  129OSM    C5F13867   3.508   3.277   7.174 -0.3906 -0.2503 -0.3300
  129OSM    H5F13868   3.554   3.176   7.176  0.1149 -0.0674 -1.9884
  129OSM    H5G13869   3.401   3.268   7.148 -0.4222  0.2607 -0.3893
  129OSM    C6F13870   3.528   3.342   7.309  0.1105 -0.0047 -0.2401
  129OSM    H6F13871   3.506   3.451   7.310 -0.4632 -0.0809 -2.0616
  129OSM    H6G13872   3.635   3.349   7.337  0.4486 -0.6191 -1.3779
  129OSM    C7F13873   3.442   3.281   7.419  0.0203 -0.4999 -0.8797
  129OSM    H7F13874   3.469   3.174   7.436  0.1909 -0.3733 -0.3348
  129OSM    H7G13875   3.334   3.278   7.391 -0.1472 -2.8704 -0.0868
  129OSM    C8F13876   3.453   3.347   7.560  0.5872 -0.2192  0.2023
  129OSM    H8F13877   3.558   3.332   7.595  0.3589 -2.0216  0.1474
  129OSM    H8G13878   3.387   3.288   7.626 -2.7662  2.9103 -0.2152
  129OSM    C9F13879   3.408   3.489   7.586 -0.2115  0.2345  0.5086
  129OSM    H9F13880   3.426   3.569   7.513  1.7497  2.0576  2.8663
  129OSM   C10F13881   3.340   3.527   7.694  0.0198 -0.8134 -0.0699
  129OSM   H10F13882   3.318   3.633   7.709  2.4779 -0.1484 -0.9757
  129OSM   C11F13883   3.312   3.461   7.826 -0.1127  0.2355 -0.1344
  129OSM   H11F13884   3.368   3.366   7.829 -1.6532 -0.8237 -3.0414
  129OSM   H11G13885   3.204   3.441   7.840  0.0318  0.1017  0.8231
  129OSM   C12F13886   3.377   3.535   7.947  0.2902  0.6804 -0.3854
  129OSM   H12F13887   3.338   3.638   7.943 -0.5411  0.5139  2.3979
  129OSM   H12G13888   3.487   3.533   7.931  0.0866 -2.1991 -1.7985
  129OSM   C13F13889   3.339   3.467   8.079 -0.0248 -0.3142 -0.0414
  129OSM   H13F13890   3.377   3.363   8.069 -0.7634 -0.4714 -1.4838
  129OSM   H13G13891   3.229   3.456   8.085  0.0254 -0.6084  0.3920
  129OSM   C14F13892   3.388   3.537   8.204  0.0948  0.5720  0.2195
  129OSM   H14F13893   3.336   3.636   8.207  1.2490  1.1986 -0.0059
  129OSM   H14G13894   3.495   3.565   8.188  0.4946 -0.0937  1.7011
  129OSM   C15F13895   3.377   3.452   8.329  0.3740 -0.2334  0.1941
  129OSM   H15F13896   3.439   3.363   8.306 -0.4485 -0.3975 -1.4228
  129OSM   H15G13897   3.274   3.417   8.352 -0.4320  1.8690 -0.0722
  129OSM   C16F13898   3.434   3.526   8.458 -0.7465 -0.4700  0.0396
  129OSM   H16F13899   3.358   3.594   8.500 -0.0394  0.3941 -0.0751
  129OSM   H16G13900   3.517   3.587   8.417  1.7842 -3.4463  0.5336
  129OSM   C17F13901   3.489   3.430   8.568  0.5557 -0.4095  0.3542
  129OSM   H17F13902   3.424   3.341   8.585  1.2310 -0.5260  2.4459
  129OSM   H17G13903   3.488   3.475   8.670 -2.3833  0.7202 -0.1066
  129OSM   C18F13904   3.627   3.378   8.543 -0.1178  0.7091  0.4431
  129OSM   H18F13905   3.708   3.453   8.558  0.8875  0.0599 -1.5763
  129OSM   H18G13906   3.629   3.333   8.442  0.9733  1.4369  0.1384
  129OSM   H18H13907   3.647   3.298   8.617 -0.9047 -1.3760 -1.5479
  130OSM      N13908   4.471   0.710   5.992 -0.1493 -1.0445 -0.5921
  130OSM    C1513909   4.432   0.825   5.906 -0.1721 -0.2507 -0.2999
  130OSM   H15A13910   4.452   0.791   5.805  0.2607  0.3992 -0.4368
  130OSM   H15B13911   4.481   0.918   5.932  0.5739 -0.5382 -0.6649
  130OSM   H15C13912   4.328   0.850   5.917 -0.0396 -0.0273  0.4970
  130OSM    C1413913   4.412   0.582   5.938 -0.1267  0.5438  0.8710
  130OSM   H14A13914   4.453   0.565   5.839 -0.1736  0.4856  0.8619
  130OSM   H14B13915   4.305   0.577   5.926  0.3484 -1.7006 -3.3796
  130OSM   H14C13916   4.450   0.497   5.993 -1.1745 -1.5201 -1.5396
  130OSM    C1313917   4.620   0.695   5.981  0.0454 -0.0947  0.0063
  130OSM   H13A13918   4.677   0.786   5.993  0.2901 -0.7281  4.2175
  130OSM   H13B13919   4.657   0.653   5.889  1.5339  0.2887  0.4128
  130OSM   H13C13920   4.652   0.625   6.056  0.2268 -1.3621 -1.2402
  130OSM    C1213921   4.428   0.751   6.131 -0.3585 -0.4342  0.1897
  130OSM   H12A13922   4.324   0.776   6.140 -0.3969 -0.4526 -0.1931
  130OSM   H12B13923   4.484   0.839   6.160 -2.4244  1.9665 -2.8309
  130OSM    C1113924   4.454   0.648   6.254  0.2726 -0.5664  0.1720
  130OSM   H11A13925   4.415   0.682   6.351 -1.1084  0.2643 -0.6629
  130OSM   H11B13926   4.564   0.663   6.257 -0.1311  4.7891 -3.9340
  130OSM      P13927   4.472   0.394   6.297  0.1310 -0.0650 -0.1676
  130OSM    O1313928   4.405   0.270   6.248  0.1671  0.6438  0.0969
  130OSM    O1413929   4.627   0.395   6.279 -0.5666 -0.4307 -0.0916
  130OSM    O1113930   4.428   0.438   6.449 -0.8635  0.2897  0.5394
  130OSM    O1213931   4.411   0.513   6.218  0.3078  0.1588  0.4043
  130OSM    C1S13932   4.293   0.418   6.492  0.2376 -0.1296 -0.4709
  130OSM    H1S13933   4.270   0.309   6.496 -2.8245  0.4472 -0.9507
  130OSM    H1T13934   4.218   0.464   6.424  0.1154  0.2068 -0.1102
  130OSM     NF13935   4.132   0.447   6.674  0.4084  0.1979 -0.5152
  130OSM    HNF13936   4.074   0.524   6.649 -0.0348  0.1644  0.3995
  130OSM    C2S13937   4.266   0.472   6.638  0.2127 -0.1976  0.2760
  130OSM    H2S13938   4.336   0.415   6.703 -0.0517 -0.7711  0.0633
  130OSM    C3S13939   4.290   0.624   6.643 -0.5436  0.4921 -0.1109
  130OSM    H3S13940   4.216   0.667   6.572  0.3426 -1.5347 -2.3258
  130OSM     O313941   4.425   0.657   6.595  0.1040 -0.4785 -0.5172
  130OSM    HO313942   4.448   0.583   6.538  0.9018 -0.4625 -0.2188
  130OSM    C4S13943   4.269   0.680   6.783 -0.0545 -0.5407  0.3727
  130OSM    H4S13944   4.161   0.703   6.784  0.0297 -0.1264  0.0393
  130OSM    C5S13945   4.344   0.689   6.892 -0.3792  0.5161 -0.2429
  130OSM    H5S13946   4.445   0.645   6.890 -0.7416 -0.3522  0.4563
  130OSM    C6S13947   4.295   0.748   7.022 -0.0626  0.0180  0.0872
  130OSM    H6S13948   4.271   0.856   7.013 -2.8979 -0.7276 -2.6544
  130OSM    H6T13949   4.370   0.728   7.100  1.7157  1.0684 -1.3092
  130OSM    C7S13950   4.164   0.692   7.073  0.0481 -0.0040 -0.1176
  130OSM    H7S13951   4.160   0.581   7.075 -0.7332  0.0253  0.3241
  130OSM    H7T13952   4.078   0.726   7.012  0.4028 -1.4903 -1.4659
  130OSM    C8S13953   4.134   0.724   7.223  0.5764 -0.5349 -0.4653
  130OSM    H8S13954   4.163   0.828   7.246  1.8464 -0.8159 -0.7748
  130OSM    H8T13955   4.198   0.655   7.282 -0.3281 -1.5180 -0.6053
  130OSM    C9S13956   3.987   0.713   7.257 -0.5080 -0.0949  0.3190
  130OSM    H9S13957   3.961   0.605   7.255  2.4502 -0.8164 -1.8286
  130OSM    H9T13958   3.936   0.765   7.174 -0.4420 -1.2681 -0.4560
  130OSM   C10S13959   3.935   0.791   7.381  0.1170 -0.1102  0.2607
  130OSM   H10S13960   3.824   0.783   7.379  0.0193  0.9868  0.8810
  130OSM   H10T13961   3.963   0.899   7.377 -1.1521  0.2764  1.4771
  130OSM   C11S13962   3.987   0.730   7.509 -0.3102  0.0432 -0.1162
  130OSM   H11S13963   4.096   0.746   7.523 -0.4372 -0.2403  1.2420
  130OSM   H11T13964   3.962   0.622   7.499 -3.3152  0.4365  2.6909
  130OSM   C12S13965   3.916   0.795   7.627  0.1210  0.2007 -0.2545
  130OSM   H12S13966   3.942   0.737   7.718  2.1227  1.2141 -0.1713
  130OSM   H12T13967   3.805   0.789   7.620  0.2175 -1.0017 -0.9679
  130OSM   C13S13968   3.959   0.937   7.653 -0.1097  0.5031  0.3072
  130OSM   H13S13969   3.896   1.008   7.595 -0.0641 -0.9990 -1.6238
  130OSM   H13T13970   4.066   0.955   7.630 -0.4935 -0.0149 -2.0830
  130OSM   C14S13971   3.941   0.966   7.801 -1.2279  0.3627 -0.3291
  130OSM   H14S13972   4.007   0.890   7.847  0.7661  1.6577 -0.9999
  130OSM   H14T13973   3.838   0.944   7.838 -0.6122 -1.5045  0.2961
  130OSM   C15S13974   3.966   1.110   7.827 -0.2354 -0.0546  0.1728
  130OSM   H15S13975   3.904   1.168   7.756  1.2635  1.9303  0.4363
  130OSM   H15T13976   4.072   1.138   7.806 -0.5039  2.0572  1.5366
  130OSM   C16S13977   3.940   1.154   7.975  0.1198  0.4090  0.4475
  130OSM   H16S13978   3.975   1.076   8.045  3.5613  1.4485 -0.0285
  130OSM   H16T13979   3.829   1.151   7.973  0.1232  0.2204 -2.3133
  130OSM   C17S13980   3.982   1.297   8.007  0.5998  0.2766  0.6639
  130OSM   H17S13981   3.918   1.361   7.943  1.4729 -1.3902 -1.9051
  130OSM   H17T13982   4.089   1.316   7.982  1.0457 -2.3745  0.4774
  130OSM   C18S13983   3.960   1.334   8.156  0.0587 -0.5798  0.1232
  130OSM   H18S13984   4.036   1.275   8.211  2.8250  2.1796 -0.6148
  130OSM   H18T13985   3.859   1.310   8.195  0.6293 -0.9628  1.4065
  130OSM   H18U13986   3.989   1.438   8.182  0.9227 -0.9681  0.7516
  130OSM    C1F13987   4.084   0.332   6.715 -0.0162  0.1843 -0.5808
  130OSM     OF13988   4.149   0.253   6.788  0.3653 -0.2809  0.8358
  130OSM    C2F13989   3.943   0.298   6.681  0.1632 -1.3003  0.3269
  130OSM    H2F13990   3.956   0.227   6.596  0.7385  1.1884 -1.7172
  130OSM    H2G13991   3.878   0.382   6.648  1.6940 -0.8176 -1.5506
  130OSM    C3F13992   3.877   0.224   6.807  0.5354 -0.7163 -0.5276
  130OSM    H3F13993   3.950   0.144   6.829 -0.7630 -1.5184  1.0106
  130OSM    H3G13994   3.776   0.187   6.778  0.4163 -1.4396  0.7570
  130OSM    C4F13995   3.855   0.314   6.936 -0.1012 -0.1563  0.2904
  130OSM    H4F13996   3.947   0.373   6.957 -0.9493  1.5587 -0.6978
  130OSM    H4G13997   3.822   0.249   7.019 -1.7731  0.1947 -0.0835
  130OSM    C5F13998   3.735   0.418   6.933 -0.6820 -0.0269  0.0371
  130OSM    H5F13999   3.639   0.361   6.932 -1.8155  1.7182  2.4786
  130OSM    H5G14000   3.746   0.472   6.837 -0.3043 -0.3744 -0.1110
  130OSM    C6F14001   3.754   0.522   7.038  0.1230 -0.3975 -0.4206
  130OSM    H6F14002   3.826   0.596   6.998  1.5870 -1.7494 -0.3424
  130OSM    H6G14003   3.807   0.472   7.122  0.4984  1.5662  0.5540
  130OSM    C7F14004   3.613   0.565   7.087 -0.1472  0.3555 -0.4302
  130OSM    H7F14005   3.541   0.484   7.111 -0.1464  1.0151  1.9195
  130OSM    H7G14006   3.556   0.622   7.010 -1.0924 -0.3625 -0.2631
  130OSM    C8F14007   3.631   0.652   7.217  0.1225 -0.3182  0.6788
  130OSM    H8F14008   3.680   0.750   7.200 -0.7780  0.3123  1.6403
  130OSM    H8G14009   3.693   0.591   7.287 -0.9242  0.2812  2.1631
  130OSM    C9F14010   3.505   0.695   7.275  0.3690  0.1559  0.5838
  130OSM    H9F14011   3.433   0.727   7.198 -0.4582 -1.0316  0.8536
  130OSM   C10F14012   3.467   0.685   7.400  0.0477  0.8869 -0.3768
  130OSM   H10F14013   3.374   0.732   7.433  0.3023  1.1512 -0.0241
  130OSM   C11F14014   3.540   0.630   7.522  0.4838  0.1870  0.2043
  130OSM   H11F14015   3.651   0.635   7.511  0.3970 -1.7723 -1.9124
  130OSM   H11G14016   3.503   0.529   7.549  0.3290 -0.2621 -1.6310
  130OSM   C12F14017   3.514   0.727   7.634 -0.2989  0.2517  0.1594
  130OSM   H12F14018   3.407   0.757   7.627 -0.1298  0.6016 -0.9652
  130OSM   H12G14019   3.567   0.824   7.623  1.1580 -0.5244  0.1611
  130OSM   C13F14020   3.554   0.671   7.776  0.2536 -0.1471  0.1852
  130OSM   H13F14021   3.655   0.624   7.770  0.4845  0.2346  1.0338
  130OSM   H13G14022   3.482   0.590   7.799 -0.2369  0.5256  1.0617
  130OSM   C14F14023   3.558   0.781   7.884  0.4713 -0.8502  0.0747
  130OSM   H14F14024   3.572   0.882   7.840 -1.0267 -0.9187 -0.5938
  130OSM   H14G14025   3.645   0.756   7.949 -0.9837 -2.8791  1.3094
  130OSM   C15F14026   3.444   0.780   7.990  0.0567 -0.2894 -0.6955
  130OSM   H15F14027   3.347   0.816   7.950 -1.6365 -0.8779  2.6812
  130OSM   H15G14028   3.474   0.851   8.071  0.2645 -2.6792  1.3836
  130OSM   C16F14029   3.418   0.644   8.061  0.2383 -0.4163  0.3781
  130OSM   H16F14030   3.364   0.583   7.985  2.1694 -0.7258 -0.7789
  130OSM   H16G14031   3.340   0.663   8.137  1.8290 -1.5079  2.3429
  130OSM   C17F14032   3.522   0.563   8.127  0.1035  0.7269 -0.0372
  130OSM   H17F14033   3.620   0.586   8.079  0.8657  1.3565  1.7942
  130OSM   H17G14034   3.496   0.455   8.128  0.8714  0.5462  1.5310
  130OSM   C18F14035   3.526   0.591   8.276 -0.1285  0.4230 -0.0459
  130OSM   H18F14036   3.434   0.548   8.319 -0.2828  0.2352 -0.5525
  130OSM   H18G14037   3.533   0.700   8.297  2.3261  0.1957  0.5403
  130OSM   H18H14038   3.616   0.551   8.329 -0.6248  0.6250  0.9544
  131OSM      N14039   5.067   5.932   6.465  0.2797 -0.1936 -0.4838
  131OSM    C1514040   5.122   6.065   6.431 -0.3151 -0.1112 -0.1067
  131OSM   H15A14041   5.123   6.132   6.516  0.8104  1.3511 -1.2389
  131OSM   H15B14042   5.051   6.110   6.364  0.2336  1.6682  0.4606
  131OSM   H15C14043   5.215   6.068   6.375 -0.3777  0.6271 -0.1770
  131OSM    C1414044   5.183   5.853   6.524 -0.7372 -0.6885  0.5900
  131OSM   H14A14045   5.161   5.750   6.547  0.3720 -0.7659  1.3493
  131OSM   H14B14046   5.211   5.906   6.614 -1.0257 -0.1229  0.3508
  131OSM   H14C14047   5.260   5.849   6.449 -1.2157 -0.5653  0.0818
  131OSM    C1314048   4.968   5.947   6.575  0.1122 -0.7264 -0.1300
  131OSM   H13A14049   5.030   5.977   6.659  0.2441 -0.1643 -0.4255
  131OSM   H13B14050   4.921   5.854   6.602  0.9452 -1.3861 -0.9333
  131OSM   H13C14051   4.885   6.013   6.557  1.5907  1.3965  0.5524
  131OSM    C1214052   5.003   5.868   6.344 -0.1219 -0.0361  0.0585
  131OSM   H12A14053   5.083   5.851   6.273  0.3236 -0.2506  0.6091
  131OSM   H12B14054   4.945   5.940   6.288 -0.5412  0.3422  0.9802
  131OSM    C1114055   4.924   5.740   6.379  0.2553 -0.3206  0.7551
  131OSM   H11A14056   4.863   5.723   6.287  0.1917  0.0496  0.7306
  131OSM   H11B14057   4.847   5.756   6.457  1.1009  0.8744  1.3591
  131OSM      P14058   5.101   5.568   6.304 -0.0970 -0.4685  0.2202
  131OSM    O1314059   5.123   5.663   6.196 -0.4938 -0.1076  0.4538
  131OSM    O1414060   5.217   5.523   6.379  0.0491 -0.1428  0.1750
  131OSM    O1114061   5.019   5.441   6.267 -0.4589 -0.1355  0.2986
  131OSM    O1214062   5.015   5.634   6.415  0.4979  0.2738  0.2733
  131OSM    C1S14063   4.985   5.346   6.365 -0.2715  0.2417  0.3862
  131OSM    H1S14064   5.052   5.343   6.454 -1.6222  0.1468  1.4370
  131OSM    H1T14065   5.003   5.248   6.317  0.8763  0.4145  0.4562
  131OSM     NF14066   4.808   5.238   6.498  0.1745 -0.1200 -0.0174
  131OSM    HNF14067   4.747   5.171   6.459 -0.2885  0.2704  0.0354
  131OSM    C2S14068   4.836   5.356   6.408 -0.1487  0.1023 -0.3410
  131OSM    H2S14069   4.832   5.454   6.461  2.1013 -0.8814  1.7816
  131OSM    C3S14070   4.737   5.368   6.287 -0.7748  0.4383 -0.1271
  131OSM    H3S14071   4.758   5.277   6.226  1.3346  0.2761  0.8335
  131OSM     O314072   4.762   5.472   6.192 -0.2037 -0.5517 -0.3362
  131OSM    HO314073   4.855   5.495   6.198 -0.7383  1.3569  0.8216
  131OSM    C4S14074   4.596   5.367   6.344 -0.8430 -0.6341 -0.0212
  131OSM    H4S14075   4.560   5.263   6.342  1.0396 -1.3173  0.4363
  131OSM    C5S14076   4.512   5.463   6.391 -0.3795 -0.3526 -0.3304
  131OSM    H5S14077   4.552   5.564   6.406  1.5440 -0.9586 -1.1648
  131OSM    C6S14078   4.374   5.429   6.446 -0.2593  0.5083 -0.1918
  131OSM    H6S14079   4.292   5.478   6.389 -1.1169  0.0854  0.6629
  131OSM    H6T14080   4.366   5.474   6.548 -1.5763 -0.8555  0.3292
  131OSM    C7S14081   4.342   5.279   6.463  0.1729 -0.2904  0.2978
  131OSM    H7S14082   4.339   5.221   6.368  0.2105  2.6626 -1.5832
  131OSM    H7T14083   4.237   5.281   6.499 -0.7487  2.5326 -2.3474
  131OSM    C8S14084   4.415   5.209   6.575  1.4398 -0.9271  0.5960
  131OSM    H8S14085   4.423   5.267   6.669  0.8957  0.2108 -0.0454
  131OSM    H8T14086   4.521   5.199   6.542  1.3888  2.2195 -0.6708
  131OSM    C9S14087   4.358   5.077   6.623  0.0377 -0.3235  0.2197
  131OSM    H9S14088   4.329   5.016   6.535 -0.9284  0.7637 -0.2288
  131OSM    H9T14089   4.265   5.092   6.682 -0.1496 -0.1852 -0.1129
  131OSM   C10S14090   4.466   4.996   6.713 -0.2141 -0.0186 -0.6730
  131OSM   H10S14091   4.563   4.986   6.660  0.9738  1.8838  1.0411
  131OSM   H10T14092   4.427   4.894   6.728  1.2557 -0.2076  2.1509
  131OSM   C11S14093   4.488   5.057   6.852 -0.7135 -0.3930  0.8568
  131OSM   H11S14094   4.393   5.068   6.907 -1.1337  1.3597 -0.1880
  131OSM   H11T14095   4.541   5.155   6.846 -0.6731 -0.3555  1.8170
  131OSM   C12S14096   4.581   4.976   6.943 -0.2497  0.8245  0.3463
  131OSM   H12S14097   4.684   4.982   6.901 -0.5516 -0.7994 -0.6739
  131OSM   H12T14098   4.538   4.874   6.931  1.4308 -0.1358  2.1690
  131OSM   C13S14099   4.572   5.008   7.092  0.1271  0.4134 -0.0699
  131OSM   H13S14100   4.624   4.928   7.149 -1.3861  0.2191  1.0720
  131OSM   H13T14101   4.472   5.005   7.140  0.2803 -1.0511  0.1790
  131OSM   C14S14102   4.650   5.134   7.138  0.0118 -0.6212 -0.1512
  131OSM   H14S14103   4.604   5.215   7.077 -0.8723 -1.0037 -0.0108
  131OSM   H14T14104   4.758   5.125   7.114  0.3636 -0.3959  1.3084
  131OSM   C15S14105   4.633   5.173   7.287 -0.8694  0.3467  0.0343
  131OSM   H15S14106   4.524   5.180   7.309 -0.5992  1.6223  1.0701
  131OSM   H15T14107   4.673   5.274   7.311 -1.3295  0.1260  1.8403
  131OSM   C16S14108   4.713   5.077   7.381 -0.5495  0.6294  0.1641
  131OSM   H16S14109   4.813   5.078   7.334 -0.5673  0.7047  0.1273
  131OSM   H16T14110   4.662   4.979   7.375 -0.8220  0.7200  0.9384
  131OSM   C17S14111   4.711   5.128   7.525 -0.3517 -0.5059  0.2863
  131OSM   H17S14112   4.606   5.140   7.559 -0.8548  0.0518 -1.4159
  131OSM   H17T14113   4.763   5.226   7.533  1.2594 -1.1900 -1.4835
  131OSM   C18S14114   4.765   5.027   7.629 -0.2269 -0.0086 -0.0829
  131OSM   H18S14115   4.876   5.028   7.622 -0.2676  0.4776 -0.7462
  131OSM   H18T14116   4.729   4.922   7.622 -3.3656  0.9495  0.9215
  131OSM   H18U14117   4.743   5.050   7.735 -0.0903 -2.1265  0.4287
  131OSM    C1F14118   4.877   5.217   6.608  0.3505  0.5520 -0.3989
  131OSM     OF14119   4.945   5.304   6.660 -0.0185  0.2255  0.0210
  131OSM    C2F14120   4.854   5.085   6.680  0.4430 -0.3970 -0.5390
  131OSM    H2F14121   4.847   5.005   6.604 -0.4374 -0.6065 -0.2465
  131OSM    H2G14122   4.753   5.087   6.725  1.0443  2.6468  0.7993
  131OSM    C3F14123   4.960   5.041   6.784 -0.3973 -0.3958 -1.1061
  131OSM    H3F14124   5.062   5.044   6.741  0.6819 -0.3547  1.3853
  131OSM    H3G14125   4.940   4.935   6.808 -0.1472 -0.2163 -0.0735
  131OSM    C4F14126   4.956   5.133   6.910 -1.2336  0.5505  0.3804
  131OSM    H4F14127   4.851   5.130   6.944 -1.2919  0.7737  0.2193
  131OSM    H4G14128   4.991   5.235   6.884 -0.6923  0.5143  0.9352
  131OSM    C5F14129   5.042   5.063   7.023 -0.0534 -0.1352  0.1000
  131OSM    H5F14130   5.141   5.046   6.976  0.3773  1.8062  0.2810
  131OSM    H5G14131   5.007   4.959   7.042 -0.7820 -0.2110 -1.5472
  131OSM    C6F14132   5.052   5.149   7.150 -0.3563  0.3627 -0.3228
  131OSM    H6F14133   4.957   5.190   7.190  1.5909  2.3172  2.4346
  131OSM    H6G14134   5.107   5.239   7.118  2.2687 -0.0704  2.6990
  131OSM    C7F14135   5.129   5.076   7.263  0.4987 -0.2129  0.2939
  131OSM    H7F14136   5.213   5.016   7.223 -0.7644 -1.1575 -1.0125
  131OSM    H7G14137   5.064   4.996   7.304 -0.9089 -0.2710 -1.9433
  131OSM    C8F14138   5.180   5.163   7.377 -0.6166  0.7308  0.0933
  131OSM    H8F14139   5.092   5.230   7.391 -1.0717  0.1971 -0.1763
  131OSM    H8G14140   5.262   5.229   7.342  1.7134 -1.9094  0.3823
  131OSM    C9F14141   5.218   5.097   7.503  0.1588  0.3039  0.1704
  131OSM    H9F14142   5.276   5.007   7.477 -0.7652 -0.5900  1.1706
  131OSM   C10F14143   5.185   5.121   7.637 -0.5116 -0.0878 -0.1060
  131OSM   H10F14144   5.217   5.060   7.723 -1.8282 -0.8802 -0.1739
  131OSM   C11F14145   5.091   5.230   7.679 -0.3233 -0.5386  0.8035
  131OSM   H11F14146   5.006   5.248   7.610 -0.7288  2.1728  1.9767
  131OSM   H11G14147   5.151   5.323   7.689 -0.9599  0.1173 -1.2218
  131OSM   C12F14148   5.032   5.197   7.820 -0.1214  0.0625 -0.7460
  131OSM   H12F14149   5.124   5.195   7.884  0.6879 -1.4498 -1.9210
  131OSM   H12G14150   4.970   5.105   7.823  0.2177 -0.1402  0.5171
  131OSM   C13F14151   4.923   5.294   7.861  0.0969  0.5173  0.0866
  131OSM   H13F14152   4.825   5.279   7.812 -0.3196 -2.1767  1.5943
  131OSM   H13G14153   4.950   5.399   7.838 -0.0915  0.3163 -1.0457
  131OSM   C14F14154   4.884   5.281   8.005  0.1923  0.2705  0.7090
  131OSM   H14F14155   4.833   5.375   8.035  0.4617  0.9240 -0.8463
  131OSM   H14G14156   4.971   5.287   8.074  0.2063  0.3783  0.6826
  131OSM   C15F14157   4.811   5.153   8.053 -0.2054  0.0588 -0.3810
  131OSM   H15F14158   4.884   5.072   8.033 -0.8697 -0.2839 -1.4824
  131OSM   H15G14159   4.714   5.134   8.002 -0.1984  0.7464 -0.6582
  131OSM   C16F14160   4.800   5.155   8.206  0.7391 -0.0337  0.0345
  131OSM   H16F14161   4.722   5.229   8.233 -2.0718 -3.3529  1.5131
  131OSM   H16G14162   4.899   5.182   8.250  1.3378  1.9255 -2.4215
  131OSM   C17F14163   4.753   5.013   8.251 -0.2820 -0.4185 -0.0165
  131OSM   H17F14164   4.806   4.939   8.187 -0.8485 -0.5633 -0.3206
  131OSM   H17G14165   4.643   4.999   8.251 -0.7607  2.7980  2.3041
  131OSM   C18F14166   4.781   4.981   8.400 -0.0483 -0.4726  0.5753
  131OSM   H18F14167   4.888   5.000   8.423 -0.0983  0.6998 -0.1139
  131OSM   H18G14168   4.764   4.872   8.410 -1.5197 -0.1992  1.1831
  131OSM   H18H14169   4.708   5.041   8.460 -0.9860 -0.5949 -0.4361
  132OSM      N14170   0.370   1.491   6.339 -0.1862  0.0088  0.3871
  132OSM    C1514171   0.504   1.481   6.278 -0.0644  0.0318  0.2751
  132OSM   H15A14172   0.503   1.424   6.187 -0.2512 -0.9940  0.9095
  132OSM   H15B14173   0.578   1.444   6.348  0.0556  1.4080  0.8807
  132OSM   H15C14174   0.539   1.569   6.228 -2.0737 -0.7209 -2.5818
  132OSM    C1414175   0.278   1.521   6.224 -0.3840 -0.9858  1.0781
  132OSM   H14A14176   0.300   1.618   6.182 -1.3109 -1.2991 -0.1978
  132OSM   H14B14177   0.174   1.532   6.253 -0.8482 -2.7612  0.1412
  132OSM   H14C14178   0.284   1.452   6.141 -0.2530  2.1449 -1.6280
  132OSM    C1314179   0.322   1.364   6.389 -0.0070  0.1404 -1.2805
  132OSM   H13A14180   0.335   1.289   6.312 -1.8415  0.8330 -2.2968
  132OSM   H13B14181   0.215   1.351   6.394  0.0192  0.1218 -0.7903
  132OSM   H13C14182   0.357   1.330   6.485  0.6891  2.0394 -0.8516
  132OSM    C1214183   0.365   1.608   6.436  0.0012 -0.0831 -0.3159
  132OSM   H12A14184   0.416   1.693   6.394 -1.8802  2.1418  1.7376
  132OSM   H12B14185   0.417   1.585   6.528  1.4221  1.5493 -0.6901
  132OSM    C1114186   0.225   1.660   6.468 -0.9157  0.6339 -0.6415
  132OSM   H11A14187   0.242   1.715   6.563  1.1266 -0.0018 -0.6161
  132OSM   H11B14188   0.162   1.572   6.490 -1.4052  0.6871 -1.8051
  132OSM      P14189   0.029   1.761   6.338  0.0868 -0.1574 -0.1792
  132OSM    O1314190   0.017   1.900   6.286  0.0736 -0.2291 -0.2611
  132OSM    O1414191  -0.005   1.650   6.252 -0.1237  0.0425  0.6198
  132OSM    O1114192  -0.043   1.749   6.474 -0.4668 -0.1110  0.2387
  132OSM    O1214193   0.177   1.744   6.364 -0.6184  0.0976 -0.2989
  132OSM    C1S14194  -0.109   1.629   6.512 -0.4574 -0.4880 -0.0792
  132OSM    H1S14195  -0.036   1.545   6.513  1.7611  1.3832  0.1085
  132OSM    H1T14196  -0.195   1.609   6.445 -1.2538  0.0142  0.7794
  132OSM     NF14197  -0.194   1.524   6.727 -0.4029  0.7551 -0.3698
  132OSM    HNF14198  -0.289   1.494   6.725 -0.5186  1.0717  0.0672
  132OSM    C2S14199  -0.165   1.648   6.659  0.3396 -0.7685 -0.1040
  132OSM    H2S14200  -0.081   1.703   6.707 -0.6988  0.5286  0.2444
  132OSM    C3S14201  -0.292   1.740   6.651  0.5651  0.2308 -0.7361
  132OSM    H3S14202  -0.377   1.680   6.613  0.5080 -0.4386  0.4510
  132OSM     O314203  -0.292   1.854   6.566 -0.6373 -0.1083  0.0987
  132OSM    HO314204  -0.201   1.859   6.536  0.3505 -1.1276  2.7623
  132OSM    C4S14205  -0.328   1.765   6.795  0.7847 -0.7543 -0.8428
  132OSM    H4S14206  -0.380   1.683   6.845  0.3909  0.5769  1.0037
  132OSM    C5S14207  -0.295   1.875   6.867 -0.4713  0.8785  0.3002
  132OSM    H5S14208  -0.239   1.953   6.814  0.8250 -2.6311 -3.7872
  132OSM    C6S14209  -0.337   1.898   7.014  0.1928  0.3527  0.2780
  132OSM    H6S14210  -0.422   1.969   7.010 -0.1669  0.0656  2.5267
  132OSM    H6T14211  -0.249   1.939   7.069  2.7453 -0.4967 -2.9775
  132OSM    C7S14212  -0.394   1.773   7.072  0.2636 -0.0364 -0.5746
  132OSM    H7S14213  -0.319   1.693   7.055 -0.4752 -0.9125  0.2027
  132OSM    H7T14214  -0.490   1.735   7.032  0.4840 -1.4011  0.1468
  132OSM    C8S14215  -0.418   1.769   7.223 -0.0051 -0.0450  0.1776
  132OSM    H8S14216  -0.324   1.784   7.281 -1.2036  0.0116  2.1663
  132OSM    H8T14217  -0.471   1.676   7.253  0.9081 -1.0264 -1.1805
  132OSM    C9S14218  -0.510   1.880   7.276  0.7323  0.1316 -0.0409
  132OSM    H9S14219  -0.588   1.902   7.200 -2.3588 -0.8332  2.7428
  132OSM    H9T14220  -0.453   1.971   7.302 -0.9384  0.9744  0.7029
  132OSM   C10S14221  -0.595   1.838   7.396  0.2782 -0.0708 -0.8703
  132OSM   H10S14222  -0.645   1.739   7.383 -1.4154  0.7980 -1.1452
  132OSM   H10T14223  -0.674   1.915   7.406 -0.9170 -1.3064 -0.6341
  132OSM   C11S14224  -0.502   1.846   7.519  0.2604  1.0991 -0.6986
  132OSM   H11S14225  -0.477   1.953   7.540  0.9516  0.5840  1.1970
  132OSM   H11T14226  -0.416   1.783   7.491 -1.9657 -1.9544 -0.8705
  132OSM   C12S14227  -0.572   1.789   7.641 -0.1246 -0.1064 -0.6091
  132OSM   H12S14228  -0.499   1.770   7.722  0.8519  1.3670 -1.1114
  132OSM   H12T14229  -0.627   1.696   7.618 -0.1719 -0.3705  0.5423
  132OSM   C13S14230  -0.680   1.879   7.717 -0.0024 -0.2443  0.8635
  132OSM   H13S14231  -0.701   1.824   7.810 -2.7743 -0.4515  0.1549
  132OSM   H13T14232  -0.773   1.883   7.656 -1.6014 -0.4381  3.2551
  132OSM   C14S14233  -0.623   2.011   7.767 -0.4357 -0.4013  0.3833
  132OSM   H14S14234  -0.603   2.078   7.681 -2.3438  0.2409  0.4276
  132OSM   H14T14235  -0.527   1.996   7.821  0.0798  1.1263 -0.0794
  132OSM   C15S14236  -0.728   2.082   7.864  0.7500  0.4121  0.2382
  132OSM   H15S14237  -0.796   2.147   7.805 -0.3259 -1.5884 -0.7950
  132OSM   H15T14238  -0.681   2.149   7.939  1.0408 -2.5729  2.8567
  132OSM   C16S14239  -0.822   1.994   7.950 -0.3827  0.3660  0.0925
  132OSM   H16S14240  -0.754   1.916   7.989  0.0868  1.2885  1.1764
  132OSM   H16T14241  -0.901   1.945   7.890  0.0970 -0.2558 -0.0307
  132OSM   C17S14242  -0.879   2.070   8.070 -0.8669  0.0192  0.3946
  132OSM   H17S14243  -0.791   2.112   8.124  0.7692 -3.2716  0.4210
  132OSM   H17T14244  -0.934   2.002   8.138 -1.9115  0.1688 -0.2924
  132OSM   C18S14245  -0.981   2.173   8.021 -0.5642  0.4727  0.7285
  132OSM   H18S14246  -0.932   2.244   7.951  0.6923 -0.2710  0.8495
  132OSM   H18T14247  -1.028   2.234   8.101  1.1627  1.5052  0.9740
  132OSM   H18U14248  -1.070   2.129   7.970  1.5915 -3.2774  0.0226
  132OSM    C1F14249  -0.102   1.454   6.789 -0.4537 -0.1191 -0.4909
  132OSM     OF14250   0.019   1.480   6.784  0.1418 -0.2703  0.3155
  132OSM    C2F14251  -0.140   1.333   6.861  0.5817 -1.1532 -0.4906
  132OSM    H2F14252  -0.053   1.268   6.888  1.3310 -0.0199 -0.1298
  132OSM    H2G14253  -0.205   1.273   6.794 -0.2423 -1.9378  0.9932
  132OSM    C3F14254  -0.219   1.358   6.991  0.0767 -0.6543 -0.0564
  132OSM    H3F14255  -0.236   1.262   7.044  0.3286 -0.9574 -0.5223
  132OSM    H3G14256  -0.318   1.403   6.968  0.7948 -0.3315 -2.6382
  132OSM    C4F14257  -0.148   1.449   7.095 -0.1406  0.0374 -0.3395
  132OSM    H4F14258  -0.114   1.550   7.064  2.1175 -0.8512 -0.9142
  132OSM    H4G14259  -0.053   1.395   7.116 -0.9572 -1.9531 -1.5696
  132OSM    C5F14260  -0.214   1.440   7.229  0.1186 -0.1803  0.0071
  132OSM    H5F14261  -0.265   1.341   7.236  0.7537 -0.8930 -4.1007
  132OSM    H5G14262  -0.300   1.510   7.241 -1.0881 -1.8741  1.5953
  132OSM    C6F14263  -0.115   1.460   7.351  0.1666  0.7109  1.0640
  132OSM    H6F14264  -0.079   1.565   7.343 -0.3829  0.7943 -0.3559
  132OSM    H6G14265  -0.035   1.388   7.325 -0.0506  0.5327  0.8904
  132OSM    C7F14266  -0.188   1.439   7.483  0.2995  0.6664  0.5921
  132OSM    H7F14267  -0.229   1.336   7.484 -1.0020  1.1797  0.6631
  132OSM    H7G14268  -0.279   1.500   7.460 -0.2351 -0.9125 -1.6858
  132OSM    C8F14269  -0.104   1.473   7.605 -0.0179  0.4240  0.1078
  132OSM    H8F14270   0.002   1.439   7.601 -0.6761 -1.6323  0.0016
  132OSM    H8G14271  -0.161   1.422   7.685 -0.4981 -1.1595 -1.2117
  132OSM    C9F14272  -0.110   1.621   7.638 -0.3207  0.2826  0.1253
  132OSM    H9F14273  -0.129   1.694   7.559 -1.5123  0.6165  0.7043
  132OSM   C10F14274  -0.103   1.662   7.761 -0.8911 -0.3917 -0.5356
  132OSM   H10F14275  -0.119   1.771   7.761  3.4175  0.3153  0.5177
  132OSM   C11F14276  -0.081   1.594   7.896  0.3589 -0.5572  0.1869
  132OSM   H11F14277   0.026   1.611   7.920  1.0269 -3.1824 -0.7892
  132OSM   H11G14278  -0.084   1.483   7.898 -1.8191 -0.5583 -1.6189
  132OSM   C12F14279  -0.158   1.666   8.006  0.4040  0.0923 -0.1397
  132OSM   H12F14280  -0.268   1.664   7.989  0.3538 -2.0701  0.2600
  132OSM   H12G14281  -0.131   1.774   8.005  0.4838  0.0924  1.0860
  132OSM   C13F14282  -0.119   1.628   8.155 -0.0312 -0.1567 -0.3270
  132OSM   H13F14283  -0.009   1.609   8.147 -0.1781 -0.7639 -0.9692
  132OSM   H13G14284  -0.160   1.528   8.178 -0.5466  0.3027  0.7455
  132OSM   C14F14285  -0.140   1.736   8.258 -0.3966  0.8110  0.5302
  132OSM   H14F14286  -0.251   1.741   8.268 -0.2281  1.4493  2.3609
  132OSM   H14G14287  -0.113   1.832   8.210 -0.7358  0.5947 -0.0941
  132OSM   C15F14288  -0.072   1.725   8.393 -0.2603 -0.9952  0.3415
  132OSM   H15F14289   0.032   1.762   8.377  0.1020 -2.0730  0.1829
  132OSM   H15G14290  -0.071   1.615   8.409  0.4392 -0.9852  0.3782
  132OSM   C16F14291  -0.137   1.788   8.514  0.1644  0.5406  0.1101
  132OSM   H16F14292  -0.240   1.749   8.509 -0.2425  1.5903  0.1059
  132OSM   H16G14293  -0.130   1.899   8.520 -2.1566  0.6092  2.0051
  132OSM   C17F14294  -0.078   1.738   8.650 -0.7501 -0.8512  0.9440
  132OSM   H17F14295   0.020   1.790   8.662 -1.5434 -0.0641  4.4041
  132OSM   H17G14296  -0.070   1.628   8.644 -2.1386 -0.9983  1.7251
  132OSM   C18F14297  -0.158   1.774   8.772  0.4146  0.1765 -0.7877
  132OSM   H18F14298  -0.114   1.758   8.873 -0.0073 -1.4469 -0.8403
  132OSM   H18G14299  -0.246   1.705   8.777  0.1461  0.5895  0.2353
  132OSM   H18H14300  -0.180   1.882   8.779  1.0324  0.3655 -1.6673
  133SAPE     N14301   0.940   6.377  10.716 -0.1216 -0.1243  0.2203
  133SAPE   HN114302   0.839   6.392  10.734  0.0221  2.1794 -0.7339
  133SAPE   HN214303   0.960   6.279  10.744 -1.0002 -0.5118 -0.4782
  133SAPE   HN314304   0.978   6.436  10.792  1.2873 -0.2429 -0.3846
  133SAPE   C1214305   0.988   6.412  10.576  0.1609 -0.3829 -0.1611
  133SAPE  H12A14306   0.934   6.506  10.551  1.0855  0.2443  0.1878
  133SAPE  H12B14307   0.954   6.329  10.510  0.5848 -0.6421 -0.0591
  133SAPE   C1114308   1.138   6.420  10.563  0.5017 -0.5867  0.6502
  133SAPE  H11A14309   1.177   6.465  10.469  0.1393 -2.7621 -0.5644
  133SAPE  H11B14310   1.170   6.314  10.571  0.2940 -0.9595 -2.5610
  133SAPE     P14311   1.232   6.641  10.667  0.0439 -0.1695 -0.0221
  133SAPE   O1314312   1.107   6.720  10.657 -0.6657  0.6629 -0.9781
  133SAPE   O1414313   1.315   6.664  10.784  0.1151 -0.3968  0.4710
  133SAPE   O1214314   1.192   6.488  10.676 -0.2290 -0.3219 -0.0863
  133SAPE   O1114315   1.317   6.655  10.536 -0.2852  0.0209  0.3106
  133SAPE    C114316   1.443   6.591  10.518 -0.8504  0.3481  0.3583
  133SAPE    HA14317   1.475   6.550  10.616 -1.2106  0.8691  0.6917
  133SAPE    HB14318   1.438   6.510  10.441  1.0208  0.0668  0.4974
  133SAPE    C214319   1.553   6.688  10.483  0.3758  0.2171 -0.3407
  133SAPE    HS14320   1.572   6.750  10.573  1.8546  0.1910 -0.6253
  133SAPE   O2114321   1.525   6.767  10.362 -0.1519 -0.0554 -0.2105
  133SAPE   C2114322   1.490   6.885  10.390  0.3598 -0.4554 -0.0330
  133SAPE   O2214323   1.479   6.934  10.504  0.2409  0.6808  0.4274
  133SAPE   C2214324   1.468   6.954  10.256 -0.5629  0.8361 -0.4898
  133SAPE   H2R14325   1.561   7.001  10.218  0.2763 -1.9230 -1.9652
  133SAPE   H2S14326   1.440   6.867  10.192 -2.2338  1.7451 -1.0414
  133SAPE    C314327   1.690   6.617  10.463 -0.3305  1.0062  0.2833
  133SAPE    HX14328   1.713   6.564  10.558  0.6894  1.6071  0.3846
  133SAPE    HY14329   1.763   6.700  10.451  1.1304 -0.0326  1.7757
  133SAPE   O3114330   1.688   6.535  10.348 -0.3386 -0.3269  0.3390
  133SAPE   C3114331   1.809   6.499  10.306 -0.3277 -0.2368  0.1789
  133SAPE   O3214332   1.908   6.524  10.374  0.3224  0.5212 -0.0608
  133SAPE   C3214333   1.789   6.448  10.163  0.2750  0.1309  0.5110
  133SAPE   H2X14334   1.681   6.447  10.138  1.0707  2.3576 -3.3537
  133SAPE   H2Y14335   1.801   6.338  10.169  2.8024  0.2661 -1.3440
  133SAPE   C2314336   1.349   7.057  10.270  0.3934 -0.7811  0.4297
  133SAPE   H3R14337   1.379   7.139  10.339 -0.0155 -0.1398 -0.1419
  133SAPE   H3S14338   1.265   7.005  10.322  1.2080 -0.1394  2.4513
  133SAPE   C2414339   1.296   7.116  10.138 -0.1259  0.2433 -0.2468
  133SAPE   H4R14340   1.385   7.172  10.102  0.4504  0.0914  0.9189
  133SAPE   H4S14341   1.215   7.184  10.170 -1.8329 -1.7012 -0.3353
  133SAPE   C2514342   1.252   7.005  10.043 -0.2484 -0.8207  0.1211
  133SAPE   H5R14343   1.148   6.972  10.054 -0.4401 -0.0329  0.7387
  133SAPE   C2614344   1.328   6.954   9.942 -0.1192  0.1861 -0.3801
  133SAPE   H6R14345   1.294   6.869   9.880  1.9626 -2.1870  1.6120
  133SAPE   C2714346   1.464   6.999   9.899  0.2588 -0.4267  0.3576
  133SAPE   H7R14347   1.518   7.067   9.968  2.5429 -0.0954 -1.7150
  133SAPE   H7S14348   1.447   7.066   9.812  0.0807  0.7698  1.3018
  133SAPE   C2814349   1.556   6.886   9.881  0.0033 -0.7945  1.3866
  133SAPE   H8R14350   1.599   6.854   9.978 -0.6615 -0.4324  1.8053
  133SAPE   C2914351   1.584   6.811   9.770 -0.2872  0.2160 -0.4315
  133SAPE   H9R14352   1.662   6.736   9.788 -0.8695 -0.3016 -0.0640
  133SAPE  C21014353   1.539   6.815   9.625  0.2322 -0.3714 -0.1051
  133SAPE  H10R14354   1.447   6.875   9.610  0.4611 -0.4071 -1.7054
  133SAPE  H10S14355   1.540   6.718   9.572 -0.1553 -1.0218  1.0603
  133SAPE  C21114356   1.648   6.901   9.563 -0.3974 -0.4658  0.3406
  133SAPE  H11R14357   1.725   6.953   9.623  0.8834  0.4072 -2.0083
  133SAPE  C21214358   1.654   6.924   9.430 -0.3717 -0.2269 -0.3447
  133SAPE  H12R14359   1.736   6.974   9.378 -0.9157 -1.6857 -2.6449
  133SAPE  C21314360   1.551   6.877   9.329  0.4301  0.2371 -0.4919
  133SAPE  H13R14361   1.505   6.957   9.267  2.0033  0.3863 -1.4885
  133SAPE  H13S14362   1.463   6.835   9.383  0.3101  1.5826  0.3988
  133SAPE  C21414363   1.602   6.756   9.254  0.5652 -0.7367  0.3682
  133SAPE  H14R14364   1.641   6.676   9.320  3.1803 -0.5332 -0.9083
  133SAPE  C21514365   1.599   6.744   9.118  0.3031  0.3365  0.0430
  133SAPE  H15R14366   1.643   6.657   9.067 -0.5616 -0.2954  0.3547
  133SAPE  C21614367   1.549   6.838   9.022  0.0018  0.2273 -0.1794
  133SAPE  H16R14368   1.633   6.878   8.962  0.3162 -0.2387 -0.0544
  133SAPE  H16S14369   1.512   6.933   9.065 -1.3930 -0.1140 -0.5783
  133SAPE  C21714370   1.452   6.771   8.920  0.0104 -0.6832 -0.9395
  133SAPE  H17R14371   1.360   6.738   8.973 -0.9961  1.8261 -1.0115
  133SAPE  H17S14372   1.501   6.683   8.874 -0.3605 -1.4357  0.1085
  133SAPE  C21814373   1.406   6.862   8.807 -0.4421  0.4558 -0.7883
  133SAPE  H18R14374   1.499   6.902   8.763  1.4891 -0.2280  2.5266
  133SAPE  H18S14375   1.358   6.955   8.844  1.2922  0.5452  1.3399
  133SAPE  C21914376   1.317   6.798   8.700  0.1865  0.1765  0.2687
  133SAPE  H19R14377   1.295   6.858   8.609 -1.0131 -0.8586 -0.1383
  133SAPE  H19S14378   1.217   6.789   8.746  1.2651 -0.5012  2.5329
  133SAPE  C22014379   1.345   6.656   8.654 -0.0524 -0.0732  0.4845
  133SAPE  H20R14380   1.449   6.643   8.619  0.1637 -0.7008  1.3425
  133SAPE  H20S14381   1.270   6.632   8.575 -1.6466  0.7339  1.7152
  133SAPE  H20T14382   1.330   6.578   8.731 -0.0043 -1.7709 -1.1773
  133SAPE   C3314383   1.883   6.518  10.060  0.1305  0.5194 -0.2260
  133SAPE   H3X14384   1.981   6.536  10.109  0.9453 -1.7763 -0.9258
  133SAPE   H3Y14385   1.849   6.623  10.050 -0.0394  0.4009 -0.9124
  133SAPE   C3414386   1.916   6.441   9.931 -0.3359 -0.3512  0.2303
  133SAPE   H4X14387   1.960   6.339   9.937 -0.6006 -0.5445 -0.9279
  133SAPE   H4Y14388   1.980   6.501   9.864 -0.5606 -2.3078 -1.8107
  133SAPE   C3514389   1.790   6.414   9.845  0.1025  0.4887  0.1477
  133SAPE   H5X14390   1.724   6.502   9.859 -1.9702 -0.1062 -4.8439
  133SAPE   H5Y14391   1.724   6.338   9.891 -0.0283 -1.6935 -3.4378
  133SAPE   C3614392   1.807   6.371   9.696 -0.6512 -0.0985  0.0211
  133SAPE   H6X14393   1.712   6.331   9.654 -0.8394  1.1176 -0.7250
  133SAPE   H6Y14394   1.887   6.294   9.692 -1.0443 -0.4621 -0.9283
  133SAPE   C3714395   1.855   6.477   9.604  0.0228  0.1829 -0.2076
  133SAPE   H7X14396   1.958   6.511   9.629  0.8410  0.1280 -3.2211
  133SAPE   H7Y14397   1.782   6.557   9.629 -1.3482 -0.7021 -1.2838
  133SAPE   C3814398   1.847   6.440   9.455 -0.7045 -0.2411 -0.4433
  133SAPE   H8X14399   1.743   6.421   9.423  0.1465 -1.8667 -2.2911
  133SAPE   H8Y14400   1.906   6.349   9.431 -0.7684 -0.3350 -0.2502
  133SAPE   C3914401   1.923   6.545   9.367  0.2590 -0.0600  0.3255
  133SAPE   H9X14402   2.028   6.557   9.402 -0.3101  1.9363  1.3915
  133SAPE   H9Y14403   1.872   6.642   9.383 -0.0860 -0.3609  1.0909
  133SAPE  C31014404   1.916   6.501   9.223 -0.2082  0.1395 -0.2630
  133SAPE  H10X14405   1.808   6.494   9.198 -0.9633 -2.2965  3.1789
  133SAPE  H10Y14406   1.963   6.401   9.212  2.2953  1.3215 -0.6349
  133SAPE  C31114407   1.997   6.593   9.130 -0.2970 -0.1532 -0.3991
  133SAPE  H11X14408   2.106   6.587   9.151 -0.5535 -2.8627  0.3883
  133SAPE  H11Y14409   1.955   6.696   9.128 -0.7748 -0.3621 -1.7394
  133SAPE  C31214410   1.986   6.545   8.982 -0.0281 -0.0189  0.9231
  133SAPE  H12X14411   2.054   6.457   8.981 -1.0162 -0.8261  2.3430
  133SAPE  H12Y14412   2.024   6.625   8.915 -1.3481 -1.5865 -1.8080
  133SAPE  C31314413   1.841   6.517   8.938  0.0377 -0.6265  0.1618
  133SAPE  H13X14414   1.785   6.613   8.939 -0.1257 -0.7315  1.4969
  133SAPE  H13Y14415   1.792   6.440   9.001  1.3980 -1.9093 -0.3300
  133SAPE  C31414416   1.820   6.458   8.795 -0.0002 -0.1722 -0.6050
  133SAPE  H14X14417   1.867   6.358   8.781  0.2603 -0.0329 -0.7255
  133SAPE  H14Y14418   1.866   6.525   8.719  0.3672 -1.2160 -1.3107
  133SAPE  C31514419   1.676   6.450   8.758 -0.7313 -0.0155 -0.2304
  133SAPE  H15X14420   1.671   6.405   8.657 -0.6051 -2.3021  0.7510
  133SAPE  H15Y14421   1.622   6.547   8.754 -0.9461 -0.1163  0.1981
  133SAPE  C31614422   1.600   6.343   8.838 -0.2602 -0.3100  1.0450
  133SAPE  H16X14423   1.560   6.390   8.931  0.4160  1.9015  0.2452
  133SAPE  H16Y14424   1.667   6.260   8.868 -0.1020 -0.1252  1.2062
  133SAPE  C31714425   1.481   6.278   8.766  0.3261  0.1910  0.4174
  133SAPE  H17X14426   1.414   6.350   8.716  1.1533 -0.1247 -1.1752
  133SAPE  H17Y14427   1.423   6.228   8.847 -1.4455  0.5179 -0.6270
  133SAPE  C31814428   1.521   6.180   8.662  0.1758 -0.7275  0.7353
  133SAPE  H18X14429   1.587   6.229   8.587  1.4887 -0.7255  1.8609
  133SAPE  H18Y14430   1.428   6.159   8.606 -0.1378 -0.6880  1.2424
  133SAPE  H18Z14431   1.565   6.085   8.700 -0.9122 -0.4892  2.6712
  134SAPE     N14432   3.692   0.708  10.822  0.3617  0.0888  0.4216
  134SAPE   HN114433   3.643   0.733  10.734  0.9028 -0.0498  0.0816
  134SAPE   HN214434   3.616   0.720  10.892 -0.6824 -2.3225 -0.2466
  134SAPE   HN314435   3.771   0.773  10.838  2.4488 -1.9075 -1.3699
  134SAPE   C1214436   3.739   0.563  10.823 -0.5239 -0.2623  0.4125
  134SAPE  H12A14437   3.831   0.563  10.760  0.5906 -1.7148  2.0088
  134SAPE  H12B14438   3.657   0.507  10.773 -0.0175 -0.0573 -0.6580
  134SAPE   C1114439   3.765   0.511  10.971 -0.2488 -0.2044  0.1376
  134SAPE  H11A14440   3.665   0.526  11.016  0.2404  1.8961  0.5541
  134SAPE  H11B14441   3.828   0.580  11.031  0.2200  0.0069 -0.5795
  134SAPE     P14442   3.947   0.330  10.947 -0.1971 -0.0215 -0.3484
  134SAPE   O1314443   4.038   0.403  11.030  0.1207  0.0112 -0.0594
  134SAPE   O1414444   3.956   0.183  10.947 -0.7205  0.7786 -0.3399
  134SAPE   O1214445   3.800   0.375  10.981  0.1397 -0.3432 -0.3072
  134SAPE   O1114446   3.969   0.381  10.805 -0.3771  0.0373  0.0250
  134SAPE    C114447   3.914   0.314  10.684  0.5765 -0.3745 -0.6013
  134SAPE    HA14448   3.912   0.205  10.703 -0.7663  0.0105  1.5441
  134SAPE    HB14449   3.814   0.344  10.647  0.8576  1.1823 -0.1484
  134SAPE    C214450   4.014   0.335  10.559  0.1796  0.4498  0.7524
  134SAPE    HS14451   4.121   0.323  10.587 -0.1706 -0.2463  1.8424
  134SAPE   O2114452   3.990   0.464  10.490  0.2715 -0.8603 -0.4050
  134SAPE   C2114453   4.091   0.528  10.446 -0.2325  0.6384 -0.5366
  134SAPE   O2214454   4.206   0.492  10.437  0.1737  1.0795  0.2140
  134SAPE   C2214455   4.040   0.656  10.380 -0.1561  0.3582 -1.2359
  134SAPE   H2R14456   4.123   0.713  10.332 -1.2544  0.6108 -2.8467
  134SAPE   H2S14457   3.954   0.623  10.318 -0.8220  1.7549 -1.0729
  134SAPE    C314458   3.979   0.218  10.453 -0.3428  0.3495 -0.0461
  134SAPE    HX14459   3.876   0.230  10.414 -0.0318 -1.4057 -1.4842
  134SAPE    HY14460   3.978   0.118  10.500  2.4807 -0.2043 -1.0775
  134SAPE   O3114461   4.062   0.223  10.338  0.2915  0.4035  0.3697
  134SAPE   C3114462   4.181   0.161  10.347  0.3030  0.8417 -0.2489
  134SAPE   O3214463   4.220   0.088  10.442  0.3390  0.0122  0.1652
  134SAPE   C3214464   4.271   0.204  10.229  0.5537  0.3806 -0.4552
  134SAPE   H2X14465   4.366   0.149  10.239  0.9927  1.1206 -0.5459
  134SAPE   H2Y14466   4.297   0.311  10.239 -2.8285  1.1928  0.5085
  134SAPE   C2314467   3.976   0.754  10.484  0.2489 -0.2191  0.4750
  134SAPE   H3R14468   4.044   0.781  10.567  0.0570  1.6858  0.0460
  134SAPE   H3S14469   3.896   0.692  10.530 -0.1426  0.2754  0.4724
  134SAPE   C2414470   3.907   0.882  10.430 -0.0898  0.6769 -0.3890
  134SAPE   H4R14471   3.845   0.920  10.513  1.1844 -0.2013  0.9879
  134SAPE   H4S14472   3.840   0.875  10.342 -0.9199 -0.8286  0.3471
  134SAPE   C2514473   4.014   0.984  10.394  1.2985  0.3482  0.3489
  134SAPE   H5R14474   4.056   1.019  10.489  1.2376 -2.7494  1.5817
  134SAPE   C2614475   4.074   1.007  10.277 -0.4955  0.5657  0.3100
  134SAPE   H6R14476   4.150   1.086  10.270  0.2457 -0.1356  0.4187
  134SAPE   C2714477   4.059   0.937  10.145  1.1682 -0.3458 -0.2800
  134SAPE   H7R14478   4.001   1.001  10.074  0.5665 -1.5854 -0.9237
  134SAPE   H7S14479   4.008   0.838  10.149 -0.2659  0.4122  0.6093
  134SAPE   C2814480   4.201   0.909  10.094  0.5113 -0.1946 -0.0495
  134SAPE   H8R14481   4.288   0.877  10.153 -0.8365 -4.7592 -0.3575
  134SAPE   C2914482   4.230   0.921   9.962  0.2108  0.1189  0.0846
  134SAPE   H9R14483   4.334   0.905   9.930  0.7605  0.7320  1.5591
  134SAPE  C21014484   4.146   0.959   9.849 -0.0875 -0.8597  0.8578
  134SAPE  H10R14485   4.038   0.936   9.865 -0.4342  0.1767  0.0944
  134SAPE  H10S14486   4.183   0.895   9.766  2.3225  1.1781  0.3298
  134SAPE  C21114487   4.162   1.106   9.819 -0.0915 -0.1264  0.4792
  134SAPE  H11R14488   4.170   1.170   9.908  2.4275 -1.9247  1.6083
  134SAPE  C21214489   4.159   1.151   9.697  0.1316 -0.0337  0.3224
  134SAPE  H12R14490   4.180   1.259   9.687  2.1599 -0.2856  1.4931
  134SAPE  C21314491   4.156   1.068   9.574 -0.3896 -0.4671  0.2720
  134SAPE  H13R14492   4.090   0.981   9.593 -1.7179  0.3343 -0.6385
  134SAPE  H13S14493   4.254   1.018   9.556  1.8496  3.7500 -0.1275
  134SAPE  C21414494   4.101   1.154   9.458 -0.8030  0.0605  0.4404
  134SAPE  H14R14495   4.000   1.195   9.478  0.8271  3.6055  1.9118
  134SAPE  C21514496   4.172   1.181   9.349 -0.9591  0.3262 -0.3329
  134SAPE  H15R14497   4.132   1.249   9.273 -0.8366  0.6134 -0.1430
  134SAPE  C21614498   4.318   1.138   9.319 -0.0024 -0.4349  0.1197
  134SAPE  H16R14499   4.330   1.030   9.298 -1.2657 -0.3409 -1.1522
  134SAPE  H16S14500   4.378   1.165   9.409 -0.0236 -1.8146  0.5625
  134SAPE  C21714501   4.374   1.205   9.196 -0.1043 -0.0830 -0.8355
  134SAPE  H17R14502   4.473   1.160   9.174  0.1869 -0.5618  1.2965
  134SAPE  H17S14503   4.404   1.307   9.227  0.0878  0.1919 -1.9200
  134SAPE  C21814504   4.280   1.195   9.078 -0.4613  0.2608  0.2853
  134SAPE  H18R14505   4.180   1.243   9.082 -0.6928 -0.2455  0.5908
  134SAPE  H18S14506   4.263   1.087   9.061  0.8939 -0.0182  0.6391
  134SAPE  C21914507   4.355   1.242   8.948  0.7188  0.3801  0.2010
  134SAPE  H19R14508   4.367   1.352   8.941  1.6410  0.3068  0.5354
  134SAPE  H19S14509   4.290   1.215   8.862  1.8274 -2.1595  0.0922
  134SAPE  C22014510   4.483   1.172   8.925 -1.0299 -0.3529 -0.9401
  134SAPE  H20R14511   4.559   1.208   8.997 -2.9001  1.8209  0.0195
  134SAPE  H20S14512   4.534   1.198   8.829  0.1066 -0.5201 -0.3848
  134SAPE  H20T14513   4.476   1.062   8.922  2.5192 -0.6741  0.3390
  134SAPE   C3314514   4.203   0.166  10.091 -0.3424 -1.1210 -0.0109
  134SAPE   H3X14515   4.101   0.207  10.077  0.3121 -0.0478 -1.8510
  134SAPE   H3Y14516   4.189   0.056  10.083 -0.5328 -0.9454 -2.4455
  134SAPE   C3414517   4.286   0.231   9.975  0.1731 -0.5358 -0.0325
  134SAPE   H4X14518   4.390   0.237  10.013  0.0033  1.8146  0.0910
  134SAPE   H4Y14519   4.240   0.331   9.964  1.7861  0.4823  2.3535
  134SAPE   C3514520   4.282   0.161   9.841 -0.4627 -0.2380  0.8277
  134SAPE   H5X14521   4.323   0.233   9.767  1.4009 -2.5785 -0.4957
  134SAPE   H5Y14522   4.178   0.132   9.815  0.1273 -0.9900 -0.7105
  134SAPE   C3614523   4.363   0.035   9.840  0.2230  0.3661 -0.0377
  134SAPE   H6X14524   4.336  -0.031   9.926 -0.1931  0.4661 -0.0886
  134SAPE   H6Y14525   4.471   0.059   9.839  0.0315  1.3307  1.1385
  134SAPE   C3714526   4.333  -0.050   9.718 -0.0119 -0.7604  0.0255
  134SAPE   H7X14527   4.228  -0.087   9.725 -0.9744  2.1861  2.0786
  134SAPE   H7Y14528   4.403  -0.136   9.724  1.8067  0.3967 -3.2175
  134SAPE   C3814529   4.366   0.015   9.582 -0.7490 -0.3802  0.6539
  134SAPE   H8X14530   4.474   0.039   9.578 -1.0826  0.7959 -2.0115
  134SAPE   H8Y14531   4.324   0.118   9.578  2.9394  1.1604 -0.1581
  134SAPE   C3914532   4.306  -0.049   9.463 -0.1913  0.2936  0.0520
  134SAPE   H9X14533   4.197  -0.068   9.473 -0.3069  1.9246  2.2310
  134SAPE   H9Y14534   4.361  -0.146   9.467  0.2989  0.5004 -1.4720
  134SAPE  C31014535   4.356   0.024   9.338  0.5324  0.4323  0.5784
  134SAPE  H10X14536   4.464   0.041   9.357  1.0533 -0.8487 -1.1116
  134SAPE  H10Y14537   4.306   0.122   9.327  0.2553  0.1507 -0.7328
  134SAPE  C31114538   4.343  -0.062   9.208  0.4679  0.2040 -0.2127
  134SAPE  H11X14539   4.239  -0.064   9.167  0.0245 -2.4614  0.8785
  134SAPE  H11Y14540   4.377  -0.162   9.243 -0.2139  0.8111  2.3075
  134SAPE  C31214541   4.433  -0.009   9.098  0.6815  0.5331 -0.1805
  134SAPE  H12X14542   4.537  -0.046   9.113  0.9394  1.4344  0.2579
  134SAPE  H12Y14543   4.429   0.102   9.101 -1.8342  0.4441  3.7160
  134SAPE  C31314544   4.387  -0.045   8.954  0.2450 -0.4819 -0.4987
  134SAPE  H13X14545   4.430   0.025   8.880 -0.6981 -2.0713 -2.6133
  134SAPE  H13Y14546   4.277  -0.036   8.941  0.0723 -1.4718  0.2363
  134SAPE  C31414547   4.411  -0.194   8.915 -0.1847 -0.1845 -0.2252
  134SAPE  H14X14548   4.323  -0.259   8.929 -1.3582  1.1652 -1.2437
  134SAPE  H14Y14549   4.489  -0.237   8.982 -1.7786 -0.6695  1.3413
  134SAPE  C31514550   4.448  -0.199   8.768  0.2271  0.5146  0.5532
  134SAPE  H15X14551   4.469  -0.300   8.726 -2.4564  0.8315 -1.7058
  134SAPE  H15Y14552   4.530  -0.128   8.747  0.0972  0.8074  1.0366
  134SAPE  C31614553   4.324  -0.170   8.679 -0.0611 -0.1651  0.1600
  134SAPE  H16X14554   4.299  -0.062   8.678 -0.5360 -0.2758 -0.0570
  134SAPE  H16Y14555   4.238  -0.227   8.721  0.7723 -0.7325  1.1301
  134SAPE  C31714556   4.346  -0.221   8.537  0.8631 -0.6172  0.0797
  134SAPE  H17X14557   4.356  -0.332   8.540 -0.8898 -0.8108 -0.6621
  134SAPE  H17Y14558   4.441  -0.183   8.494  0.3372  0.3027 -0.2808
  134SAPE  C31814559   4.241  -0.166   8.437 -0.1559  0.3143  0.4712
  134SAPE  H18X14560   4.281  -0.200   8.338 -1.8692  1.2781 -0.5809
  134SAPE  H18Y14561   4.234  -0.055   8.444 -0.0717  0.2583  1.4856
  134SAPE  H18Z14562   4.142  -0.215   8.450  0.2174 -1.1547 -1.8916
  135SAPE     N14563   3.672   6.001  10.508  0.4221 -0.2972 -0.1196
  135SAPE   HN114564   3.724   6.008  10.419  0.6026 -0.0333  0.0046
  135SAPE   HN214565   3.717   6.065  10.576 -0.9888  2.9785 -2.1310
  135SAPE   HN314566   3.674   5.905  10.547  1.8647 -0.8070 -1.3839
  135SAPE   C1214567   3.527   6.030  10.481  0.1313  0.1350  0.3031
  135SAPE  H12A14568   3.517   6.122  10.419  1.3966 -0.1196 -0.2841
  135SAPE  H12B14569   3.488   6.052  10.583 -0.5386  2.0458 -0.3257
  135SAPE   C1114570   3.457   5.916  10.405  0.4076  0.3485 -0.1746
  135SAPE  H11A14571   3.499   5.895  10.304 -0.8053  0.9931 -0.8190
  135SAPE  H11B14572   3.356   5.955  10.379  0.0018 -1.5930 -1.7113
  135SAPE     P14573   3.542   5.678  10.506 -0.1168 -0.0065  0.0428
  135SAPE   O1314574   3.654   5.741  10.577  0.0495 -0.1611  0.0801
  135SAPE   O1414575   3.484   5.562  10.570  0.2911 -0.2335 -0.2017
  135SAPE   O1214576   3.435   5.791  10.479 -0.3045  0.1731 -0.0268
  135SAPE   O1114577   3.590   5.640  10.369 -0.3781 -0.8606  0.1444
  135SAPE    C114578   3.520   5.548  10.289  0.3569  0.5131 -0.1502
  135SAPE    HA14579   3.412   5.575  10.285  0.2883  0.1414 -0.7881
  135SAPE    HB14580   3.555   5.569  10.186 -1.9142  1.2160 -0.8080
  135SAPE    C214581   3.549   5.396  10.315  0.2633 -0.4223 -0.5043
  135SAPE    HS14582   3.499   5.380  10.413  0.1084 -0.7954 -0.6429
  135SAPE   O2114583   3.692   5.373  10.332  0.0768  0.0913  0.0699
  135SAPE   C2114584   3.722   5.252  10.392  0.5927 -0.1107 -0.4067
  135SAPE   O2214585   3.638   5.167  10.417 -0.1393  0.0767 -0.7825
  135SAPE   C2214586   3.875   5.229  10.399  0.0396 -0.3961 -1.0637
  135SAPE   H2R14587   3.918   5.236  10.296 -0.8977 -1.3484 -1.5230
  135SAPE   H2S14588   3.913   5.311  10.463 -1.8646  0.1102 -0.5618
  135SAPE    C314589   3.488   5.304  10.201  0.3704  0.0715 -0.1220
  135SAPE    HX14590   3.484   5.199  10.235  0.0904  0.0071 -0.3539
  135SAPE    HY14591   3.570   5.306  10.125  0.2741  1.2830 -0.2075
  135SAPE   O3114592   3.361   5.353  10.128  0.1162 -0.1882  0.0683
  135SAPE   C3114593   3.254   5.310  10.199 -0.5351 -0.4612  0.4512
  135SAPE   O3214594   3.252   5.256  10.306  0.5027  0.3117  0.4831
  135SAPE   C3214595   3.127   5.327  10.113 -0.5878 -0.8789  0.5384
  135SAPE   H2X14596   3.134   5.428  10.066 -2.2057 -0.1088  1.8747
  135SAPE   H2Y14597   3.037   5.317  10.177 -1.8391  2.7583 -0.5087
  135SAPE   C2314598   3.915   5.085  10.454  0.9333  0.5315  0.2348
  135SAPE   H3R14599   3.863   5.042  10.542  0.1101  2.1275  0.5411
  135SAPE   H3S14600   4.022   5.093  10.483  1.1659 -2.3503  0.3224
  135SAPE   C2414601   3.903   4.975  10.355 -0.2356 -0.1838  0.3365
  135SAPE   H4R14602   3.808   4.999  10.302 -0.7573 -0.4854  1.1379
  135SAPE   H4S14603   3.887   4.877  10.404  0.2972 -0.7414 -0.5973
  135SAPE   C2514604   4.025   4.959  10.269 -0.2090 -0.5037 -0.4733
  135SAPE   H5R14605   4.119   4.972  10.326 -1.0010 -1.1377  0.9957
  135SAPE   C2614606   4.025   4.975  10.132  0.0129 -0.1563 -0.1635
  135SAPE   H6R14607   4.124   4.951  10.089  0.0966  0.8385 -0.5202
  135SAPE   C2714608   3.913   5.002  10.039 -0.3840  0.0489 -0.3225
  135SAPE   H7R14609   3.910   5.109  10.011  0.9714  0.0640 -0.4251
  135SAPE   H7S14610   3.819   4.982  10.094  1.0056 -2.6244  1.1609
  135SAPE   C2814611   3.915   4.907   9.924  0.5263  0.8353 -0.6726
  135SAPE   H8R14612   3.941   4.804   9.952  0.5628  1.2403  0.8080
  135SAPE   C2914613   3.927   4.945   9.798  0.9472  0.2385  0.8284
  135SAPE   H9R14614   3.942   4.866   9.723  1.3287 -0.5310  1.7118
  135SAPE  C21014615   3.937   5.084   9.736 -0.0065 -0.3434 -0.4172
  135SAPE  H10R14616   4.003   5.152   9.794 -1.2366  0.3320  0.1913
  135SAPE  H10S14617   3.834   5.123   9.728  0.3490  0.7131  0.0719
  135SAPE  C21114618   3.995   5.061   9.596  0.2821  0.4446 -0.1684
  135SAPE  H11R14619   3.950   4.990   9.524 -2.5443  1.5998  0.4348
  135SAPE  C21214620   4.109   5.120   9.548 -1.1053 -0.7463 -0.5223
  135SAPE  H12R14621   4.147   5.087   9.449  0.2811  0.2229 -0.3393
  135SAPE  C21314622   4.200   5.224   9.619 -0.6004 -0.1093  0.4642
  135SAPE  H13R14623   4.295   5.175   9.648 -1.1843 -0.3723  2.0166
  135SAPE  H13S14624   4.159   5.258   9.717  2.3006  3.1419  0.6179
  135SAPE  C21414625   4.239   5.341   9.532  0.7019  0.5459  0.1062
  135SAPE  H14R14626   4.347   5.362   9.525  0.9190 -0.1200  1.3598
  135SAPE  C21514627   4.165   5.427   9.458 -0.4594  0.0258 -0.0451
  135SAPE  H15R14628   4.230   5.500   9.410  0.8759 -1.3747 -0.4015
  135SAPE  C21614629   4.015   5.424   9.456  0.1423 -0.1581  0.2268
  135SAPE  H16R14630   3.984   5.526   9.489  0.2026 -0.1029  0.1120
  135SAPE  H16S14631   3.976   5.349   9.529  2.1348  0.0898  1.5963
  135SAPE  C21714632   3.977   5.392   9.310  0.1786 -0.8981 -0.9471
  135SAPE  H17R14633   3.993   5.284   9.286  1.7520 -1.4611  2.1854
  135SAPE  H17S14634   4.045   5.456   9.250 -0.2328  0.0685 -0.3776
  135SAPE  C21814635   3.828   5.421   9.282  0.2514  0.0953 -0.2639
  135SAPE  H18R14636   3.810   5.528   9.304 -1.9610 -0.3015 -0.1003
  135SAPE  H18S14637   3.767   5.363   9.354 -0.4677 -0.5543 -1.3744
  135SAPE  C21914638   3.790   5.410   9.131 -0.7150 -0.3189 -0.2995
  135SAPE  H19R14639   3.840   5.491   9.075 -0.1385 -0.6999 -0.3373
  135SAPE  H19S14640   3.681   5.432   9.125 -0.5464  0.2839 -1.2635
  135SAPE  C22014641   3.793   5.264   9.073  0.2251  0.4554 -0.2814
  135SAPE  H20R14642   3.750   5.187   9.141  1.6593 -0.0513  0.0746
  135SAPE  H20S14643   3.896   5.230   9.052 -0.3336  0.1512 -2.6936
  135SAPE  H20T14644   3.726   5.246   8.986  0.2271  0.4318 -0.2765
  135SAPE   C3314645   3.132   5.219   9.999  0.2764 -0.3718  0.4855
  135SAPE   H3X14646   3.025   5.196   9.977 -0.9115  2.0082  3.4278
  135SAPE   H3Y14647   3.165   5.125  10.050  0.2764 -0.4924  0.2611
  135SAPE   C3414648   3.203   5.256   9.866 -0.0096 -0.1495 -0.0757
  135SAPE   H4X14649   3.221   5.163   9.806  2.9552  0.5957 -0.4187
  135SAPE   H4Y14650   3.310   5.285   9.879 -1.0624  3.1094  1.7047
  135SAPE   C3514651   3.132   5.364   9.786  0.4738 -0.4288  0.5089
  135SAPE   H5X14652   3.164   5.463   9.824 -0.4761  0.4366 -0.9042
  135SAPE   H5Y14653   3.023   5.363   9.808  0.5709  1.6839  1.1506
  135SAPE   C3614654   3.131   5.339   9.631  0.3898 -0.2121 -0.6157
  135SAPE   H6X14655   3.081   5.244   9.604  1.1421 -0.9657  0.5856
  135SAPE   H6Y14656   3.237   5.338   9.599  0.3237 -0.6826 -0.8206
  135SAPE   C3714657   3.069   5.461   9.559  0.2859 -0.4446  0.1662
  135SAPE   H7X14658   3.107   5.559   9.592  1.7247 -0.9530  0.0348
  135SAPE   H7Y14659   2.961   5.463   9.585 -0.0504 -0.5253 -1.1748
  135SAPE   C3814660   3.066   5.437   9.410 -0.0074 -0.4698 -0.3644
  135SAPE   H8X14661   2.982   5.366   9.394 -0.7391 -0.1934  2.1214
  135SAPE   H8Y14662   3.162   5.390   9.379  0.8181  2.0788 -1.8454
  135SAPE   C3914663   3.044   5.572   9.333  0.2196 -0.0119  1.3352
  135SAPE   H9X14664   3.140   5.626   9.348  0.0285  1.0132 -0.9588
  135SAPE   H9Y14665   2.963   5.628   9.384 -1.1687 -1.0934  0.3740
  135SAPE  C31014666   3.014   5.554   9.182  0.3007  0.9307 -0.1022
  135SAPE  H10X14667   2.911   5.512   9.178  0.7148 -0.0178 -0.9221
  135SAPE  H10Y14668   3.077   5.473   9.139 -0.8144  0.7521 -1.4368
  135SAPE  C31114669   3.025   5.690   9.108 -0.4550  0.0934  0.2943
  135SAPE  H11X14670   3.125   5.737   9.117 -1.9027  3.5160 -0.6976
  135SAPE  H11Y14671   2.959   5.763   9.160  0.3011  1.3509 -0.4898
  135SAPE  C31214672   2.993   5.685   8.963  0.0170 -0.0605  0.1528
  135SAPE  H12X14673   2.887   5.654   8.963 -0.8805  2.9109  0.8705
  135SAPE  H12Y14674   3.061   5.614   8.910 -0.0848  1.9855 -2.8908
  135SAPE  C31314675   3.004   5.814   8.881 -0.2501 -0.1458 -0.4839
  135SAPE  H13X14676   3.105   5.860   8.879  0.3873 -1.5245 -3.1051
  135SAPE  H13Y14677   2.932   5.891   8.916 -0.5553 -0.3330 -0.7048
  135SAPE  C31414678   2.960   5.796   8.734  0.3402 -0.0418 -0.7076
  135SAPE  H14X14679   2.858   5.752   8.732 -1.3824  3.6911  0.4167
  135SAPE  H14Y14680   3.035   5.729   8.686  1.7268  0.8454  0.2020
  135SAPE  C31514681   2.972   5.921   8.648 -0.1618 -0.0460 -0.3647
  135SAPE  H15X14682   2.896   5.999   8.671  0.9013  1.3037 -1.3257
  135SAPE  H15Y14683   2.949   5.895   8.542  0.6451  1.5563 -0.9543
  135SAPE  C31614684   3.107   5.981   8.645 -0.1839 -0.3250 -0.2477
  135SAPE  H16X14685   3.179   5.898   8.627 -2.8465 -2.3803 -1.6743
  135SAPE  H16Y14686   3.117   6.031   8.744  0.5118 -1.9727  0.5213
  135SAPE  C31714687   3.108   6.090   8.535  0.4417 -0.1236 -1.0334
  135SAPE  H17X14688   3.013   6.148   8.539  0.7224  0.4052 -1.6991
  135SAPE  H17Y14689   3.098   6.039   8.437  0.3887  0.3052 -1.2560
  135SAPE  C31814690   3.212   6.189   8.548 -0.4065 -0.0224 -0.0601
  135SAPE  H18X14691   3.194   6.264   8.629  0.7748 -0.4527  0.6200
  135SAPE  H18Y14692   3.224   6.262   8.465  1.6118 -1.5669 -1.1450
  135SAPE  H18Z14693   3.310   6.146   8.576  0.0194  0.7459 -0.3398
  136SAPE     N14694   6.080   5.829  10.984  0.9695 -0.3256 -0.6588
  136SAPE   HN114695   6.072   5.932  10.999 -2.2299 -0.6459  0.3446
  136SAPE   HN214696   6.114   5.818  10.887 -3.1221  0.9815 -2.3571
  136SAPE   HN314697   5.983   5.791  10.985  0.9092 -0.1711 -0.4715
  136SAPE   C1214698   6.154   5.757  11.090 -0.1797  0.7700 -0.5059
  136SAPE  H12A14699   6.169   5.823  11.178 -1.8013  1.3319 -0.6317
  136SAPE  H12B14700   6.255   5.741  11.046  0.1879 -0.3601  0.7185
  136SAPE   C1114701   6.092   5.622  11.119  0.1153  0.2146  0.1431
  136SAPE  H11A14702   6.022   5.633  11.204 -0.0327 -1.1116  0.2013
  136SAPE  H11B14703   6.177   5.568  11.166 -0.3691 -0.3188  0.4164
  136SAPE     P14704   6.036   5.400  10.994 -0.0055  0.8184  0.4902
  136SAPE   O1314705   6.000   5.338  11.129  0.3892  0.2530 -0.1959
  136SAPE   O1414706   5.953   5.362  10.873 -0.1800  0.1947 -0.3404
  136SAPE   O1214707   6.038   5.559  11.006  0.6915  0.5794  0.3824
  136SAPE   O1114708   6.184   5.365  10.956 -0.0022  0.5709  0.5051
  136SAPE    C114709   6.257   5.440  10.857  0.2944 -0.4764  0.6149
  136SAPE    HA14710   6.214   5.439  10.754 -1.3684 -1.4390  1.3059
  136SAPE    HB14711   6.292   5.541  10.889  1.1915 -0.7916  0.6409
  136SAPE    C214712   6.396   5.376  10.818 -0.5800 -0.2825 -0.4053
  136SAPE    HS14713   6.458   5.356  10.908 -1.0557 -0.0526 -0.0260
  136SAPE   O2114714   6.462   5.469  10.732 -0.0473 -0.2898 -0.1221
  136SAPE   C2114715   6.599   5.455  10.733  0.2136  0.1741 -0.2088
  136SAPE   O2214716   6.660   5.379  10.804 -0.0918  0.0229 -0.6259
  136SAPE   C2214717   6.661   5.557  10.633  0.0051 -0.2334 -0.1338
  136SAPE   H2R14718   6.646   5.527  10.527  2.3023 -0.7248 -0.3622
  136SAPE   H2S14719   6.604   5.651  10.649  1.3117  0.3629  1.1248
  136SAPE    C314720   6.379   5.241  10.750 -0.1618 -0.4420 -0.5401
  136SAPE    HX14721   6.332   5.168  10.819  1.7035  0.1712  1.4236
  136SAPE    HY14722   6.482   5.201  10.737 -0.6437 -1.4453 -1.3695
  136SAPE   O3114723   6.292   5.247  10.638 -0.1586  0.6792  0.0777
  136SAPE   C3114724   6.324   5.156  10.549 -0.4724  0.1458  0.0803
  136SAPE   O3214725   6.415   5.075  10.557 -0.3485 -0.6270 -0.0867
  136SAPE   C3214726   6.231   5.156  10.432 -0.0330 -0.4234  0.7948
  136SAPE   H2X14727   6.163   5.243  10.443  0.6657  0.1554  0.5066
  136SAPE   H2Y14728   6.171   5.062  10.422 -2.0223  0.6573  2.0950
  136SAPE   C2314729   6.805   5.596  10.656 -0.4311  0.2577 -0.6212
  136SAPE   H3R14730   6.870   5.506  10.653  0.6807  1.0678 -1.2131
  136SAPE   H3S14731   6.805   5.643  10.756 -0.1848  1.2141 -1.0677
  136SAPE   C2414732   6.850   5.718  10.565 -0.6125  0.5200 -0.1095
  136SAPE   H4R14733   6.777   5.797  10.594 -1.2274  0.5737 -1.7683
  136SAPE   H4S14734   6.825   5.694  10.460 -1.6397 -0.0597  0.2560
  136SAPE   C2514735   6.987   5.766  10.604 -0.4106 -0.2580 -0.2208
  136SAPE   H5R14736   7.008   5.761  10.711 -3.5929 -0.7226  0.4238
  136SAPE   C2614737   7.076   5.805  10.510  0.6543  0.1397  0.5469
  136SAPE   H6R14738   7.176   5.837  10.545  1.8836 -1.6557 -1.2227
  136SAPE   C2714739   7.064   5.804  10.359 -0.4455  0.5473 -0.3468
  136SAPE   H7R14740   7.157   5.855  10.324 -0.4023  2.2244  2.1401
  136SAPE   H7S14741   6.974   5.861  10.325 -2.1220 -1.2726  0.9615
  136SAPE   C2814742   7.071   5.669  10.293  0.1648 -0.2548  0.0279
  136SAPE   H8R14743   7.075   5.581  10.358 -0.1994  0.7730  1.4783
  136SAPE   C2914744   7.061   5.650  10.159  0.7853 -0.2064 -0.4620
  136SAPE   H9R14745   7.066   5.548  10.118 -2.1203 -0.6167  0.1229
  136SAPE  C21014746   7.058   5.770  10.063 -0.2903 -0.8594 -0.0973
  136SAPE  H10R14747   7.023   5.866  10.106 -1.2092 -1.4591  0.5005
  136SAPE  H10S14748   6.980   5.753   9.986 -0.2071 -0.1363 -0.3527
  136SAPE  C21114749   7.192   5.799  10.001 -0.2685 -0.0135 -0.1264
  136SAPE  H11R14750   7.266   5.840  10.072  0.3809  0.7451 -1.2219
  136SAPE  C21214751   7.219   5.799   9.871 -0.1861 -0.5641  0.4441
  136SAPE  H12R14752   7.316   5.833   9.832 -0.9881  0.5682 -0.6174
  136SAPE  C21314753   7.121   5.762   9.755 -0.5013  0.1327 -0.1995
  136SAPE  H13R14754   7.060   5.847   9.717  2.0426  2.0991 -0.0110
  136SAPE  H13S14755   7.050   5.686   9.792  0.7472 -1.2097 -0.4870
  136SAPE  C21414756   7.210   5.696   9.646 -0.6835  0.7856 -0.0664
  136SAPE  H14R14757   7.295   5.759   9.617 -0.7739  1.9629  2.1954
  136SAPE  C21514758   7.194   5.588   9.572 -0.2162  0.3542  0.5401
  136SAPE  H15R14759   7.267   5.561   9.494  0.1426  1.3848  0.5068
  136SAPE  C21614760   7.071   5.496   9.587 -0.3222  0.3956 -0.4403
  136SAPE  H16R14761   6.991   5.543   9.648 -2.2999 -0.1603 -2.5548
  136SAPE  H16S14762   7.098   5.402   9.640  0.2290  1.2341  0.7763
  136SAPE  C21714763   7.017   5.443   9.450  0.4269 -0.6818  0.1185
  136SAPE  H17R14764   6.946   5.360   9.466 -1.4959  0.9005  0.0486
  136SAPE  H17S14765   7.099   5.398   9.390  0.0437 -0.2549 -0.7229
  136SAPE  C21814766   6.955   5.559   9.374 -0.0085 -0.2892 -1.1628
  136SAPE  H18R14767   7.034   5.637   9.363  0.9078 -0.3926  3.4294
  136SAPE  H18S14768   6.877   5.608   9.436  0.9698 -1.7972  1.3674
  136SAPE  C21914769   6.890   5.515   9.244 -0.8298 -0.7372  0.2389
  136SAPE  H19R14770   6.867   5.609   9.188  3.3389 -0.0289 -0.4245
  136SAPE  H19S14771   6.792   5.466   9.261 -0.3077 -1.7554  0.3324
  136SAPE  C22014772   6.968   5.403   9.166 -0.3053  0.2766 -0.4208
  136SAPE  H20R14773   6.951   5.297   9.195  2.3526 -0.1926 -0.3881
  136SAPE  H20S14774   7.077   5.425   9.160  0.1772 -1.1832  1.8841
  136SAPE  H20T14775   6.932   5.412   9.062 -3.8232 -0.2722  0.6778
  136SAPE   C3314776   6.314   5.176  10.305 -0.2092 -0.3861  0.6891
  136SAPE   H3X14777   6.256   5.148  10.215  2.4445 -2.2401 -0.5398
  136SAPE   H3Y14778   6.406   5.113  10.299 -0.5063 -0.5795 -4.5620
  136SAPE   C3414779   6.348   5.322  10.272 -0.8008  0.1662 -0.1653
  136SAPE   H4X14780   6.426   5.353  10.344 -0.7378 -0.4241  0.0289
  136SAPE   H4Y14781   6.263   5.389  10.298  1.4612  2.6385  1.0226
  136SAPE   C3514782   6.411   5.336  10.130  0.2117  0.1818 -0.3966
  136SAPE   H5X14783   6.414   5.447  10.117 -0.5030  0.4793  1.8357
  136SAPE   H5Y14784   6.331   5.301  10.061 -0.6163 -0.9838  1.1413
  136SAPE   C3614785   6.540   5.255  10.107  0.5879 -0.3576  0.2256
  136SAPE   H6X14786   6.520   5.148  10.128  0.9766 -0.6651 -0.9537
  136SAPE   H6Y14787   6.613   5.297  10.180  0.5081  1.1339 -0.5398
  136SAPE   C3714788   6.596   5.264   9.960  0.6971 -1.1193  0.9537
  136SAPE   H7X14789   6.706   5.261   9.954  0.7866  1.2098  0.8231
  136SAPE   H7Y14790   6.577   5.371   9.936  2.1786 -1.1886 -0.5947
  136SAPE   C3814791   6.531   5.164   9.870  1.0593  0.8109 -0.5394
  136SAPE   H8X14792   6.422   5.183   9.868  0.4773 -2.1703 -0.5982
  136SAPE   H8Y14793   6.535   5.059   9.906 -2.0316  1.0598  0.6367
  136SAPE   C3914794   6.579   5.175   9.726 -0.0851  0.1790 -0.0986
  136SAPE   H9X14795   6.688   5.192   9.712  0.2804 -0.5827  1.7522
  136SAPE   H9Y14796   6.524   5.265   9.689 -0.7789  0.2353  1.0231
  136SAPE  C31014797   6.534   5.057   9.645  0.1512  1.0499 -0.0994
  136SAPE  H10X14798   6.423   5.058   9.644  0.0948 -0.9816  1.5175
  136SAPE  H10Y14799   6.577   4.962   9.682 -0.3362  1.2027  0.8849
  136SAPE  C31114800   6.575   5.058   9.496  0.1347 -0.5963 -0.0133
  136SAPE  H11X14801   6.553   4.958   9.453 -1.2318 -1.2156  2.0868
  136SAPE  H11Y14802   6.685   5.058   9.505  0.2345 -0.5734 -1.1803
  136SAPE  C31214803   6.520   5.177   9.415  0.0327 -0.1197 -0.1391
  136SAPE  H12X14804   6.531   5.272   9.470 -1.5125 -0.1196  0.1809
  136SAPE  H12Y14805   6.412   5.155   9.401 -0.2542  1.4035 -0.3297
  136SAPE  C31314806   6.592   5.199   9.279  0.1947  0.5154  0.0829
  136SAPE  H13X14807   6.643   5.104   9.252 -0.6881  0.2235 -0.5572
  136SAPE  H13Y14808   6.682   5.265   9.280 -0.6269  1.6203  1.2428
  136SAPE  C31414809   6.496   5.254   9.174 -0.8284  0.0799  0.0388
  136SAPE  H14X14810   6.485   5.363   9.190  0.2557  0.2045 -0.0344
  136SAPE  H14Y14811   6.390   5.226   9.193 -1.3463  0.8259 -1.6645
  136SAPE  C31514812   6.540   5.214   9.037 -0.3188  0.2978 -0.3738
  136SAPE  H15X14813   6.488   5.278   8.962  1.0169 -1.8576 -3.2467
  136SAPE  H15Y14814   6.513   5.108   9.016  1.7967 -0.4565  0.5717
  136SAPE  C31614815   6.691   5.223   9.007  0.3937 -0.2239 -0.1913
  136SAPE  H16X14816   6.738   5.131   9.047  1.1616 -0.4616 -1.5845
  136SAPE  H16Y14817   6.729   5.311   9.064 -2.1212 -0.8567  2.5461
  136SAPE  C31714818   6.726   5.237   8.858  0.5386  0.2215 -0.3862
  136SAPE  H17X14819   6.687   5.149   8.803  0.6358  0.3137 -0.6018
  136SAPE  H17Y14820   6.837   5.245   8.856  0.3392  5.3729  1.0861
  136SAPE  C31814821   6.667   5.366   8.794 -0.1947  0.3881  1.6637
  136SAPE  H18X14822   6.676   5.445   8.871  1.9273  0.6973  1.1104
  136SAPE  H18Y14823   6.568   5.359   8.744  1.6246  3.4881 -2.6781
  136SAPE  H18Z14824   6.719   5.411   8.707  1.3703 -1.3895  1.6606
  137SAPE     N14825   4.753   1.354  10.795 -0.3783 -0.3520  0.4026
  137SAPE   HN114826   4.756   1.344  10.691  3.5272 -1.9006  0.5640
  137SAPE   HN214827   4.754   1.454  10.822  1.4290 -0.0360 -0.7141
  137SAPE   HN314828   4.845   1.310  10.817 -0.5003 -1.6271 -1.5190
  137SAPE   C1214829   4.641   1.273  10.859 -0.0804  0.2598  0.3437
  137SAPE  H12A14830   4.690   1.219  10.942 -2.3605 -1.9847  0.2549
  137SAPE  H12B14831   4.613   1.200  10.780  2.8906  0.5384 -1.0550
  137SAPE   C1114832   4.518   1.352  10.906 -0.3741  1.1597  0.4902
  137SAPE  H11A14833   4.490   1.429  10.831  1.0055 -0.1723 -1.4773
  137SAPE  H11B14834   4.545   1.398  11.003  1.5167 -3.3389  2.2580
  137SAPE     P14835   4.263   1.276  10.917  0.4895  0.0812 -0.0819
  137SAPE   O1314836   4.199   1.152  10.949  0.4697  0.4989  0.2594
  137SAPE   O1414837   4.234   1.397  10.996 -0.0662 -0.2104 -0.3481
  137SAPE   O1214838   4.418   1.261  10.939  0.4324 -0.4835 -0.2226
  137SAPE   O1114839   4.252   1.301  10.763 -0.0610 -0.1787  0.3051
  137SAPE    C114840   4.284   1.201  10.666 -0.8712 -0.2084 -0.5620
  137SAPE    HA14841   4.377   1.153  10.703 -0.7600  2.0366  2.2224
  137SAPE    HB14842   4.205   1.123  10.662  0.4214 -1.7680  2.4645
  137SAPE    C214843   4.300   1.272  10.528  0.3893  0.0847  0.4102
  137SAPE    HS14844   4.358   1.367  10.534  1.8761 -0.7934  0.1511
  137SAPE   O2114845   4.164   1.304  10.486  0.0815  0.0142 -0.4934
  137SAPE   C2114846   4.145   1.403  10.402 -0.1280  0.3414  0.0641
  137SAPE   O2214847   4.233   1.487  10.376  0.1850 -0.0891 -0.2706
  137SAPE   C2214848   4.003   1.406  10.343 -0.3189 -0.3182  0.5873
  137SAPE   H2R14849   3.982   1.307  10.299  0.2666  0.3073 -1.1400
  137SAPE   H2S14850   3.940   1.422  10.433 -0.7477 -1.2758  0.4639
  137SAPE    C314851   4.368   1.171  10.431 -0.6603  0.6382 -0.1477
  137SAPE    HX14852   4.310   1.077  10.443  1.1659 -0.5077 -0.0578
  137SAPE    HY14853   4.471   1.149  10.465  0.0588 -1.4476 -3.3884
  137SAPE   O3114854   4.367   1.216  10.297  0.2484  0.5574  0.2125
  137SAPE   C3114855   4.475   1.292  10.259 -0.3578  0.0449  0.6266
  137SAPE   O3214856   4.572   1.303  10.330 -0.3397 -0.3407 -0.0202
  137SAPE   C3214857   4.432   1.368  10.131  0.4182  0.3967  0.5885
  137SAPE   H2X14858   4.406   1.470  10.168 -0.3229  0.0015  1.1674
  137SAPE   H2Y14859   4.338   1.326  10.088  1.3883 -1.0421 -0.1789
  137SAPE   C2314860   3.988   1.526  10.249  0.3053 -0.5152  0.4957
  137SAPE   H3R14861   4.019   1.616  10.306  4.3180 -2.2078  1.1434
  137SAPE   H3S14862   3.879   1.536  10.227  0.3791 -0.6519  0.0535
  137SAPE   C2414863   4.071   1.523  10.116  0.1821  0.2537 -0.7314
  137SAPE   H4R14864   4.177   1.515  10.147 -0.3485  0.6717  1.2558
  137SAPE   H4S14865   4.054   1.613  10.053 -0.0688  1.6238  1.2190
  137SAPE   C2514866   4.031   1.404  10.040 -0.5214  0.8791  0.2161
  137SAPE   H5R14867   4.029   1.311  10.099  0.5004  0.3707 -0.5310
  137SAPE   C2614868   4.001   1.402   9.908 -0.1508 -0.1059  0.3284
  137SAPE   H6R14869   3.969   1.304   9.867 -2.2376  0.3042  0.8883
  137SAPE   C2714870   4.004   1.512   9.808  0.1086 -0.0503  0.5409
  137SAPE   H7R14871   3.932   1.596   9.817  0.6205  0.3357  1.0996
  137SAPE   H7S14872   3.977   1.467   9.710 -0.4736  3.1657 -0.8499
  137SAPE   C2814873   4.144   1.566   9.780  0.2554  0.6411  0.0442
  137SAPE   H8R14874   4.209   1.580   9.868  1.0696  0.3029 -0.5057
  137SAPE   C2914875   4.192   1.583   9.658  0.0564 -0.2275  0.3362
  137SAPE   H9R14876   4.298   1.613   9.650 -0.3929  1.0916 -0.8462
  137SAPE  C21014877   4.125   1.569   9.522 -0.2217 -0.8748  0.0979
  137SAPE  H10R14878   4.056   1.656   9.512  1.3447  0.4654  0.8223
  137SAPE  H10S14879   4.061   1.478   9.526 -1.8578  0.3351  4.4136
  137SAPE  C21114880   4.223   1.545   9.407  0.3870  0.6110  0.0413
  137SAPE  H11R14881   4.302   1.469   9.415 -1.2780 -0.8570  3.5250
  137SAPE  C21214882   4.211   1.600   9.283 -0.6669 -0.6882 -0.0578
  137SAPE  H12R14883   4.290   1.575   9.211 -0.1270  0.7040  0.0424
  137SAPE  C21314884   4.112   1.698   9.230 -0.1183  0.3552 -0.0173
  137SAPE  H13R14885   4.146   1.792   9.181  1.0980 -1.4369 -2.6916
  137SAPE  H13S14886   4.049   1.736   9.313 -1.7687 -0.0046 -1.0784
  137SAPE  C21414887   4.011   1.644   9.136 -0.4229  0.4457  1.1017
  137SAPE  H14R14888   3.910   1.628   9.177 -0.8029  1.6489  0.6855
  137SAPE  C21514889   4.047   1.627   9.006  0.3037  0.7489  0.1284
  137SAPE  H15R14890   3.968   1.597   8.935  0.8225 -0.2543 -0.0389
  137SAPE  C21614891   4.177   1.652   8.930 -0.4654 -0.3493 -0.0019
  137SAPE  H16R14892   4.261   1.609   8.989  0.5761  0.1370 -1.1059
  137SAPE  H16S14893   4.197   1.762   8.933  0.3197 -0.5176  1.3235
  137SAPE  C21714894   4.186   1.608   8.781 -0.2261 -0.6212  0.2812
  137SAPE  H17R14895   4.151   1.503   8.776 -0.0042 -0.6827 -0.0701
  137SAPE  H17S14896   4.293   1.615   8.751 -0.3361 -1.3389 -0.3120
  137SAPE  C21814897   4.094   1.691   8.695 -0.3307 -0.3723  0.4417
  137SAPE  H18R14898   4.117   1.800   8.694  0.0611 -0.4507 -1.9899
  137SAPE  H18S14899   3.998   1.702   8.750 -0.4130  2.3617 -0.1550
  137SAPE  C21914900   4.086   1.663   8.544 -0.8168  0.7693 -0.4997
  137SAPE  H19R14901   4.032   1.566   8.537  0.3969  0.1821 -2.1695
  137SAPE  H19S14902   4.182   1.657   8.489 -0.7492  2.2798 -0.5469
  137SAPE  C22014903   3.997   1.768   8.469 -0.0996  0.4630 -0.3069
  137SAPE  H20R14904   4.041   1.864   8.437  0.7028  0.2617  0.1807
  137SAPE  H20S14905   3.923   1.793   8.547  0.4444  1.8431 -0.2281
  137SAPE  H20T14906   3.936   1.730   8.384  1.4654 -0.1152 -1.2079
  137SAPE   C3314907   4.533   1.346  10.015  0.1213  0.1781  0.4431
  137SAPE   H3X14908   4.538   1.235  10.007 -2.4293  0.2043 -2.5444
  137SAPE   H3Y14909   4.636   1.382  10.038  0.3500 -1.3125  1.8443
  137SAPE   C3414910   4.483   1.404   9.886  0.3289 -0.4897  0.0416
  137SAPE   H4X14911   4.434   1.503   9.897  1.0305  0.0375 -1.3876
  137SAPE   H4Y14912   4.390   1.346   9.868 -0.1429  0.4420 -0.5969
  137SAPE   C3514913   4.583   1.391   9.766  0.6301  0.1385  0.4913
  137SAPE   H5X14914   4.601   1.282   9.752 -0.8843  0.1943 -2.0438
  137SAPE   H5Y14915   4.677   1.437   9.803  1.3007 -1.9495  1.4781
  137SAPE   C3614916   4.539   1.458   9.640 -0.6446  0.0612 -0.1362
  137SAPE   H6X14917   4.482   1.548   9.670 -0.3934  0.5835 -1.1749
  137SAPE   H6Y14918   4.469   1.387   9.591 -0.1850 -0.2420 -0.3629
  137SAPE   C3714919   4.648   1.482   9.541 -0.1417 -0.5930  0.5353
  137SAPE   H7X14920   4.715   1.395   9.526  0.4403 -0.2528  1.1455
  137SAPE   H7Y14921   4.705   1.574   9.568 -1.5359  0.5052 -0.1749
  137SAPE   C3814922   4.594   1.508   9.396  0.0235  0.3376 -0.0343
  137SAPE   H8X14923   4.534   1.601   9.397  2.2384  1.8293 -0.7918
  137SAPE   H8Y14924   4.529   1.425   9.360  2.1702 -0.9607 -1.0182
  137SAPE   C3914925   4.709   1.518   9.295  0.0014  0.2840  0.3863
  137SAPE   H9X14926   4.769   1.425   9.285 -1.0076 -0.3563  0.1982
  137SAPE   H9Y14927   4.776   1.603   9.320 -0.0252  0.3222  0.3265
  137SAPE  C31014928   4.650   1.556   9.163  0.5185 -0.3589 -0.2244
  137SAPE  H10X14929   4.567   1.490   9.129 -0.4084  0.0114  1.2772
  137SAPE  H10Y14930   4.722   1.537   9.081  2.4669  0.2497  1.3137
  137SAPE  C31114931   4.604   1.701   9.159 -0.4126  0.1388 -0.4687
  137SAPE  H11X14932   4.684   1.773   9.188  0.1808 -1.0104  0.8280
  137SAPE  H11Y14933   4.510   1.715   9.217  0.0756 -1.5651  0.7749
  137SAPE  C31214934   4.565   1.752   9.012  0.1304 -0.2409  0.6933
  137SAPE  H12X14935   4.485   1.826   9.035 -1.3899 -1.3168 -0.9880
  137SAPE  H12Y14936   4.529   1.669   8.948 -0.4265 -0.0252  0.7179
  137SAPE  C31314937   4.688   1.818   8.940 -0.3767  0.2990  1.0471
  137SAPE  H13X14938   4.759   1.735   8.918 -0.8509  0.2799 -0.4943
  137SAPE  H13Y14939   4.739   1.889   9.009 -1.8055  0.5703  1.8369
  137SAPE  C31414940   4.643   1.894   8.811  0.4687  0.4869  0.1148
  137SAPE  H14X14941   4.558   1.962   8.836 -0.1502 -0.6798  1.2536
  137SAPE  H14Y14942   4.602   1.821   8.738  0.8757  2.3300 -1.9924
  137SAPE  C31514943   4.765   1.953   8.740 -0.1382 -0.3385 -0.0208
  137SAPE  H15X14944   4.835   1.870   8.718 -1.8014 -1.4498 -1.2855
  137SAPE  H15Y14945   4.804   2.036   8.803 -1.5005  0.0993  0.2736
  137SAPE  C31614946   4.738   2.033   8.612  0.7108  0.4861  0.3482
  137SAPE  H16X14947   4.677   2.124   8.630  2.6042  2.4175 -2.5358
  137SAPE  H16Y14948   4.675   1.977   8.540  0.4011  1.6152 -0.2812
  137SAPE  C31714949   4.857   2.076   8.528  0.3823  0.1305  0.0336
  137SAPE  H17X14950   4.932   2.122   8.595 -0.9384 -1.1678  2.4888
  137SAPE  H17Y14951   4.824   2.163   8.467 -0.6030  1.0372  1.8207
  137SAPE  C31814952   4.924   1.974   8.433 -0.5528  0.5993  0.0495
  137SAPE  H18X14953   4.961   1.886   8.489 -0.1623  0.7156 -0.0273
  137SAPE  H18Y14954   5.002   2.012   8.363  0.5151 -3.2069 -0.9626
  137SAPE  H18Z14955   4.840   1.937   8.371 -1.3105  0.5614  1.0921
  138SAPE     N14956   1.346   2.896  11.076  0.2615  0.2785  0.2224
  138SAPE   HN114957   1.431   2.909  11.017 -0.6060 -0.2661 -1.1724
  138SAPE   HN214958   1.330   2.961  11.156 -0.8311  1.0202 -0.5799
  138SAPE   HN314959   1.356   2.799  11.111  1.2240  0.2592 -0.0772
  138SAPE   C1214960   1.212   2.897  11.003 -0.4126 -0.1379  0.0715
  138SAPE  H12A14961   1.186   3.000  10.970 -1.2639 -0.4730 -0.3161
  138SAPE  H12B14962   1.137   2.865  11.078 -0.6532 -0.1066 -0.1543
  138SAPE   C1114963   1.208   2.809  10.882  0.7194 -0.0667 -0.0929
  138SAPE  H11A14964   1.281   2.839  10.804  0.3287 -2.4720 -1.4120
  138SAPE  H11B14965   1.112   2.833  10.832 -1.2651 -0.6758  3.2954
  138SAPE     P14966   1.219   2.568  10.789  0.5713 -0.2362  0.2099
  138SAPE   O1314967   1.362   2.555  10.760  0.2314  0.3312  0.2055
  138SAPE   O1414968   1.145   2.446  10.821  0.4150  0.2125 -0.4883
  138SAPE   O1214969   1.203   2.670  10.910 -0.1984  0.0504 -0.1033
  138SAPE   O1114970   1.140   2.638  10.668  0.1258 -0.0420 -0.2745
  138SAPE    C114971   0.999   2.637  10.682  0.2647 -0.6717 -0.0556
  138SAPE    HA14972   0.949   2.539  10.698 -0.5593 -0.4602 -1.2393
  138SAPE    HB14973   0.978   2.704  10.768  0.7635 -0.2954 -0.2223
  138SAPE    C214974   0.930   2.690  10.557 -0.0413  0.7581  0.6039
  138SAPE    HS14975   0.825   2.653  10.563  0.3286 -0.5449 -0.7727
  138SAPE   O2114976   0.988   2.638  10.438  0.4267  0.0794 -0.0973
  138SAPE   C2114977   1.000   2.512  10.433 -0.3118  0.0637  0.3789
  138SAPE   O2214978   0.923   2.428  10.483  0.0262 -0.1471 -0.1870
  138SAPE   C2214979   1.120   2.485  10.348 -0.4220 -0.2595 -0.0419
  138SAPE   H2R14980   1.143   2.553  10.262  0.0546 -0.4538 -0.0704
  138SAPE   H2S14981   1.200   2.498  10.424 -1.1712 -0.3365  0.7544
  138SAPE    C314982   0.950   2.843  10.553  0.0881 -0.0456  0.1705
  138SAPE    HX14983   1.056   2.870  10.532  0.4406  0.9796  3.0323
  138SAPE    HY14984   0.917   2.871  10.655  0.1237 -0.1949  0.2230
  138SAPE   O3114985   0.874   2.917  10.456 -0.7288  0.4715  0.2108
  138SAPE   C3114986   0.745   2.933  10.483  0.0538 -0.1910 -0.7911
  138SAPE   O3214987   0.683   2.907  10.584 -0.0009 -0.3585 -1.0472
  138SAPE   C3214988   0.678   2.994  10.358 -0.5724 -0.4855 -0.2165
  138SAPE   H2X14989   0.737   3.084  10.331 -0.8035 -0.6091 -1.1529
  138SAPE   H2Y14990   0.573   3.025  10.382 -1.2066  0.6281 -4.0507
  138SAPE   C2314991   1.122   2.340  10.296  0.0024  0.8120  0.2964
  138SAPE   H3R14992   1.093   2.259  10.367  2.1289 -0.8318 -0.6842
  138SAPE   H3S14993   1.228   2.317  10.274 -1.0695 -1.3419 -2.9946
  138SAPE   C2414994   1.048   2.330  10.161  0.3448 -0.1199 -0.6120
  138SAPE   H4R14995   0.941   2.359  10.170  0.5926  0.9520 -1.0641
  138SAPE   H4S14996   1.040   2.222  10.138  1.1886  0.0585 -1.8152
  138SAPE   C2514997   1.119   2.412  10.056  0.7072 -0.6447  0.3424
  138SAPE   H5R14998   1.228   2.424  10.064  0.5123  1.3373  0.2588
  138SAPE   C2614999   1.067   2.474   9.950  0.6076  0.7858  0.4524
  138SAPE   H6R15000   1.133   2.533   9.885  1.3987  1.1645  1.5741
  138SAPE   C2715001   0.918   2.461   9.907 -0.0663 -0.2326  0.5390
  138SAPE   H7R15002   0.862   2.511   9.988 -1.5081 -1.0651  0.0735
  138SAPE   H7S15003   0.895   2.353   9.895 -1.3472 -0.0550  1.3432
  138SAPE   C2815004   0.879   2.531   9.776 -0.6898  0.3100  0.6834
  138SAPE   H8R15005   0.814   2.618   9.790 -2.8568 -1.5079  2.4238
  138SAPE   C2915006   0.918   2.492   9.654 -0.5931  0.6895 -0.5147
  138SAPE   H9R15007   0.891   2.558   9.570 -0.9949  0.5719 -0.4831
  138SAPE  C21015008   1.000   2.365   9.632 -0.4382  0.1291  0.6996
  138SAPE  H10R15009   0.963   2.293   9.708  1.4164 -1.4676  0.1355
  138SAPE  H10S15010   1.103   2.392   9.663 -0.6391 -0.6738  2.1392
  138SAPE  C21115011   1.001   2.298   9.497  0.3503  0.0267  0.2144
  138SAPE  H11R15012   0.963   2.195   9.499  2.2301 -0.6821  1.7127
  138SAPE  C21215013   1.035   2.354   9.378 -0.0656 -0.2989 -0.0796
  138SAPE  H12R15014   1.041   2.284   9.293  0.2073  0.6709 -0.8658
  138SAPE  C21315015   1.083   2.496   9.359 -0.8389  1.0440  0.4492
  138SAPE  H13R15016   1.112   2.537   9.458 -0.3847  2.2557 -0.1868
  138SAPE  H13S15017   0.996   2.551   9.318  0.0018  1.3028 -0.9887
  138SAPE  C21415018   1.185   2.507   9.251  0.1704 -0.5427 -0.3752
  138SAPE  H14R15019   1.147   2.505   9.148 -0.4895 -1.4922 -0.1209
  138SAPE  C21515020   1.317   2.515   9.271 -0.4609  0.1777  0.1290
  138SAPE  H15R15021   1.389   2.514   9.188  0.7454  1.4896  1.1372
  138SAPE  C21615022   1.383   2.496   9.406  0.0339  0.3594 -0.5364
  138SAPE  H16R15023   1.476   2.437   9.388  0.1051  0.7240 -1.4113
  138SAPE  H16S15024   1.322   2.429   9.469 -2.0940  1.9645 -0.8406
  138SAPE  C21715025   1.399   2.626   9.481  0.0099 -0.1583 -0.8794
  138SAPE  H17R15026   1.299   2.665   9.508 -0.2773 -1.4435 -0.0149
  138SAPE  H17S15027   1.460   2.695   9.418 -0.1238 -0.6959 -1.6044
  138SAPE  C21815028   1.484   2.601   9.608 -0.4784  0.2204  0.1915
  138SAPE  H18R15029   1.579   2.551   9.579  0.0104  1.0627  0.3204
  138SAPE  H18S15030   1.429   2.532   9.675  0.0316  0.4457  0.8495
  138SAPE  C21915031   1.510   2.726   9.697 -0.3408  0.2804  0.7771
  138SAPE  H19R15032   1.575   2.800   9.645 -1.3180  0.4254 -0.2646
  138SAPE  H19S15033   1.563   2.695   9.789 -1.6893  0.2820  1.5732
  138SAPE  C22015034   1.395   2.809   9.747  0.2303 -0.8376  0.0113
  138SAPE  H20R15035   1.432   2.887   9.817  0.2073  0.1269 -1.0169
  138SAPE  H20S15036   1.323   2.747   9.804 -1.8450  1.4642 -0.0409
  138SAPE  H20T15037   1.325   2.858   9.675  1.8955  0.1768 -0.9581
  138SAPE   C3315038   0.672   2.894  10.238  0.4395 -0.8596 -0.3273
  138SAPE   H3X15039   0.665   2.788  10.268  0.2938 -0.3259  1.5377
  138SAPE   H3Y15040   0.759   2.924  10.174 -0.0599  0.9830 -0.1876
  138SAPE   C3415041   0.554   2.929  10.143  0.0082 -0.8363 -0.2181
  138SAPE   H4X15042   0.551   3.037  10.117 -3.6526 -0.0830  2.9134
  138SAPE   H4Y15043   0.457   2.912  10.194 -0.6427  1.2919 -0.7040
  138SAPE   C3515044   0.573   2.831  10.025  0.3069 -0.2393 -0.0599
  138SAPE   H5X15045   0.621   2.736  10.056  0.2590 -0.4038 -0.4825
  138SAPE   H5Y15046   0.645   2.872   9.950 -0.2950  0.2599 -0.3684
  138SAPE   C3615047   0.438   2.797   9.957  0.6032  0.2428  0.0963
  138SAPE   H6X15048   0.382   2.885   9.919  0.4452  0.7310  1.4395
  138SAPE   H6Y15049   0.376   2.744  10.032  1.1896 -2.6007 -1.3524
  138SAPE   C3715050   0.469   2.698   9.837 -0.3381 -0.5513 -0.0494
  138SAPE   H7X15051   0.501   2.594   9.861 -2.9642 -1.8192 -1.8019
  138SAPE   H7Y15052   0.555   2.738   9.779 -0.1553 -0.7318  0.0979
  138SAPE   C3815053   0.346   2.685   9.745  0.6142 -0.3568  0.1016
  138SAPE   H8X15054   0.258   2.679   9.812  1.4998 -1.5572  1.1744
  138SAPE   H8Y15055   0.358   2.595   9.681 -1.7489 -0.3563 -0.3932
  138SAPE   C3915056   0.332   2.802   9.651  0.1874  0.3455  1.0622
  138SAPE   H9X15057   0.299   2.890   9.710 -3.0512  0.3564 -0.6375
  138SAPE   H9Y15058   0.241   2.772   9.594  0.8262  1.1863 -0.4193
  138SAPE  C31015059   0.455   2.842   9.562  0.1490 -0.4935 -1.1846
  138SAPE  H10X15060   0.543   2.870   9.624 -1.5672  2.1269  0.1275
  138SAPE  H10Y15061   0.427   2.924   9.493 -3.6179  1.7512  2.8211
  138SAPE  C31115062   0.500   2.731   9.469  1.1566 -0.6686 -0.1591
  138SAPE  H11X15063   0.432   2.710   9.385  1.6090 -3.2848  0.0712
  138SAPE  H11Y15064   0.503   2.637   9.529 -0.8515 -1.3307 -1.0704
  138SAPE  C31215065   0.637   2.762   9.402  0.7422 -0.0133  0.1319
  138SAPE  H12X15066   0.718   2.753   9.477 -0.9380  0.6480  2.0720
  138SAPE  H12Y15067   0.629   2.858   9.348 -1.5015 -0.8159 -1.0220
  138SAPE  C31315068   0.667   2.658   9.299 -0.1946 -0.0639  0.6608
  138SAPE  H13X15069   0.576   2.633   9.240  1.4150 -0.4089 -1.7332
  138SAPE  H13Y15070   0.703   2.572   9.359  0.3654  0.5043  1.1400
  138SAPE  C31415071   0.779   2.706   9.208  0.1962  0.2707  0.5437
  138SAPE  H14X15072   0.865   2.730   9.275  1.6359 -0.2453 -1.0874
  138SAPE  H14Y15073   0.758   2.808   9.170  1.1268  0.0836 -0.4757
  138SAPE  C31515074   0.829   2.617   9.099  0.0962  0.6180 -0.5079
  138SAPE  H15X15075   0.753   2.607   9.018  0.3091  1.2152 -0.7868
  138SAPE  H15Y15076   0.849   2.515   9.138 -0.6904  0.6830  0.0966
  138SAPE  C31615077   0.936   2.679   9.009  0.4062 -0.3047 -0.6678
  138SAPE  H16X15078   1.017   2.714   9.076 -0.7575  1.6731 -0.2742
  138SAPE  H16Y15079   0.897   2.754   8.937 -1.5416 -2.4505 -1.9491
  138SAPE  C31715080   0.994   2.575   8.907 -0.4399  0.0526  0.6528
  138SAPE  H17X15081   1.041   2.488   8.957  1.0922  1.1633  1.1648
  138SAPE  H17Y15082   1.084   2.613   8.855 -1.2960  1.3040  0.0785
  138SAPE  C31815083   0.896   2.545   8.791  0.0185  0.2708 -0.0714
  138SAPE  H18X15084   0.884   2.642   8.739  0.6592  0.5065  0.2117
  138SAPE  H18Y15085   0.795   2.521   8.831  0.0519  3.5184  2.2014
  138SAPE  H18Z15086   0.936   2.469   8.720 -0.0733 -1.0998  1.3152
  139SAPE     N15087   0.752   0.482  10.951  0.0368  0.0922  0.1552
  139SAPE   HN115088   0.770   0.566  10.892 -0.6096 -0.5814 -1.0186
  139SAPE   HN215089   0.806   0.487  11.039 -0.5951 -1.4328  0.6447
  139SAPE   HN315090   0.764   0.394  10.897  0.7349  0.4508 -0.2902
  139SAPE   C1215091   0.608   0.491  10.992 -0.0916 -0.0393  0.1569
  139SAPE  H12A15092   0.605   0.587  11.047  0.7350 -0.5831  1.1624
  139SAPE  H12B15093   0.581   0.403  11.054 -0.0329 -0.7678 -0.8332
  139SAPE   C1115094   0.524   0.492  10.867 -0.1885 -0.3000  0.0956
  139SAPE  H11A15095   0.418   0.505  10.894 -1.0250 -1.2771 -2.5071
  139SAPE  H11B15096   0.531   0.402  10.801  1.6946 -1.0874  1.3157
  139SAPE     P15097   0.483   0.641  10.657 -0.2067  0.1733  0.1608
  139SAPE   O1315098   0.343   0.596  10.672 -0.2975 -0.5284  0.2403
  139SAPE   O1415099   0.514   0.783  10.625 -0.4307 -0.2953  0.7583
  139SAPE   O1215100   0.559   0.607  10.786 -0.3419 -0.3669  0.0869
  139SAPE   O1115101   0.563   0.543  10.557  0.0849  0.7618  0.6990
  139SAPE    C115102   0.706   0.556  10.548  0.1661 -0.0059  0.1593
  139SAPE    HA15103   0.754   0.628  10.618  1.6671 -0.2513 -0.6137
  139SAPE    HB15104   0.751   0.455  10.562  1.5682  0.4308 -1.0761
  139SAPE    C215105   0.750   0.594  10.399 -0.1777 -0.5458 -0.3614
  139SAPE    HS15106   0.859   0.576  10.386  0.4823  0.4895  3.3081
  139SAPE   O2115107   0.707   0.727  10.366 -0.6234 -0.2861 -0.3897
  139SAPE   C2115108   0.769   0.786  10.273  0.6733 -0.1570  0.0740
  139SAPE   O2215109   0.870   0.744  10.221 -0.2797  0.1540 -0.0696
  139SAPE   C2215110   0.704   0.920  10.253 -0.9850  0.2030  0.4395
  139SAPE   H2R15111   0.597   0.896  10.238 -1.4621  1.5635  1.5088
  139SAPE   H2S15112   0.720   0.981  10.344  1.8186 -0.0724  0.1912
  139SAPE    C315113   0.680   0.483  10.304 -0.8782 -0.7436 -0.0803
  139SAPE    HX15114   0.570   0.479  10.315 -0.8516 -0.0468  0.4229
  139SAPE    HY15115   0.709   0.382  10.341  1.1882 -0.5228 -1.0005
  139SAPE   O3115116   0.710   0.510  10.168  0.0699  0.5852 -0.0041
  139SAPE   C3115117   0.817   0.450  10.119 -0.4286 -1.0094 -0.0233
  139SAPE   O3215118   0.890   0.380  10.189 -0.7500 -0.8232  0.0339
  139SAPE   C3215119   0.835   0.500   9.980 -0.2452  0.2350 -0.1718
  139SAPE   H2X15120   0.884   0.600   9.984  0.3007 -0.0233 -0.3522
  139SAPE   H2Y15121   0.739   0.506   9.924  0.2571 -2.1311 -1.3309
  139SAPE   C2315122   0.757   0.985  10.122 -0.3337  0.0984  0.6689
  139SAPE   H3R15123   0.742   0.917  10.035  0.1717  0.2293  0.4764
  139SAPE   H3S15124   0.863   1.015  10.128 -0.6613  1.4943 -0.1361
  139SAPE   C2415125   0.694   1.121  10.096  0.6420 -0.7032 -0.4866
  139SAPE   H4R15126   0.754   1.169  10.016 -1.5582  3.7672  0.4188
  139SAPE   H4S15127   0.701   1.188  10.185  1.7222 -0.2250 -0.9192
  139SAPE   C2515128   0.549   1.109  10.064 -0.4850 -0.0012  0.1973
  139SAPE   H5R15129   0.486   1.109  10.154 -0.7603  0.5481 -0.0005
  139SAPE   C2615130   0.493   1.084   9.948 -0.6659 -0.1462  0.3725
  139SAPE   H6R15131   0.385   1.096   9.931 -0.6962 -1.1003 -0.1270
  139SAPE   C2715132   0.570   1.068   9.819  0.2169  1.0620 -0.1625
  139SAPE   H7R15133   0.666   1.017   9.845 -1.5166 -1.6666  1.1578
  139SAPE   H7S15134   0.603   1.170   9.792 -1.1248  1.2277 -1.1880
  139SAPE   C2815135   0.513   0.987   9.702  0.0582  0.2205  0.0726
  139SAPE   H8R15136   0.514   0.878   9.711  0.7560  0.1322 -1.0674
  139SAPE   C2915137   0.467   1.034   9.585 -0.1261 -0.3552  1.0018
  139SAPE   H9R15138   0.424   0.961   9.515  1.1794  1.3457 -1.6837
  139SAPE  C21015139   0.460   1.173   9.535 -0.8033 -0.1548 -0.0803
  139SAPE  H10R15140   0.548   1.192   9.470  0.1466  3.5806  2.1348
  139SAPE  H10S15141   0.453   1.246   9.618 -0.1026 -2.1003  1.7300
  139SAPE  C21115142   0.336   1.190   9.442  0.1043 -0.2140 -0.0573
  139SAPE  H11R15143   0.259   1.255   9.485  0.3918 -0.4610  0.8567
  139SAPE  C21215144   0.310   1.141   9.319 -0.2291  0.0870  1.1560
  139SAPE  H12R15145   0.225   1.186   9.265  1.1266  2.3828  0.8482
  139SAPE  C21315146   0.409   1.060   9.233  0.0455 -0.2304 -0.3564
  139SAPE  H13R15147   0.374   0.956   9.216  2.4209 -1.5484  2.2914
  139SAPE  H13S15148   0.507   1.043   9.283  0.4389  1.4354 -0.5139
  139SAPE  C21415149   0.454   1.121   9.104 -0.3259 -0.2043 -0.4457
  139SAPE  H14R15150   0.561   1.146   9.104  0.0883 -1.9349 -0.0725
  139SAPE  C21515151   0.379   1.143   8.992  0.7640  0.2665  0.6277
  139SAPE  H15R15152   0.429   1.168   8.898 -0.5325  2.3379  0.4578
  139SAPE  C21615153   0.233   1.107   8.974 -0.4561 -0.7831 -0.2525
  139SAPE  H16R15154   0.192   1.079   9.074 -1.0990 -0.6235 -0.4717
  139SAPE  H16S15155   0.232   1.015   8.913 -1.1643  0.4947 -2.1928
  139SAPE  C21715156   0.151   1.213   8.906  0.3750 -0.2219 -0.1173
  139SAPE  H17R15157   0.156   1.309   8.961  4.3468 -0.8536  0.7451
  139SAPE  H17S15158   0.045   1.180   8.897  0.8992 -1.7841 -0.8116
  139SAPE  C21815159   0.200   1.248   8.765  0.4666 -0.7938  0.3975
  139SAPE  H18R15160   0.207   1.150   8.713 -1.1237 -0.3562 -0.6923
  139SAPE  H18S15161   0.300   1.297   8.762 -0.9401  2.0932 -0.5975
  139SAPE  C21915162   0.108   1.334   8.676  0.0184 -0.1125  0.0387
  139SAPE  H19R15163   0.096   1.440   8.708  1.0828  0.3699 -1.1381
  139SAPE  H19S15164   0.012   1.279   8.686  0.1077  0.1133  2.4191
  139SAPE  C22015165   0.160   1.348   8.534  0.6037 -0.1241 -0.0611
  139SAPE  H20R15166   0.077   1.399   8.481  0.7580 -0.4969 -0.6703
  139SAPE  H20S15167   0.167   1.246   8.491 -0.2892  0.6053 -1.9949
  139SAPE  H20T15168   0.254   1.406   8.524  3.3926 -4.7014 -2.4564
  139SAPE   C3315169   0.915   0.408   9.885 -0.0788  0.1123  0.1843
  139SAPE   H3X15170   1.019   0.397   9.923  0.4038 -2.9158 -1.8637
  139SAPE   H3Y15171   0.932   0.450   9.784  0.3136 -2.4370 -0.8302
  139SAPE   C3415172   0.848   0.275   9.861  0.1938 -0.5455 -0.0732
  139SAPE   H4X15173   0.746   0.294   9.820  0.0449 -0.3159  0.3988
  139SAPE   H4Y15174   0.817   0.215   9.949 -1.4840 -0.5117 -0.6169
  139SAPE   C3515175   0.925   0.191   9.752 -0.3302 -0.3737  0.0311
  139SAPE   H5X15176   1.027   0.174   9.793  0.4655  0.3407 -1.6056
  139SAPE   H5Y15177   0.922   0.260   9.664 -4.4582 -0.4036  0.0492
  139SAPE   C3615178   0.845   0.073   9.716  0.9292  0.0478 -0.1426
  139SAPE   H6X15179   0.745   0.108   9.682  1.2097 -1.3325 -2.5197
  139SAPE   H6Y15180   0.835   0.005   9.803  3.8548 -1.7365 -1.1336
  139SAPE   C3715181   0.910   0.000   9.605  0.8098  0.5879 -0.2756
  139SAPE   H7X15182   0.894  -0.109   9.610  0.0241  0.6744 -0.8239
  139SAPE   H7Y15183   1.021   0.013   9.604  0.8263  0.4851 -2.0834
  139SAPE   C3815184   0.857   0.039   9.463 -0.7895 -0.2707 -0.3470
  139SAPE   H8X15185   0.890   0.144   9.448 -0.1261 -0.4222  0.0040
  139SAPE   H8Y15186   0.748   0.019   9.460 -0.6906 -0.5889 -2.3290
  139SAPE   C3915187   0.938  -0.041   9.351 -0.6157  0.2530 -0.3783
  139SAPE   H9X15188   0.885  -0.138   9.355 -0.2079  0.0875  1.1309
  139SAPE   H9Y15189   1.047  -0.057   9.368 -0.6003  0.0676 -0.6473
  139SAPE  C31015190   0.924   0.025   9.211 -0.5157  0.4204  0.0672
  139SAPE  H10X15191   1.020   0.024   9.155 -0.1799  0.5085  0.6294
  139SAPE  H10Y15192   0.899   0.132   9.230 -0.8217  0.4116 -0.2836
  139SAPE  C31115193   0.829  -0.046   9.118 -0.1924 -0.1996  0.3577
  139SAPE  H11X15194   0.737  -0.042   9.180  0.6975 -0.2226  1.7189
  139SAPE  H11Y15195   0.858  -0.154   9.123  1.0503  0.1509  1.1636
  139SAPE  C31215196   0.819   0.000   8.966  0.0721 -0.1365 -0.5547
  139SAPE  H12X15197   0.917  -0.004   8.914 -0.9317  1.3367 -2.6296
  139SAPE  H12Y15198   0.780   0.104   8.966 -2.0325 -0.8800  0.2274
  139SAPE  C31315199   0.713  -0.071   8.895  0.3839  0.3451  0.1880
  139SAPE  H13X15200   0.615  -0.072   8.947  0.7726  1.0676  0.9484
  139SAPE  H13Y15201   0.729  -0.180   8.887 -1.0036  0.2119 -1.0599
  139SAPE  C31415202   0.684  -0.008   8.763  0.4607  0.1308 -0.2018
  139SAPE  H14X15203   0.666   0.100   8.777  0.7311  0.4454 -2.1348
  139SAPE  H14Y15204   0.588  -0.038   8.715  0.7409 -0.0349 -0.6692
  139SAPE  C31515205   0.788  -0.030   8.656  0.2650 -0.7927  0.3807
  139SAPE  H15X15206   0.888  -0.007   8.700  1.1628 -0.8569 -1.5812
  139SAPE  H15Y15207   0.770   0.034   8.567  0.2171 -0.0744  0.9010
  139SAPE  C31615208   0.793  -0.174   8.609 -0.0874 -0.1458 -0.4403
  139SAPE  H16X15209   0.818  -0.235   8.698  1.0966  2.4104  1.0302
  139SAPE  H16Y15210   0.698  -0.212   8.565 -1.2470  2.6870 -0.5079
  139SAPE  C31715211   0.909  -0.203   8.516  0.4225 -0.5520  0.9302
  139SAPE  H17X15212   0.997  -0.165   8.573 -0.6574  0.5918  1.8826
  139SAPE  H17Y15213   0.920  -0.145   8.422  0.6033 -1.4010  0.4230
  139SAPE  C31815214   0.939  -0.351   8.476  0.9910  0.1965  0.8047
  139SAPE  H18X15215   0.859  -0.378   8.404  0.5534  1.3230  0.8627
  139SAPE  H18Y15216   0.935  -0.425   8.558  0.5801  0.2796  0.8573
  139SAPE  H18Z15217   1.043  -0.354   8.436  0.7846  1.1675  0.1798
  140SAPE     N15218   3.698   4.567  11.169  0.2110  0.5378  0.3311
  140SAPE   HN115219   3.689   4.466  11.193  0.6384  0.4459  0.1011
  140SAPE   HN215220   3.663   4.590  11.074 -1.4046  0.6165  0.9127
  140SAPE   HN315221   3.797   4.597  11.180 -0.1813  2.4613 -1.1841
  140SAPE   C1215222   3.601   4.629  11.266 -0.3178 -0.9008  0.5843
  140SAPE  H12A15223   3.620   4.737  11.246  2.1659 -1.6780 -1.4553
  140SAPE  H12B15224   3.640   4.592  11.363  0.5441 -0.4745  0.4015
  140SAPE   C1115225   3.457   4.591  11.231  0.0030 -1.0064 -0.3772
  140SAPE  H11A15226   3.389   4.622  11.313  1.4253  0.5853  0.2255
  140SAPE  H11B15227   3.442   4.481  11.236 -1.4166 -0.7650  1.2503
  140SAPE     P15228   3.305   4.574  11.024 -0.4606  0.0540  0.2522
  140SAPE   O1315229   3.374   4.458  10.965  0.1942  0.5125 -1.5371
  140SAPE   O1415230   3.187   4.542  11.112  0.1144  0.1776  0.1103
  140SAPE   O1215231   3.417   4.651  11.107 -0.3459  0.0080 -0.4126
  140SAPE   O1115232   3.268   4.685  10.915  0.1648  0.0585 -0.7061
  140SAPE    C115233   3.377   4.736  10.833  0.3811 -0.0197  0.3249
  140SAPE    HA15234   3.365   4.847  10.836 -0.3966 -0.0414 -1.5836
  140SAPE    HB15235   3.476   4.724  10.882  0.8837  2.3100 -0.0431
  140SAPE    C215236   3.364   4.684  10.686  0.1383  0.4891  0.0380
  140SAPE    HS15237   3.353   4.574  10.686  0.7223  0.4259  0.9500
  140SAPE   O2115238   3.478   4.731  10.609 -0.4153 -0.3181 -0.3936
  140SAPE   C2115239   3.515   4.636  10.525  0.0009  0.4113 -1.0511
  140SAPE   O2215240   3.487   4.516  10.533 -0.2806  0.2166 -0.6287
  140SAPE   C2215241   3.590   4.698  10.409 -0.0789 -1.3243 -0.3961
  140SAPE   H2R15242   3.518   4.773  10.369  0.4502  0.8352  2.5407
  140SAPE   H2S15243   3.673   4.751  10.461  2.2842 -4.1591 -1.1787
  140SAPE    C315244   3.230   4.745  10.634 -0.3497 -0.1014  0.0887
  140SAPE    HX15245   3.241   4.854  10.652 -1.0809 -0.2062  1.1787
  140SAPE    HY15246   3.141   4.714  10.693  0.3375 -0.8916  0.7225
  140SAPE   O3115247   3.203   4.731  10.492 -0.6296  0.5698  0.7719
  140SAPE   C3115248   3.210   4.840  10.419  0.4445  0.1128  0.8405
  140SAPE   O3215249   3.236   4.954  10.459 -0.5381 -0.1371 -0.8140
  140SAPE   C3215250   3.202   4.790  10.270  0.2515  0.4689  0.9526
  140SAPE   H2X15251   3.103   4.741  10.263  0.7705 -0.7860  2.2799
  140SAPE   H2Y15252   3.286   4.718  10.261  1.5853  2.4021 -3.4974
  140SAPE   C2315253   3.642   4.605  10.299  0.5536 -0.2397 -0.2530
  140SAPE   H3R15254   3.555   4.557  10.250  1.6398 -2.4031 -0.1412
  140SAPE   H3S15255   3.708   4.528  10.344 -0.6347 -0.2855  1.4535
  140SAPE   C2415256   3.708   4.684  10.183  0.0417  0.0547  0.6485
  140SAPE   H4R15257   3.788   4.743  10.231 -0.0441  0.2925  0.4957
  140SAPE   H4S15258   3.637   4.762  10.149  0.1591  0.0657  0.4271
  140SAPE   C2515259   3.773   4.601  10.067 -0.4186  0.0549 -0.2024
  140SAPE   H5R15260   3.860   4.549  10.111 -0.0638  1.6812  1.0996
  140SAPE   C2615261   3.736   4.590   9.941  0.6064  1.0583 -0.1214
  140SAPE   H6R15262   3.799   4.520   9.885 -0.7989  0.7763 -1.3926
  140SAPE   C2715263   3.626   4.663   9.874 -0.1254  0.4597 -0.7370
  140SAPE   H7R15264   3.668   4.756   9.831  1.4575  0.7988  1.4725
  140SAPE   H7S15265   3.554   4.700   9.950 -0.2106  4.0591 -2.5043
  140SAPE   C2815266   3.557   4.583   9.765 -0.7162  0.4841 -0.3740
  140SAPE   H8R15267   3.468   4.529   9.800  0.7664 -0.4109  2.1961
  140SAPE   C2915268   3.594   4.571   9.635  0.0767 -0.2423 -0.4011
  140SAPE   H9R15269   3.530   4.523   9.558  1.7805 -0.4199 -1.7387
  140SAPE  C21015270   3.722   4.640   9.583 -0.3618  0.2307 -0.0781
  140SAPE  H10R15271   3.806   4.629   9.655 -2.0978  1.2565  2.1449
  140SAPE  H10S15272   3.695   4.747   9.569 -1.4172 -0.2272 -1.6546
  140SAPE  C21115273   3.764   4.572   9.456  0.5482  0.1799 -0.0398
  140SAPE  H11R15274   3.773   4.463   9.473 -2.8304 -0.2628 -0.6611
  140SAPE  C21215275   3.796   4.614   9.331  0.8512  0.1143  0.3023
  140SAPE  H12R15276   3.799   4.533   9.256 -0.9900  0.5644 -0.2833
  140SAPE  C21315277   3.798   4.752   9.280  0.3218 -0.6669  0.1857
  140SAPE  H13R15278   3.769   4.837   9.345  0.6801 -0.6958  0.3849
  140SAPE  H13S15279   3.713   4.764   9.211  1.0046 -1.2154 -0.7610
  140SAPE  C21415280   3.929   4.793   9.221 -0.2794  0.1662 -0.1539
  140SAPE  H14R15281   3.997   4.830   9.299  1.9339 -0.6586 -1.6432
  140SAPE  C21515282   3.978   4.777   9.095  0.2383  0.4361 -0.4114
  140SAPE  H15R15283   4.073   4.825   9.067  1.0754 -1.3993 -0.7472
  140SAPE  C21615284   3.909   4.712   8.972  0.3150  0.4300 -1.3785
  140SAPE  H16R15285   3.870   4.616   9.011 -1.1487  2.7263  3.2237
  140SAPE  H16S15286   3.982   4.685   8.894  1.3277  0.3788 -0.4289
  140SAPE  C21715287   3.795   4.795   8.920 -0.6565 -0.9019 -0.2713
  140SAPE  H17R15288   3.727   4.819   9.004 -0.0328  0.2668 -0.0928
  140SAPE  H17S15289   3.727   4.727   8.863 -1.2266 -0.7917  0.2733
  140SAPE  C21815290   3.839   4.926   8.845  0.1591  0.4284 -0.4349
  140SAPE  H18R15291   3.896   4.983   8.921  2.3790 -2.1876 -0.0485
  140SAPE  H18S15292   3.758   4.995   8.812  1.9949  3.7874  1.7735
  140SAPE  C21915293   3.924   4.907   8.722  0.7596  0.2904  0.9625
  140SAPE  H19R15294   4.018   4.849   8.734 -0.0583 -0.7858  2.4404
  140SAPE  H19S15295   3.961   5.005   8.686  1.2179  0.0492  0.7785
  140SAPE  C22015296   3.841   4.835   8.619 -0.3374 -1.0079 -0.1456
  140SAPE  H20R15297   3.819   4.730   8.648 -0.9731 -0.0498  3.0261
  140SAPE  H20S15298   3.901   4.840   8.526 -1.3547  2.0050 -0.6981
  140SAPE  H20T15299   3.748   4.892   8.600 -1.3643 -3.4260 -2.6853
  140SAPE   C3315300   3.231   4.898  10.162 -0.5738 -0.0387  0.0328
  140SAPE   H3X15301   3.209   4.998  10.205 -0.5946 -0.3101  0.6515
  140SAPE   H3Y15302   3.170   4.889  10.070  1.3958 -1.4209 -1.1853
  140SAPE   C3415303   3.385   4.895  10.133 -0.4277 -0.1331  0.2774
  140SAPE   H4X15304   3.410   4.791  10.104 -0.2390 -0.0638  0.1901
  140SAPE   H4Y15305   3.442   4.926  10.224  0.9032 -1.6630 -0.0221
  140SAPE   C3515306   3.432   4.985  10.016  0.6442  0.4679 -0.2176
  140SAPE   H5X15307   3.543   4.976  10.023  0.4639 -0.5521  1.9154
  140SAPE   H5Y15308   3.401   5.089  10.037 -2.9924 -0.7214  0.5848
  140SAPE   C3615309   3.378   4.936   9.879  0.2040 -0.0925 -0.0089
  140SAPE   H6X15310   3.268   4.953   9.874  0.1684 -0.2064  0.3791
  140SAPE   H6Y15311   3.403   4.828   9.872  1.1804  0.1441 -0.2165
  140SAPE   C3715312   3.453   5.010   9.761  0.0606 -0.2442  0.8233
  140SAPE   H7X15313   3.557   4.971   9.763  0.2153  0.2130  3.3474
  140SAPE   H7Y15314   3.450   5.116   9.794 -0.3394 -0.0445  0.1571
  140SAPE   C3815315   3.395   4.970   9.624 -0.1632 -0.1045 -0.2377
  140SAPE   H8X15316   3.287   4.996   9.618  0.1162  1.2796  0.3453
  140SAPE   H8Y15317   3.419   4.862   9.617  0.4635  0.0283 -0.1149
  140SAPE   C3915318   3.474   5.041   9.514 -0.7669 -0.3017  0.3114
  140SAPE   H9X15319   3.580   5.026   9.542 -1.0580 -0.3340  1.4036
  140SAPE   H9Y15320   3.437   5.146   9.504 -1.1456 -0.2928  1.7941
  140SAPE  C31015321   3.439   4.964   9.382  0.8212 -0.7640 -0.1007
  140SAPE  H10X15322   3.329   4.946   9.379  0.7252 -0.0382 -1.1658
  140SAPE  H10Y15323   3.502   4.872   9.374  2.2665  0.2301 -0.3920
  140SAPE  C31115324   3.479   5.046   9.261 -0.0399  0.1080 -0.1387
  140SAPE  H11X15325   3.588   5.065   9.269 -0.6030  2.9357  1.5726
  140SAPE  H11Y15326   3.433   5.146   9.275 -4.0142 -1.2575 -2.5818
  140SAPE  C31215327   3.433   4.993   9.127 -0.4324  0.2462 -0.0974
  140SAPE  H12X15328   3.335   4.941   9.126 -1.0015  1.3095 -1.0688
  140SAPE  H12Y15329   3.513   4.924   9.095 -0.3139  0.1346  0.4441
  140SAPE  C31315330   3.430   5.096   9.015  0.1290 -0.9285 -0.2550
  140SAPE  H13X15331   3.532   5.140   9.008  0.0847 -0.8961 -0.6736
  140SAPE  H13Y15332   3.356   5.177   9.030 -0.1955 -1.0401 -1.2642
  140SAPE  C31415333   3.383   5.028   8.875 -0.1160 -0.0219 -0.5486
  140SAPE  H14X15334   3.280   4.988   8.857 -0.2679  0.5949 -1.0912
  140SAPE  H14Y15335   3.463   4.957   8.846  0.9249  1.2847 -0.9366
  140SAPE  C31515336   3.404   5.130   8.761  0.8912  0.2060 -0.5218
  140SAPE  H15X15337   3.514   5.138   8.751  0.7408 -1.0857 -3.9942
  140SAPE  H15Y15338   3.376   5.235   8.784  2.3363  0.3456  0.6702
  140SAPE  C31615339   3.335   5.086   8.635  0.4441  0.4670  0.4591
  140SAPE  H16X15340   3.224   5.084   8.628  0.4784  1.1297 -0.4706
  140SAPE  H16Y15341   3.362   4.986   8.595  1.1530  0.6883  0.3893
  140SAPE  C31715342   3.364   5.182   8.524 -0.1119  0.2279  0.4739
  140SAPE  H17X15343   3.474   5.188   8.511 -0.3423  0.3146 -1.6347
  140SAPE  H17Y15344   3.334   5.284   8.557 -0.0149 -0.0660  1.4935
  140SAPE  C31815345   3.300   5.151   8.382 -0.4156 -0.1142 -0.0130
  140SAPE  H18X15346   3.367   5.194   8.304  2.0404 -1.2119  1.4188
  140SAPE  H18Y15347   3.197   5.186   8.363 -1.0990 -2.1558 -0.1533
  140SAPE  H18Z15348   3.297   5.041   8.367  0.9068 -0.6047  2.8432
  141SAPE     N15349   4.659   5.319  11.081  0.2126  0.7560 -1.1071
  141SAPE   HN115350   4.739   5.289  11.020 -1.3120 -2.0401 -1.8656
  141SAPE   HN215351   4.698   5.369  11.163 -0.0630 -0.4779 -0.2145
  141SAPE   HN315352   4.619   5.228  11.113  4.2284 -0.2134  1.5013
  141SAPE   C1215353   4.559   5.401  11.018  0.6647 -0.0961  0.7870
  141SAPE  H12A15354   4.602   5.502  10.998 -2.0220  0.9728  0.2334
  141SAPE  H12B15355   4.467   5.407  11.080  0.0923  2.9773 -0.2364
  141SAPE   C1115356   4.522   5.344  10.884  0.5400  0.5151 -0.7439
  141SAPE  H11A15357   4.609   5.339  10.815  1.8392 -0.1320  0.9308
  141SAPE  H11B15358   4.449   5.415  10.839 -2.4732 -0.0743  2.9868
  141SAPE     P15359   4.322   5.188  10.861  0.2661 -0.3404 -0.1731
  141SAPE   O1315360   4.301   5.041  10.867 -0.1393  0.0415 -0.6739
  141SAPE   O1415361   4.227   5.266  10.948 -0.5045  0.1172  0.2190
  141SAPE   O1215362   4.473   5.213  10.895  0.8019 -0.0682  0.3605
  141SAPE   O1115363   4.308   5.223  10.709 -0.1035  0.5426  0.2515
  141SAPE    C115364   4.429   5.198  10.625 -0.7496  0.1602 -0.3178
  141SAPE    HA15365   4.467   5.294  10.583  0.7994 -0.2561  0.1049
  141SAPE    HB15366   4.517   5.150  10.672  0.1885  2.5329  0.3909
  141SAPE    C215367   4.397   5.102  10.507  0.5036 -0.4954 -0.0145
  141SAPE    HS15368   4.489   5.089  10.446  0.3039 -1.2620 -0.1533
  141SAPE   O2115369   4.295   5.156  10.420  0.6534 -0.5492 -0.0045
  141SAPE   C2115370   4.341   5.239  10.327  0.0236 -0.3519 -0.2694
  141SAPE   O2215371   4.457   5.265  10.306  0.0267 -0.0017  0.1108
  141SAPE   C2215372   4.228   5.281  10.240 -0.7851 -0.3094  0.0493
  141SAPE   H2R15373   4.175   5.199  10.186 -0.4381 -0.2606 -0.3665
  141SAPE   H2S15374   4.156   5.332  10.307  1.1770  0.5036  1.5897
  141SAPE    C315375   4.351   4.962  10.560  0.4563  0.3588  0.2457
  141SAPE    HX15376   4.253   4.977  10.610  0.0962 -0.8277 -0.1005
  141SAPE    HY15377   4.426   4.932  10.637  0.5776 -0.1952 -0.0877
  141SAPE   O3115378   4.341   4.860  10.461  0.2857  0.1743 -0.1387
  141SAPE   C3115379   4.312   4.737  10.509 -0.1910 -0.1261  0.1417
  141SAPE   O3215380   4.290   4.711  10.626 -0.7782  0.8651  0.6355
  141SAPE   C3215381   4.301   4.631  10.399 -0.2841 -0.2169 -0.0163
  141SAPE   H2X15382   4.270   4.536  10.448  2.0995  0.3261  2.6686
  141SAPE   H2Y15383   4.402   4.611  10.357 -0.4784  0.4048 -0.7791
  141SAPE   C2315384   4.268   5.384  10.130  0.6535 -0.4605  0.0416
  141SAPE   H3R15385   4.352   5.329  10.082  1.4974  2.5694 -2.1053
  141SAPE   H3S15386   4.311   5.478  10.169  1.8862 -0.4787 -1.2381
  141SAPE   C2415387   4.154   5.407  10.034  0.5948 -0.1849  0.1454
  141SAPE   H4R15388   4.125   5.305  10.000 -0.2142 -0.9497  2.9786
  141SAPE   H4S15389   4.190   5.464   9.945 -1.5371 -0.9237 -1.2489
  141SAPE   C2515390   4.029   5.464  10.094  0.9321  0.1009  0.3214
  141SAPE   H5R15391   4.028   5.474  10.204 -0.2542  1.3645  0.2055
  141SAPE   C2615392   3.911   5.498  10.032  0.3387 -0.3465 -0.1862
  141SAPE   H6R15393   3.834   5.539  10.099  0.0967 -3.1782  1.3141
  141SAPE   C2715394   3.879   5.488   9.885  0.5555 -0.6498  0.2043
  141SAPE   H7R15395   3.953   5.435   9.821 -0.7170 -0.0341 -1.8277
  141SAPE   H7S15396   3.890   5.589   9.841  0.0774 -0.3794  0.6960
  141SAPE   C2815397   3.737   5.426   9.860  0.0256  0.5610  0.3784
  141SAPE   H8R15398   3.719   5.325   9.900 -0.7350  0.7811  0.5891
  141SAPE   C2915399   3.641   5.476   9.785 -0.3156  0.2071  0.8025
  141SAPE   H9R15400   3.556   5.412   9.756 -0.9451  2.2317 -2.0174
  141SAPE  C21015401   3.650   5.606   9.708 -0.5363 -0.2556 -0.1393
  141SAPE  H10R15402   3.705   5.594   9.613  1.2018 -0.6774  0.9133
  141SAPE  H10S15403   3.713   5.684   9.755 -1.0998 -0.4226  0.9183
  141SAPE  C21115404   3.512   5.652   9.668  0.3246 -0.1863  0.7169
  141SAPE  H11R15405   3.450   5.685   9.752 -0.6773  1.3673 -0.5801
  141SAPE  C21215406   3.457   5.655   9.542 -0.1203 -0.1475  0.1638
  141SAPE  H12R15407   3.356   5.699   9.538 -0.1536 -0.3924 -2.2662
  141SAPE  C21315408   3.525   5.601   9.420  0.6329  0.7212  0.1829
  141SAPE  H13R15409   3.595   5.514   9.419  1.0611  1.0712 -2.3888
  141SAPE  H13S15410   3.579   5.691   9.383  2.8415 -0.8928 -0.6735
  141SAPE  C21415411   3.425   5.555   9.317 -0.1540  0.7920 -0.1318
  141SAPE  H14R15412   3.360   5.473   9.353 -0.8876  1.3824 -0.0859
  141SAPE  C21515413   3.404   5.591   9.187 -0.5084  0.0127  0.4086
  141SAPE  H15R15414   3.324   5.546   9.127 -0.4271  0.9951 -0.4709
  141SAPE  C21615415   3.491   5.684   9.113 -0.3956 -0.7375  0.8295
  141SAPE  H16R15416   3.584   5.718   9.164  1.1211 -3.0239 -0.3323
  141SAPE  H16S15417   3.429   5.776   9.108  1.2819  0.4621  1.5748
  141SAPE  C21715418   3.516   5.633   8.975 -1.0077  0.0260 -0.9331
  141SAPE  H17R15419   3.577   5.540   8.981  0.9747  1.4043  1.3087
  141SAPE  H17S15420   3.586   5.703   8.924 -0.5193 -0.4632 -0.9407
  141SAPE  C21815421   3.392   5.618   8.891  0.0728  0.1922 -0.2091
  141SAPE  H18R15422   3.330   5.709   8.905 -0.0521 -0.1917  1.7546
  141SAPE  H18S15423   3.335   5.530   8.928  0.0264  0.1049 -0.4784
  141SAPE  C21915424   3.425   5.579   8.743  0.0893 -0.2429 -0.3386
  141SAPE  H19R15425   3.478   5.482   8.749 -0.9220 -1.2311 -5.4582
  141SAPE  H19S15426   3.499   5.651   8.702  0.0860 -1.6396 -2.8893
  141SAPE  C22015427   3.300   5.561   8.664  0.0470 -0.3416 -0.1183
  141SAPE  H20R15428   3.324   5.554   8.556 -1.3153  0.2234 -0.4711
  141SAPE  H20S15429   3.233   5.650   8.675  0.8917  0.1701  1.0827
  141SAPE  H20T15430   3.249   5.465   8.688 -0.1861  0.1106  1.2367
  141SAPE   C3315431   4.201   4.664  10.287  0.2711 -0.2030  0.0468
  141SAPE   H3X15432   4.209   4.763  10.237  1.8455 -1.6319 -2.6227
  141SAPE   H3Y15433   4.101   4.645  10.332  0.1168 -1.6230 -0.8400
  141SAPE   C3415434   4.198   4.560  10.172  0.4607 -0.6886  0.0920
  141SAPE   H4X15435   4.108   4.578  10.110 -0.6247  2.0313  2.3364
  141SAPE   H4Y15436   4.206   4.465  10.229  0.2693 -0.3852  0.6235
  141SAPE   C3515437   4.325   4.558  10.084  0.4104 -0.2519 -0.6126
  141SAPE   H5X15438   4.405   4.515  10.147  0.0001  1.9527  1.5228
  141SAPE   H5Y15439   4.350   4.663  10.056 -1.0679  0.5240  0.8148
  141SAPE   C3615440   4.300   4.481   9.953 -0.3113  0.5157 -0.2967
  141SAPE   H6X15441   4.256   4.381   9.975  1.1393  0.3741  2.1648
  141SAPE   H6Y15442   4.403   4.474   9.911  0.7134 -1.9561  2.4348
  141SAPE   C3715443   4.207   4.552   9.850 -0.8929 -0.0877 -0.3494
  141SAPE   H7X15444   4.235   4.660   9.846 -0.9361 -0.0512  0.2962
  141SAPE   H7Y15445   4.104   4.537   9.888 -0.8119 -3.9549 -1.4939
  141SAPE   C3815446   4.207   4.487   9.709  0.3598  0.2754  0.3761
  141SAPE   H8X15447   4.231   4.381   9.731 -0.0243 -0.4796 -2.5692
  141SAPE   H8Y15448   4.300   4.522   9.658  0.8019  0.5334  1.3516
  141SAPE   C3915449   4.084   4.498   9.618 -0.3983 -1.0314  0.4330
  141SAPE   H9X15450   4.063   4.604   9.593 -0.9659 -1.3222 -0.3592
  141SAPE   H9Y15451   3.998   4.458   9.676 -0.8161  1.3386  1.4726
  141SAPE  C31015452   4.095   4.408   9.492  0.1229 -0.5778 -0.5028
  141SAPE  H10X15453   3.994   4.378   9.458  0.1116  1.2551 -2.1367
  141SAPE  H10Y15454   4.145   4.316   9.528  1.5575 -0.1378 -1.3335
  141SAPE  C31115455   4.174   4.474   9.381 -0.5229  0.1945 -0.5185
  141SAPE  H11X15456   4.268   4.516   9.423  0.2254 -0.5118 -1.4582
  141SAPE  H11Y15457   4.117   4.560   9.341 -0.8708 -1.2395 -3.2003
  141SAPE  C31215458   4.203   4.380   9.259 -0.5549 -0.5302 -0.7660
  141SAPE  H12X15459   4.115   4.311   9.256 -0.2832 -0.8826 -0.6907
  141SAPE  H12Y15460   4.299   4.325   9.271 -1.6654 -2.5831 -1.0268
  141SAPE  C31315461   4.215   4.457   9.130  0.2527 -0.3573 -0.0910
  141SAPE  H13X15462   4.275   4.551   9.138  0.5958 -0.7360  2.0004
  141SAPE  H13Y15463   4.110   4.482   9.105 -0.5689 -1.9952  1.6430
  141SAPE  C31415464   4.263   4.366   9.013  0.3560 -0.1785  0.5386
  141SAPE  H14X15465   4.189   4.283   9.023 -0.6712  0.5048 -1.1535
  141SAPE  H14Y15466   4.365   4.326   9.031  0.0684 -0.8101  0.8144
  141SAPE  C31515467   4.274   4.429   8.870  0.1809 -0.0921  0.7767
  141SAPE  H15X15468   4.333   4.523   8.878 -1.7494  1.2121  0.1314
  141SAPE  H15Y15469   4.171   4.460   8.843  0.1519 -0.6956  0.1672
  141SAPE  C31615470   4.323   4.338   8.748 -0.7415 -0.4382 -0.3709
  141SAPE  H16X15471   4.280   4.239   8.769 -0.3485 -0.4799  0.2533
  141SAPE  H16Y15472   4.432   4.317   8.756 -0.3039  0.7792 -2.7492
  141SAPE  C31715473   4.269   4.388   8.614  0.6502 -0.4180 -0.2385
  141SAPE  H17X15474   4.325   4.483   8.601 -1.4845  0.6692 -1.8578
  141SAPE  H17Y15475   4.160   4.406   8.616  0.7233 -0.0253  0.5163
  141SAPE  C31815476   4.299   4.298   8.500  0.1194  0.7912  0.3827
  141SAPE  H18X15477   4.269   4.337   8.400  0.4894 -1.4170 -0.6416
  141SAPE  H18Y15478   4.227   4.213   8.499  1.0786 -0.0578 -2.1209
  141SAPE  H18Z15479   4.398   4.249   8.489 -0.8745 -1.5784  1.5417
  142SAPE     N15480   4.221   4.793  10.878  0.1448 -0.2856  0.3267
  142SAPE   HN115481   4.223   4.896  10.869 -0.3477 -0.2059  1.0884
  142SAPE   HN215482   4.311   4.761  10.921  0.7487  0.1272 -0.5974
  142SAPE   HN315483   4.233   4.746  10.786  2.7981  0.0558  0.4445
  142SAPE   C1215484   4.098   4.740  10.945  0.0105 -0.0289 -0.5574
  142SAPE  H12A15485   4.011   4.789  10.896  0.0506  0.4337 -0.1756
  142SAPE  H12B15486   4.101   4.764  11.053 -1.7664 -3.4081  0.3158
  142SAPE   C1115487   4.083   4.586  10.922 -0.2231  0.0263  0.9389
  142SAPE  H11A15488   4.069   4.577  10.812 -0.7383 -0.4639  1.0439
  142SAPE  H11B15489   3.987   4.552  10.966 -0.0590  0.1911  1.4282
  142SAPE     P15490   4.199   4.357  10.976  0.1326  0.0226  0.0077
  142SAPE   O1315491   4.289   4.328  11.088 -0.0847  0.3733  0.3187
  142SAPE   O1415492   4.063   4.296  10.989 -0.4438 -0.4001 -0.0471
  142SAPE   O1215493   4.188   4.517  10.974  0.7785  0.3456 -0.5340
  142SAPE   O1115494   4.271   4.325  10.833 -0.2481  0.2428 -0.5625
  142SAPE    C115495   4.203   4.313  10.713 -0.9079  0.2338 -0.0397
  142SAPE    HA15496   4.129   4.230  10.718  0.7717 -1.3140 -0.6934
  142SAPE    HB15497   4.142   4.405  10.696 -0.4166  0.2583 -1.7819
  142SAPE    C215498   4.306   4.280  10.597 -0.1302 -0.1313 -0.2707
  142SAPE    HS15499   4.304   4.362  10.522  1.4061 -0.8161 -1.0615
  142SAPE   O2115500   4.264   4.160  10.529 -0.2278  0.0772  0.0089
  142SAPE   C2115501   4.181   4.178  10.427  0.6560 -0.6437 -0.1923
  142SAPE   O2215502   4.156   4.287  10.383  0.2761 -0.2426  0.2021
  142SAPE   C2215503   4.133   4.051  10.371  0.3838  0.6324 -0.1655
  142SAPE   H2R15504   4.086   3.979  10.441  0.7807  0.7286  0.2030
  142SAPE   H2S15505   4.068   4.080  10.285 -1.9046 -0.5707  1.1048
  142SAPE    C315506   4.452   4.268  10.642  0.2846 -0.2875 -0.0413
  142SAPE    HX15507   4.445   4.184  10.714 -0.3071 -1.2710 -1.2264
  142SAPE    HY15508   4.473   4.353  10.710  0.5607 -0.1715 -0.2710
  142SAPE   O3115509   4.560   4.246  10.546  0.2892  0.0504  0.2657
  142SAPE   C3115510   4.604   4.350  10.478  0.4773 -0.2912 -0.2904
  142SAPE   O3215511   4.579   4.465  10.496  0.0359  0.0619 -0.3990
  142SAPE   C3215512   4.667   4.294  10.348 -0.4020 -0.2737 -0.2505
  142SAPE   H2X15513   4.672   4.376  10.272  0.6353 -1.1859 -1.1989
  142SAPE   H2Y15514   4.593   4.218  10.315 -1.6830  0.3904  1.0673
  142SAPE   C2315515   4.257   3.974  10.313 -0.7522 -0.0756 -0.7297
  142SAPE   H3R15516   4.220   3.872  10.288  1.1538 -0.8539 -0.4860
  142SAPE   H3S15517   4.326   3.965  10.400 -0.8879  0.4089 -0.5735
  142SAPE   C2415518   4.319   4.039  10.188 -0.1290 -0.0809 -0.5427
  142SAPE   H4R15519   4.323   4.148  10.210 -1.2428 -0.0192 -0.6285
  142SAPE   H4S15520   4.246   4.040  10.105  0.5786 -1.0219 -1.1878
  142SAPE   C2515521   4.445   3.973  10.160  0.6905 -0.0808  0.3469
  142SAPE   H5R15522   4.465   3.880  10.217  1.6927 -0.5585 -0.7555
  142SAPE   C2615523   4.539   4.013  10.071 -0.5878 -0.2135  0.5891
  142SAPE   H6R15524   4.628   3.949  10.060 -2.8958 -3.2929 -1.0615
  142SAPE   C2715525   4.520   4.136   9.992 -0.8055  0.1766  0.4852
  142SAPE   H7R15526   4.471   4.213  10.054  0.7301  1.0368  0.6498
  142SAPE   H7S15527   4.439   4.113   9.919 -1.4858 -0.0134  1.2934
  142SAPE   C2815528   4.644   4.179   9.916  0.0676  0.1301  0.4456
  142SAPE   H8R15529   4.724   4.224   9.975  1.6279 -0.9710 -0.7921
  142SAPE   C2915530   4.658   4.169   9.784 -0.3517 -0.3464 -0.4155
  142SAPE   H9R15531   4.757   4.201   9.748 -2.2856  3.4635 -2.7117
  142SAPE  C21015532   4.548   4.133   9.683 -0.2436  0.3135  0.2743
  142SAPE  H10R15533   4.529   4.222   9.618  2.4175  0.5124 -0.2987
  142SAPE  H10S15534   4.455   4.090   9.726  0.0286  1.2777  1.8868
  142SAPE  C21115535   4.594   4.016   9.594  0.3683  0.4292 -0.7052
  142SAPE  H11R15536   4.664   3.949   9.646  0.0661  1.8069  1.5581
  142SAPE  C21215537   4.568   3.989   9.466 -0.1816 -0.1217  0.1568
  142SAPE  H12R15538   4.615   3.900   9.422 -0.9612 -0.5609  0.2155
  142SAPE  C21315539   4.488   4.069   9.369  0.1327  0.2898 -0.1372
  142SAPE  H13R15540   4.393   4.100   9.419  0.4059  0.8376  0.0498
  142SAPE  H13S15541   4.446   3.999   9.294  0.6563  0.4731 -0.5973
  142SAPE  C21415542   4.552   4.194   9.307  0.3017  0.3637  0.0817
  142SAPE  H14R15543   4.554   4.288   9.364  1.4647  0.9546 -0.9091
  142SAPE  C21515544   4.607   4.197   9.184 -0.1243 -0.4739  0.1340
  142SAPE  H15R15545   4.656   4.292   9.161  0.0683 -0.6739 -0.3057
  142SAPE  C21615546   4.621   4.087   9.088  0.2180 -0.4591 -0.2993
  142SAPE  H16R15547   4.537   4.014   9.086  0.5480 -0.8218 -2.0339
  142SAPE  H16S15548   4.706   4.028   9.127  1.3069  0.5985 -1.0516
  142SAPE  C21715549   4.642   4.140   8.947  0.0167  0.2104 -0.1803
  142SAPE  H17R15550   4.744   4.182   8.942 -0.8208  2.1922 -1.3218
  142SAPE  H17S15551   4.562   4.212   8.918 -0.7808 -0.8753 -0.7182
  142SAPE  C21815552   4.638   4.032   8.835  0.0669 -0.7034  0.7254
  142SAPE  H18R15553   4.673   3.934   8.876 -0.2410 -0.7240  0.9356
  142SAPE  H18S15554   4.715   4.057   8.759  0.4620  0.2558  1.4233
  142SAPE  C21915555   4.508   4.007   8.762 -0.1988 -0.2156  0.3700
  142SAPE  H19R15556   4.493   4.107   8.716  1.7251  0.3888  0.9915
  142SAPE  H19S15557   4.431   3.998   8.842  1.0116 -0.0639  1.5759
  142SAPE  C22015558   4.522   3.892   8.660  0.1105 -0.2590  0.2373
  142SAPE  H20R15559   4.588   3.941   8.586  0.4094 -1.4400 -0.2814
  142SAPE  H20S15560   4.425   3.858   8.618 -0.8455  0.6706  1.6111
  142SAPE  H20T15561   4.576   3.801   8.693 -2.5675 -1.3343  1.8374
  142SAPE   C3315562   4.797   4.224  10.387  0.9949  0.2407 -0.1090
  142SAPE   H3X15563   4.778   4.142  10.459  0.2489  0.6960  0.2229
  142SAPE   H3Y15564   4.855   4.299  10.445 -0.1047 -0.4470  1.9162
  142SAPE   C3415565   4.878   4.187  10.273  0.4914  0.3759 -0.2875
  142SAPE   H4X15566   4.979   4.229  10.288  0.0752  1.3595 -0.2155
  142SAPE   H4Y15567   4.852   4.241  10.179  2.3628  0.9449 -0.4884
  142SAPE   C3515568   4.893   4.032  10.254  0.0013  0.1805  1.0224
  142SAPE   H5X15569   4.792   3.986  10.254 -0.0595  0.3113  0.6967
  142SAPE   H5Y15570   4.944   3.988  10.342  0.4999 -1.0374  0.1303
  142SAPE   C3615571   4.971   3.988  10.126  0.0821  0.4084  0.6414
  142SAPE   H6X15572   4.903   4.018  10.043  0.6930 -2.9278 -1.1580
  142SAPE   H6Y15573   4.994   3.880  10.124  1.2873  0.6765 -2.1610
  142SAPE   C3715574   5.107   4.041  10.112 -0.2429 -0.5169 -0.3708
  142SAPE   H7X15575   5.166   4.030  10.205  1.2382 -0.1366 -1.2621
  142SAPE   H7Y15576   5.097   4.151  10.095 -1.0775 -0.4978  0.1642
  142SAPE   C3815577   5.191   3.975   9.997  0.3397  0.4102  0.0877
  142SAPE   H8X15578   5.182   3.865  10.013 -1.6119  0.4299 -0.7887
  142SAPE   H8Y15579   5.291   4.021  10.012  0.1915 -0.1680  3.3177
  142SAPE   C3915580   5.140   4.012   9.862 -0.3341  0.6392  0.0119
  142SAPE   H9X15581   5.038   3.970   9.850 -0.0219 -0.2021  0.3390
  142SAPE   H9Y15582   5.195   3.957   9.783 -1.6298  0.8100 -1.0288
  142SAPE  C31015583   5.146   4.163   9.827  0.8723  0.2915  0.3664
  142SAPE  H10X15584   5.233   4.216   9.871  0.0251  1.7359  0.3165
  142SAPE  H10Y15585   5.046   4.202   9.853  0.7360 -0.5523  1.1383
  142SAPE  C31115586   5.160   4.183   9.672  0.3045 -0.7671  0.4182
  142SAPE  H11X15587   5.249   4.133   9.629 -3.0262 -2.7781 -4.6326
  142SAPE  H11Y15588   5.154   4.293   9.656  1.0747 -0.8988 -0.8673
  142SAPE  C31215589   5.040   4.126   9.591 -0.4845 -0.2151  0.1196
  142SAPE  H12X15590   4.946   4.144   9.647 -0.4281 -3.2185  1.2551
  142SAPE  H12Y15591   5.065   4.019   9.572 -0.6942 -0.6923  2.4397
  142SAPE  C31315592   5.041   4.184   9.447  0.5221 -0.2409 -0.8013
  142SAPE  H13X15593   5.143   4.171   9.406 -0.1543 -1.5010 -2.1177
  142SAPE  H13Y15594   5.031   4.295   9.453  1.9996 -0.0445 -1.7972
  142SAPE  C31415595   4.949   4.117   9.341 -0.0819 -0.0308  0.9305
  142SAPE  H14X15596   4.846   4.126   9.381 -0.7965  0.4143 -0.9873
  142SAPE  H14Y15597   4.962   4.010   9.316  0.2924 -0.4021  2.6153
  142SAPE  C31515598   4.973   4.182   9.203 -0.3290 -0.4487 -0.5251
  142SAPE  H15X15599   4.988   4.290   9.223  0.3804 -1.0941  2.7483
  142SAPE  H15Y15600   4.891   4.166   9.130 -0.9603  2.1327 -0.4199
  142SAPE  C31615601   5.096   4.132   9.133 -0.1149  0.2267  0.1976
  142SAPE  H16X15602   5.091   4.021   9.130  0.2817  0.2127  0.0519
  142SAPE  H16Y15603   5.187   4.168   9.186  0.8185 -0.0470 -1.1941
  142SAPE  C31715604   5.104   4.189   8.995  0.0585  0.3453  0.0393
  142SAPE  H17X15605   5.083   4.298   8.993  0.3299  0.4719  2.5386
  142SAPE  H17Y15606   5.031   4.127   8.939  0.0488  1.2589 -0.9990
  142SAPE  C31815607   5.246   4.173   8.936  0.0984 -0.0507  0.9911
  142SAPE  H18X15608   5.329   4.219   8.994  1.2600  2.4520 -2.5075
  142SAPE  H18Y15609   5.249   4.227   8.840 -1.3453  1.0741  1.5599
  142SAPE  H18Z15610   5.264   4.067   8.908 -1.5043  0.2231 -1.1903
  143SAPE     N15611   6.270   5.146  11.097  0.4771  0.4627 -0.0868
  143SAPE   HN115612   6.220   5.234  11.071 -1.4788 -0.1307  1.5633
  143SAPE   HN215613   6.372   5.149  11.076  0.2176  0.7476 -1.3801
  143SAPE   HN315614   6.228   5.071  11.039  1.9138  0.1769 -0.8037
  143SAPE   C1215615   6.250   5.104  11.242  0.3573  0.7157  0.7006
  143SAPE  H12A15616   6.192   5.177  11.304 -1.7110 -0.4052  0.1405
  143SAPE  H12B15617   6.349   5.080  11.286  1.0614  1.5676 -0.3789
  143SAPE   C1115618   6.167   4.967  11.246  0.0919 -0.0345  0.7206
  143SAPE  H11A15619   6.069   4.973  11.194  0.8936  1.3467 -0.6983
  143SAPE  H11B15620   6.152   4.946  11.354 -0.7641 -0.3765  0.5387
  143SAPE     P15621   6.184   4.730  11.128 -0.0806 -0.0950 -0.1900
  143SAPE   O1315622   6.299   4.643  11.090  0.2840 -0.1074  0.3452
  143SAPE   O1415623   6.094   4.669  11.226 -0.2140  0.6729  0.0819
  143SAPE   O1215624   6.240   4.865  11.179  0.4159 -0.3947 -0.3517
  143SAPE   O1115625   6.105   4.760  10.996  0.0075 -0.1937 -0.9252
  143SAPE    C115626   6.037   4.652  10.942  0.2890  0.3863  0.3845
  143SAPE    HA15627   6.009   4.565  11.005  0.9288 -0.7612 -0.8760
  143SAPE    HB15628   5.935   4.673  10.903 -0.6973 -3.3415  0.7491
  143SAPE    C215629   6.117   4.582  10.831 -0.6054 -0.5632  0.1845
  143SAPE    HS15630   6.203   4.527  10.874  1.2380  2.2149  0.2178
  143SAPE   O2115631   6.153   4.674  10.725 -0.3370  0.1302 -0.1875
  143SAPE   C2115632   6.264   4.646  10.657  0.3414  0.4192  0.0557
  143SAPE   O2215633   6.344   4.564  10.688 -0.0928  0.1416 -0.3504
  143SAPE   C2215634   6.262   4.739  10.534 -0.4929 -0.0230 -0.1870
  143SAPE   H2R15635   6.172   4.803  10.547 -1.4823 -1.5226  0.3991
  143SAPE   H2S15636   6.349   4.805  10.556  1.9513 -3.7078  1.6829
  143SAPE    C315637   6.016   4.478  10.768  0.0023  0.5686  0.5563
  143SAPE    HX15638   5.937   4.536  10.716 -0.2945 -1.3122 -1.1702
  143SAPE    HY15639   5.977   4.416  10.852 -2.3266 -0.6395 -1.3809
  143SAPE   O3115640   6.075   4.397  10.662  0.8051 -0.2143 -0.0022
  143SAPE   C3115641   6.127   4.286  10.701 -0.0175 -0.3293  0.1718
  143SAPE   O3215642   6.116   4.245  10.819  0.3038 -0.1111  0.2609
  143SAPE   C3215643   6.207   4.221  10.582 -0.2219 -0.2232 -0.7400
  143SAPE   H2X15644   6.251   4.127  10.622  1.5913  0.1108 -1.9108
  143SAPE   H2Y15645   6.289   4.287  10.547 -0.6489  1.9033  2.0909
  143SAPE   C2315646   6.259   4.661  10.408 -1.0670 -0.1393  0.3297
  143SAPE   H3R15647   6.166   4.698  10.360  0.4466  1.4464 -1.4505
  143SAPE   H3S15648   6.237   4.554  10.430  1.0665 -0.8878 -1.1012
  143SAPE   C2415649   6.388   4.664  10.325  0.8153 -0.1617 -0.3023
  143SAPE   H4R15650   6.375   4.585  10.248  2.5845 -0.0811 -0.6906
  143SAPE   H4S15651   6.477   4.620  10.374  2.2204  2.5723 -0.3117
  143SAPE   C2515652   6.415   4.797  10.258  0.0684 -0.2857  0.1343
  143SAPE   H5R15653   6.474   4.863  10.324 -0.3851  1.0157 -0.7298
  143SAPE   C2615654   6.371   4.829  10.132 -0.3447  0.5491  0.2892
  143SAPE   H6R15655   6.405   4.919  10.079  0.5143  0.5881  0.9029
  143SAPE   C2715656   6.291   4.743  10.043  0.6476  1.3572  1.0864
  143SAPE   H7R15657   6.186   4.732  10.080 -0.0771  0.3286 -1.1784
  143SAPE   H7S15658   6.321   4.636  10.047  0.0295  1.1550  0.4562
  143SAPE   C2815659   6.296   4.791   9.897  0.4678 -1.1437 -0.0393
  143SAPE   H8R15660   6.226   4.873   9.873  1.6204 -0.0548  0.3043
  143SAPE   C2915661   6.372   4.735   9.797  0.1491 -0.1581  0.5255
  143SAPE   H9R15662   6.364   4.770   9.694  2.7366 -0.3440  0.2098
  143SAPE  C21015663   6.471   4.623   9.811  0.4416  0.3266 -0.1484
  143SAPE  H10R15664   6.526   4.640   9.905 -2.1127 -1.9873  1.8459
  143SAPE  H10S15665   6.538   4.630   9.723 -2.0693  0.8563 -2.0941
  143SAPE  C21115666   6.410   4.480   9.816  0.2916  0.4675 -0.1327
  143SAPE  H11R15667   6.315   4.475   9.871  0.4453 -1.3279 -0.0177
  143SAPE  C21215668   6.462   4.379   9.750 -0.4937  0.4748 -0.3831
  143SAPE  H12R15669   6.431   4.274   9.762 -1.9574  1.0582  1.0041
  143SAPE  C21315670   6.588   4.385   9.668 -0.1987 -0.3719  0.0923
  143SAPE  H13R15671   6.650   4.294   9.681  3.0726  1.5380 -1.4937
  143SAPE  H13S15672   6.661   4.446   9.723 -3.3032  3.6362 -0.0025
  143SAPE  C21415673   6.563   4.415   9.526  0.2437  0.3234 -0.0829
  143SAPE  H14R15674   6.491   4.351   9.473  3.5817 -4.1084  0.4070
  143SAPE  C21515675   6.615   4.504   9.444  0.9335  0.1762 -0.1590
  143SAPE  H15R15676   6.581   4.515   9.340  4.1711 -0.6448 -1.3885
  143SAPE  C21615677   6.720   4.605   9.485 -0.3636 -0.1872  0.4098
  143SAPE  H16R15678   6.725   4.623   9.595  1.4802  0.4801  0.2271
  143SAPE  H16S15679   6.693   4.701   9.435 -1.1876 -1.0165 -0.7645
  143SAPE  C21715680   6.860   4.557   9.440 -0.4134  0.7417 -0.1671
  143SAPE  H17R15681   6.884   4.467   9.502  2.1607  0.9692 -0.7963
  143SAPE  H17S15682   6.929   4.642   9.455  0.1864 -0.2045  3.0211
  143SAPE  C21815683   6.861   4.520   9.292 -0.2854  0.2243 -0.2316
  143SAPE  H18R15684   6.823   4.612   9.242 -0.0427  0.9119  0.8140
  143SAPE  H18S15685   6.799   4.431   9.269  0.9295 -0.2399 -1.7451
  143SAPE  C21915686   7.007   4.497   9.252 -0.4277  0.6545 -0.2373
  143SAPE  H19R15687   7.043   4.412   9.312 -0.6611  2.7512  2.9682
  143SAPE  H19S15688   7.067   4.585   9.283  2.9037 -2.2879  2.0417
  143SAPE  C22015689   7.028   4.463   9.102 -0.4654 -0.2962 -0.3372
  143SAPE  H20R15690   7.133   4.433   9.079 -0.4821 -0.9817  0.4831
  143SAPE  H20S15691   7.008   4.553   9.040  1.2103  0.2893 -0.0584
  143SAPE  H20T15692   6.965   4.377   9.073 -0.4043 -0.5219  0.1923
  143SAPE   C3315693   6.118   4.192  10.462 -0.2654 -0.6578  0.0992
  143SAPE   H3X15694   6.047   4.275  10.444 -0.4465 -0.3105  2.3074
  143SAPE   H3Y15695   6.061   4.097  10.474  0.4185 -1.1654 -0.5421
  143SAPE   C3415696   6.202   4.188  10.332  0.0837  0.1030 -0.3993
  143SAPE   H4X15697   6.292   4.124  10.337 -0.1187 -0.0529  2.1516
  143SAPE   H4Y15698   6.237   4.292  10.316 -2.1356  0.7665 -1.1030
  143SAPE   C3515699   6.112   4.163  10.216  0.0254  0.0772 -0.5559
  143SAPE   H5X15700   6.035   4.243  10.213  2.6124  2.6294 -0.3402
  143SAPE   H5Y15701   6.051   4.071  10.235  1.7486 -1.2250 -1.2030
  143SAPE   C3615702   6.180   4.163  10.080 -0.3028  1.0141 -0.6213
  143SAPE   H6X15703   6.246   4.075  10.079 -0.8948  0.5752 -1.4388
  143SAPE   H6Y15704   6.234   4.259  10.066 -1.3539  1.7126 -0.0172
  143SAPE   C3715705   6.077   4.156   9.970  0.7748 -0.2983 -0.0508
  143SAPE   H7X15706   6.006   4.238   9.995 -0.0859 -1.8893  2.9361
  143SAPE   H7Y15707   6.025   4.059   9.984  0.8203  0.0734  3.2505
  143SAPE   C3815708   6.135   4.179   9.827 -0.1895 -0.3019 -0.0982
  143SAPE   H8X15709   6.221   4.111   9.808  1.1534  1.9510 -2.3018
  143SAPE   H8Y15710   6.180   4.278   9.802 -0.7656 -0.1615 -0.5809
  143SAPE   C3915711   6.019   4.148   9.728  0.5620 -0.3022  0.0731
  143SAPE   H9X15712   5.930   4.212   9.746 -1.1852 -2.1743 -1.7054
  143SAPE   H9Y15713   5.982   4.048   9.757 -2.5446  0.2516 -1.7719
  143SAPE  C31015714   6.061   4.146   9.586  0.2390  0.4465  0.1518
  143SAPE  H10X15715   5.983   4.092   9.527 -2.5480  2.1791  2.1226
  143SAPE  H10Y15716   6.160   4.101   9.564 -0.1989  0.3433 -1.6970
  143SAPE  C31115717   6.042   4.282   9.516 -0.1475  0.3953  0.2841
  143SAPE  H11X15718   6.106   4.361   9.561  0.3865  1.1071 -1.7121
  143SAPE  H11Y15719   5.940   4.318   9.538  0.9603  2.6468  1.8926
  143SAPE  C31215720   6.076   4.297   9.363  0.5955  0.1933 -0.0727
  143SAPE  H12X15721   6.005   4.371   9.319 -0.2726 -0.4215  0.2852
  143SAPE  H12Y15722   6.074   4.203   9.304  0.4113 -0.0893  0.3918
  143SAPE  C31315723   6.216   4.345   9.329  0.5142 -0.3630  0.4138
  143SAPE  H13X15724   6.294   4.277   9.368 -0.0588 -0.5298  1.2923
  143SAPE  H13Y15725   6.225   4.446   9.374  2.1636 -0.6499  0.7712
  143SAPE  C31415726   6.238   4.357   9.176  0.9524  0.3930  0.3177
  143SAPE  H14X15727   6.190   4.453   9.148  0.2205 -0.0658 -0.0015
  143SAPE  H14Y15728   6.180   4.282   9.119  1.1747 -1.5613  2.5810
  143SAPE  C31515729   6.385   4.372   9.120  0.6284  0.0540  0.1587
  143SAPE  H15X15730   6.442   4.294   9.175  0.3814 -1.1675 -1.2848
  143SAPE  H15Y15731   6.413   4.475   9.151 -2.3297  1.1391 -0.6266
  143SAPE  C31615732   6.388   4.346   8.969  0.1270  0.0133 -0.6771
  143SAPE  H16X15733   6.294   4.378   8.919  0.3721  2.1814  0.1966
  143SAPE  H16Y15734   6.377   4.235   8.968 -1.5501  0.1639 -2.8266
  143SAPE  C31715735   6.517   4.401   8.895  0.1338 -0.3118 -0.0333
  143SAPE  H17X15736   6.518   4.511   8.904 -0.3809 -0.1723 -1.5832
  143SAPE  H17Y15737   6.513   4.368   8.789  1.7029  2.2666 -0.9384
  143SAPE  C31815738   6.658   4.365   8.953 -0.1633 -0.3348 -0.2228
  143SAPE  H18X15739   6.730   4.439   8.910  2.0597 -2.4055 -0.1512
  143SAPE  H18Y15740   6.679   4.260   8.923 -0.5667 -0.9858  1.7155
  143SAPE  H18Z15741   6.651   4.368   9.064 -1.2224  0.0738 -0.3006
  144SAPE     N15742   2.855   2.438  10.806 -0.4670  0.2898  0.2554
  144SAPE   HN115743   2.829   2.352  10.858 -3.8761 -0.3537 -2.3320
  144SAPE   HN215744   2.775   2.432  10.740 -1.1459  2.3039  0.8726
  144SAPE   HN315745   2.946   2.410  10.763 -0.8111 -1.0289  0.3581
  144SAPE   C1215746   2.855   2.562  10.897 -0.2124 -0.4767  0.0670
  144SAPE  H12A15747   2.922   2.548  10.985  3.3087 -1.1998 -2.6554
  144SAPE  H12B15748   2.751   2.580  10.934  0.2918 -0.5638  1.5772
  144SAPE   C1115749   2.910   2.677  10.824 -0.0238 -0.8429 -0.2153
  144SAPE  H11A15750   2.856   2.696  10.728 -1.2757  3.2057  1.2161
  144SAPE  H11B15751   3.011   2.652  10.783 -0.5317  0.7553 -2.5433
  144SAPE     P15752   2.808   2.915  10.882  0.0238  0.1852 -0.0302
  144SAPE   O1315753   2.669   2.889  10.929  0.1599  0.5114 -0.0954
  144SAPE   O1415754   2.871   3.035  10.949  0.0951  0.1814  0.5769
  144SAPE   O1215755   2.901   2.791  10.914 -0.5397  0.7781 -0.2393
  144SAPE   O1115756   2.813   2.933  10.722  0.2095  0.6262 -0.1005
  144SAPE    C115757   2.705   2.984  10.645  0.1031  0.5172 -0.0506
  144SAPE    HA15758   2.618   3.026  10.700  1.3878  1.3340  1.4006
  144SAPE    HB15759   2.740   3.067  10.581  0.2980 -0.3374 -1.0637
  144SAPE    C215760   2.637   2.882  10.553 -0.0435 -0.1902 -0.5092
  144SAPE    HS15761   2.596   2.804  10.621  2.8896 -1.0645  0.2990
  144SAPE   O2115762   2.729   2.837  10.455  0.0847  0.0755 -0.5719
  144SAPE   C2115763   2.775   2.907  10.354  0.3409  0.7529 -0.0213
  144SAPE   O2215764   2.746   3.024  10.333  0.2915  0.3971  0.2987
  144SAPE   C2215765   2.863   2.823  10.265  0.1599 -0.0150  0.0586
  144SAPE   H2R15766   2.944   2.886  10.221  0.6656  0.7494  2.0259
  144SAPE   H2S15767   2.906   2.747  10.334  0.5216 -0.1065 -0.2670
  144SAPE    C315768   2.504   2.933  10.477  0.2003  0.2953 -0.2016
  144SAPE    HX15769   2.527   3.034  10.437 -0.2620 -0.5704 -2.7163
  144SAPE    HY15770   2.426   2.951  10.554  0.8739  0.6635  0.4040
  144SAPE   O3115771   2.459   2.856  10.366  0.7533 -0.9335  0.2986
  144SAPE   C3115772   2.390   2.749  10.402 -0.6444 -0.7259 -0.0483
  144SAPE   O3215773   2.353   2.726  10.517  0.7599 -0.4445 -0.0045
  144SAPE   C3215774   2.331   2.680  10.282 -0.2103  0.8512  0.2204
  144SAPE   H2X15775   2.233   2.642  10.316 -0.6564  2.0886  0.3240
  144SAPE   H2Y15776   2.397   2.596  10.251  0.7849  0.5258  3.0289
  144SAPE   C2315777   2.778   2.740  10.163  0.3219  0.5003  0.3708
  144SAPE   H3R15778   2.697   2.698  10.225  1.0752 -0.2495  0.8542
  144SAPE   H3S15779   2.838   2.654  10.128 -1.9618 -1.2562  0.6937
  144SAPE   C2415780   2.736   2.823  10.041 -0.4827  0.4884  0.0657
  144SAPE   H4R15781   2.827   2.875  10.006  0.0928  0.8503  2.0135
  144SAPE   H4S15782   2.675   2.910  10.075  0.6703  1.2115  0.2995
  144SAPE   C2515783   2.667   2.733   9.943 -0.2487  0.4616  0.2136
  144SAPE   H5R15784   2.579   2.677   9.979  0.4008 -1.3929 -1.0283
  144SAPE   C2615785   2.702   2.719   9.809  0.1082  0.3540 -0.5128
  144SAPE   H6R15786   2.675   2.625   9.759  0.8152 -1.3254  2.1785
  144SAPE   C2715787   2.811   2.799   9.740  0.3416 -0.1912  0.2678
  144SAPE   H7R15788   2.872   2.721   9.689 -0.3588 -1.2524  1.0227
  144SAPE   H7S15789   2.873   2.853   9.815 -0.5052  1.1583  0.0092
  144SAPE   C2815790   2.751   2.901   9.651  0.4383  0.1867 -0.0621
  144SAPE   H8R15791   2.664   2.954   9.693 -0.6234 -0.5926 -1.2214
  144SAPE   C2915792   2.781   2.925   9.523  0.0832 -0.0269  0.3144
  144SAPE   H9R15793   2.730   3.006   9.469  0.3796 -0.5930 -0.8146
  144SAPE  C21015794   2.884   2.849   9.440  0.1380  0.2312 -0.3090
  144SAPE  H10R15795   2.921   2.767   9.506 -0.9219  0.0854  0.1134
  144SAPE  H10S15796   2.977   2.909   9.437 -0.0482  0.5783  0.7195
  144SAPE  C21115797   2.858   2.804   9.300  0.3813 -0.2542  0.5030
  144SAPE  H11R15798   2.846   2.695   9.293  0.5128 -0.1431 -1.7722
  144SAPE  C21215799   2.829   2.870   9.185  0.1282  0.5114  0.6684
  144SAPE  H12R15800   2.820   2.809   9.094 -0.3866  1.1288  0.3098
  144SAPE  C21315801   2.828   3.022   9.163  0.9096  0.1410 -0.3513
  144SAPE  H13R15802   2.896   3.055   9.082  0.8967  1.8208  0.3003
  144SAPE  H13S15803   2.866   3.080   9.249 -3.8224  0.5607  1.6409
  144SAPE  C21415804   2.688   3.069   9.135 -0.3143 -0.0498  0.1225
  144SAPE  H14R15805   2.606   3.026   9.195 -0.2243  1.2123  1.1613
  144SAPE  C21515806   2.662   3.147   9.029 -0.1832 -0.0110 -0.1311
  144SAPE  H15R15807   2.559   3.177   9.005 -0.5294 -1.5731 -0.6483
  144SAPE  C21615808   2.757   3.198   8.919 -0.0273  0.0528 -0.8953
  144SAPE  H16R15809   2.859   3.210   8.962 -0.2333 -0.9490 -0.1161
  144SAPE  H16S15810   2.723   3.301   8.895 -2.1841 -0.7310 -1.2954
  144SAPE  C21715811   2.766   3.109   8.791  0.2466 -0.4380  0.6099
  144SAPE  H17R15812   2.673   3.049   8.785  0.0914 -0.0413 -1.4719
  144SAPE  H17S15813   2.856   3.046   8.810 -0.1094 -1.0135  0.3900
  144SAPE  C21815814   2.795   3.198   8.673  0.4794 -0.2483 -0.4461
  144SAPE  H18R15815   2.890   3.254   8.688  1.1238 -1.4876  0.1979
  144SAPE  H18S15816   2.718   3.278   8.681  1.1900  0.4795 -0.7350
  144SAPE  C21915817   2.784   3.141   8.532 -0.1171  0.3921  0.2111
  144SAPE  H19R15818   2.678   3.111   8.520 -0.3266  1.2485 -0.1322
  144SAPE  H19S15819   2.848   3.050   8.526 -2.9280 -1.4880 -3.6934
  144SAPE  C22015820   2.826   3.231   8.414 -0.1462  0.0992 -0.1333
  144SAPE  H20R15821   2.775   3.202   8.320  2.9893 -1.8445 -1.3129
  144SAPE  H20S15822   2.929   3.202   8.384  0.9797  1.1932  2.4711
  144SAPE  H20T15823   2.825   3.339   8.437  0.2838  0.0795 -0.0207
  144SAPE   C3315824   2.296   2.762  10.164 -0.4919 -0.5639  0.6502
  144SAPE   H3X15825   2.380   2.762  10.092 -2.1914  4.3847 -1.5821
  144SAPE   H3Y15826   2.285   2.870  10.190  2.3716 -0.7255  2.7540
  144SAPE   C3415827   2.160   2.737  10.097  0.4085  0.3204 -0.7962
  144SAPE   H4X15828   2.079   2.770  10.166  1.2593  0.8527 -0.0378
  144SAPE   H4Y15829   2.136   2.629  10.084  2.2560 -0.2279  0.1316
  144SAPE   C3515830   2.155   2.805   9.960 -0.4187  0.1367 -0.3694
  144SAPE   H5X15831   2.226   2.764   9.885  1.6637  2.8492  0.0466
  144SAPE   H5Y15832   2.187   2.911   9.973  0.2185 -0.1595  0.5112
  144SAPE   C3615833   2.017   2.808   9.897 -0.0104 -0.4897 -0.4324
  144SAPE   H6X15834   1.942   2.862   9.959 -1.2149 -2.4648 -0.1515
  144SAPE   H6Y15835   1.983   2.702   9.896 -1.7910 -0.1216  4.2137
  144SAPE   C3715836   2.015   2.856   9.752 -0.1628 -0.2080  0.2153
  144SAPE   H7X15837   2.124   2.872   9.734 -0.1727 -0.8642 -0.4260
  144SAPE   H7Y15838   1.950   2.947   9.750  1.7117  1.1560 -1.7805
  144SAPE   C3815839   1.969   2.754   9.649 -0.5481  0.4011 -0.4567
  144SAPE   H8X15840   1.860   2.735   9.655 -0.3866 -0.7841 -1.0267
  144SAPE   H8Y15841   2.019   2.657   9.671 -0.4924  0.0163 -2.2389
  144SAPE   C3915842   2.001   2.787   9.502  0.2851  0.3301  0.8037
  144SAPE   H9X15843   2.109   2.782   9.478  0.0174 -0.2962 -0.2660
  144SAPE   H9Y15844   1.977   2.895   9.488 -1.2185  0.3566  3.2947
  144SAPE  C31015845   1.921   2.709   9.399  0.5418  0.2272 -0.0113
  144SAPE  H10X15846   1.817   2.691   9.435  0.3817 -0.2396 -0.7051
  144SAPE  H10Y15847   1.969   2.609   9.392  1.1962  0.5527 -0.2258
  144SAPE  C31115848   1.944   2.765   9.257 -0.5412  0.1329  0.4937
  144SAPE  H11X15849   2.049   2.764   9.223 -0.5696  0.2338  0.4063
  144SAPE  H11Y15850   1.902   2.867   9.252 -0.0941  0.3363  0.8909
  144SAPE  C31215851   1.861   2.685   9.160  0.1993  0.6356 -0.0876
  144SAPE  H12X15852   1.769   2.642   9.205  0.2275  0.5756 -0.0855
  144SAPE  H12Y15853   1.906   2.589   9.124 -4.1529 -0.9336 -1.6973
  144SAPE  C31315854   1.830   2.765   9.026  0.3354  0.1540  0.3636
  144SAPE  H13X15855   1.777   2.861   9.046  0.9788  0.1835  2.0110
  144SAPE  H13Y15856   1.775   2.697   8.959  0.6006  1.0759 -0.8071
  144SAPE  C31415857   1.960   2.802   8.947 -0.5179 -0.2852 -0.3495
  144SAPE  H14X15858   1.999   2.901   8.978 -1.1869 -0.8537  2.4262
  144SAPE  H14Y15859   1.926   2.826   8.844 -0.7862  0.8353 -0.0056
  144SAPE  C31515860   2.071   2.699   8.937  0.2150 -0.6754 -0.1950
  144SAPE  H15X15861   2.029   2.597   8.949 -1.9460  0.1752 -0.2584
  144SAPE  H15Y15862   2.150   2.715   9.014  0.9128  0.1829 -1.0747
  144SAPE  C31615863   2.131   2.686   8.800  0.7525  0.6554 -0.2134
  144SAPE  H16X15864   2.241   2.687   8.810  0.6036 -0.9645  1.9584
  144SAPE  H16Y15865   2.110   2.778   8.742 -2.0665 -0.7364 -1.5394
  144SAPE  C31715866   2.079   2.560   8.721  0.5602  0.0473  0.4682
  144SAPE  H17X15867   1.968   2.566   8.714  0.6181  0.8350  0.1357
  144SAPE  H17Y15868   2.099   2.468   8.781 -0.1692  0.5500  1.4952
  144SAPE  C31815869   2.143   2.544   8.588 -0.5097 -0.2589 -0.0383
  144SAPE  H18X15870   2.110   2.459   8.524  2.1491 -0.8080 -0.7698
  144SAPE  H18Y15871   2.253   2.539   8.603 -0.4931 -1.4146 -0.4531
  144SAPE  H18Z15872   2.127   2.634   8.525 -2.2670  0.8633  1.9628
  145SAPE     N15873   6.346   4.437  11.281 -0.1084  0.4660  0.8953
  145SAPE   HN115874   6.329   4.529  11.235 -1.3554  0.0019  0.4151
  145SAPE   HN215875   6.275   4.413  11.352 -2.4159  0.4426 -1.3620
  145SAPE   HN315876   6.436   4.446  11.333 -0.8283  2.1319  1.8773
  145SAPE   C1215877   6.360   4.318  11.197  0.3914  0.0700 -0.0706
  145SAPE  H12A15878   6.427   4.246  11.247 -1.2322  0.3243  2.5485
  145SAPE  H12B15879   6.401   4.356  11.101 -2.3784 -0.1764 -1.4231
  145SAPE   C1115880   6.221   4.260  11.156 -0.5473 -0.1816 -0.5101
  145SAPE  H11A15881   6.233   4.183  11.078  1.9387  0.7045 -1.0409
  145SAPE  H11B15882   6.145   4.333  11.119 -2.2770 -1.1952  0.9661
  145SAPE     P15883   6.144   4.059  11.302  0.2513 -0.2908  0.0170
  145SAPE   O1315884   6.275   3.998  11.333  0.1125 -0.1051  0.0684
  145SAPE   O1415885   6.045   4.042  11.405 -0.1576  0.0731  0.5527
  145SAPE   O1215886   6.158   4.210  11.277  0.0130  0.1627  0.1301
  145SAPE   O1115887   6.091   4.020  11.160 -0.3961  0.0332 -0.0145
  145SAPE    C115888   6.087   3.891  11.109 -0.4969  0.5132 -0.4704
  145SAPE    HA15889   6.026   3.821  11.170  1.4242 -0.8205 -0.0468
  145SAPE    HB15890   6.032   3.906  11.013 -2.7837 -1.4488  0.4799
  145SAPE    C215891   6.231   3.838  11.065  0.5932  0.1840 -0.2429
  145SAPE    HS15892   6.295   3.823  11.155 -0.5688 -3.5019  0.0490
  145SAPE   O2115893   6.285   3.943  10.983  0.4411  0.0232 -0.6973
  145SAPE   C2115894   6.416   3.923  10.963  0.8538 -0.8137 -0.5897
  145SAPE   O2215895   6.480   3.834  11.016 -0.7688 -0.3595 -0.2488
  145SAPE   C2215896   6.472   4.033  10.880 -0.6680 -0.7556  1.2043
  145SAPE   H2R15897   6.394   4.090  10.824  0.3842 -1.3384 -0.9371
  145SAPE   H2S15898   6.522   4.108  10.946 -0.5219  1.7262 -1.5902
  145SAPE    C315899   6.210   3.705  10.978  0.1244  0.5378  0.2688
  145SAPE    HX15900   6.155   3.649  11.056  0.0681  2.0121  1.3194
  145SAPE    HY15901   6.314   3.664  10.976 -0.1610 -0.3177  2.1118
  145SAPE   O3115902   6.153   3.735  10.851  0.2065 -0.1958 -1.0506
  145SAPE   C3115903   6.044   3.687  10.802  0.1920  0.4450 -0.1985
  145SAPE   O3215904   5.975   3.601  10.849 -0.2498 -0.1100  0.0180
  145SAPE   C3215905   6.007   3.762  10.669 -0.2974  0.0662 -0.2544
  145SAPE   H2X15906   6.071   3.852  10.659  0.0377  0.1228  2.1428
  145SAPE   H2Y15907   5.898   3.786  10.673  0.1349  2.1301 -0.7957
  145SAPE   C2315908   6.579   3.975  10.786  0.8585  0.0575  0.1896
  145SAPE   H3R15909   6.549   3.886  10.727 -2.2472  1.6568 -0.7547
  145SAPE   H3S15910   6.670   3.932  10.834  1.1633 -1.2061 -1.4680
  145SAPE   C2415911   6.625   4.078  10.683 -0.3653  0.0672  0.3340
  145SAPE   H4R15912   6.671   4.165  10.735  0.0384 -0.1775  0.3854
  145SAPE   H4S15913   6.530   4.114  10.637 -0.7909 -0.9058  0.4460
  145SAPE   C2515914   6.718   4.029  10.572 -0.0414  0.4488 -0.1194
  145SAPE   H5R15915   6.807   3.992  10.625 -0.1355  1.8442  1.0284
  145SAPE   C2615916   6.688   4.012  10.438  0.2076  0.0210 -0.0821
  145SAPE   H6R15917   6.766   3.977  10.369 -0.2437  1.0923 -1.1466
  145SAPE   C2715918   6.557   4.044  10.364  0.4123  0.8769  0.3193
  145SAPE   H7R15919   6.478   4.067  10.439 -1.0777  2.4100 -1.6608
  145SAPE   H7S15920   6.524   3.962  10.297  0.7920  2.1366 -1.4293
  145SAPE   C2815921   6.585   4.162  10.262  0.3057 -0.5055  0.3618
  145SAPE   H8R15922   6.613   4.255  10.314 -0.9894  0.1553 -0.1260
  145SAPE   C2915923   6.573   4.153  10.130 -0.3553  0.2882 -0.0392
  145SAPE   H9R15924   6.575   4.240  10.063  1.3519  0.3371  0.0435
  145SAPE  C21015925   6.534   4.026  10.053  0.2293 -0.3974  1.2480
  145SAPE  H10R15926   6.443   3.974  10.090 -1.2966  1.5752  0.3499
  145SAPE  H10S15927   6.615   3.952  10.070  1.0782  0.2008 -0.0770
  145SAPE  C21115928   6.519   4.035   9.901  0.1600  0.5071 -0.4398
  145SAPE  H11R15929   6.580   4.116   9.859 -1.0092  1.3533 -0.5195
  145SAPE  C21215930   6.448   3.956   9.814 -0.0043  0.7924  0.4498
  145SAPE  H12R15931   6.459   3.987   9.709 -0.7964 -0.1382  0.0950
  145SAPE  C21315932   6.366   3.833   9.857  0.2986  0.1686  0.2218
  145SAPE  H13R15933   6.261   3.860   9.835  0.0173 -0.4021  0.8767
  145SAPE  H13S15934   6.366   3.824   9.968  2.8754  1.7968  0.3994
  145SAPE  C21415935   6.412   3.701   9.794 -0.4654  0.2279 -0.1960
  145SAPE  H14R15936   6.447   3.620   9.860 -0.1948 -0.1101 -0.7526
  145SAPE  C21515937   6.392   3.675   9.663 -0.5851 -0.1213 -0.0815
  145SAPE  H15R15938   6.439   3.589   9.613 -0.0132  0.2492 -0.1832
  145SAPE  C21615939   6.324   3.765   9.564  0.2247  0.7291  0.0603
  145SAPE  H16R15940   6.266   3.851   9.604  0.4985  0.8779  0.1383
  145SAPE  H16S15941   6.252   3.694   9.519  1.7582 -0.2451 -0.8979
  145SAPE  C21715942   6.423   3.811   9.454 -0.0491  0.7367  0.5036
  145SAPE  H17R15943   6.470   3.725   9.403  0.7670  1.3014  0.2972
  145SAPE  H17S15944   6.494   3.882   9.502 -1.3224  3.9446 -2.1070
  145SAPE  C21815945   6.347   3.886   9.342 -0.2664  0.6397 -0.3540
  145SAPE  H18R15946   6.306   3.982   9.379  0.6307  1.0726 -0.4693
  145SAPE  H18S15947   6.269   3.813   9.310  1.0565  0.4201 -3.2697
  145SAPE  C21915948   6.452   3.901   9.226  0.1427  0.1291 -0.7512
  145SAPE  H19R15949   6.556   3.915   9.260  0.6652  1.2990 -2.7399
  145SAPE  H19S15950   6.421   3.982   9.156  0.8368  0.6326 -0.4748
  145SAPE  C22015951   6.451   3.775   9.141  0.1657  0.1940  0.2485
  145SAPE  H20R15952   6.520   3.790   9.055  0.1316  0.1850  0.2187
  145SAPE  H20S15953   6.355   3.752   9.091 -0.7822 -1.9450  2.9879
  145SAPE  H20T15954   6.483   3.691   9.206  1.9465 -1.1152 -2.2094
  145SAPE   C3315955   6.036   3.681  10.540 -0.0179 -0.7676  0.5628
  145SAPE   H3X15956   5.962   3.599  10.527  0.7219 -1.4911  0.9065
  145SAPE   H3Y15957   6.134   3.630  10.548 -0.2524 -1.2712  0.2233
  145SAPE   C3415958   6.045   3.772  10.414  0.2084  0.1727  0.5168
  145SAPE   H4X15959   6.126   3.847  10.426 -0.5624  0.8155  1.7902
  145SAPE   H4Y15960   5.947   3.823  10.409 -1.2063 -2.3403  1.5927
  145SAPE   C3515961   6.049   3.694  10.286  0.1398  0.7048 -0.1722
  145SAPE   H5X15962   6.010   3.590  10.286  0.2059  0.6788 -0.9941
  145SAPE   H5Y15963   6.153   3.688  10.248  1.3313  1.3469  2.8286
  145SAPE   C3615964   5.970   3.765  10.178  0.1121 -0.1430 -1.1541
  145SAPE   H6X15965   6.017   3.864  10.157 -0.2316  0.5784  1.2799
  145SAPE   H6Y15966   5.862   3.785  10.192  0.5723  0.6644  1.7387
  145SAPE   C3715967   5.969   3.690  10.049  0.3041 -0.2326  0.3865
  145SAPE   H7X15968   5.917   3.592  10.050  2.1811 -1.2677 -0.5654
  145SAPE   H7Y15969   6.076   3.664  10.032  0.2951 -0.6154  0.9077
  145SAPE   C3815970   5.914   3.752   9.928  0.5142 -0.1740  0.0324
  145SAPE   H8X15971   5.970   3.845   9.906  0.4914  0.3941  2.1989
  145SAPE   H8Y15972   5.813   3.792   9.953 -1.1472 -3.2589 -1.4438
  145SAPE   C3915973   5.902   3.664   9.806 -0.1702  0.2175  0.9419
  145SAPE   H9X15974   5.814   3.597   9.819  0.2331 -0.8792 -1.6198
  145SAPE   H9Y15975   5.985   3.594   9.785 -1.7872 -1.2342 -0.8935
  145SAPE  C31015976   5.872   3.749   9.676 -0.7996  1.0615 -1.1045
  145SAPE  H10X15977   5.937   3.839   9.688  2.5281 -1.4442  0.4513
  145SAPE  H10Y15978   5.766   3.781   9.667 -0.5716  1.6044 -1.8906
  145SAPE  C31115979   5.927   3.700   9.535 -0.5322  0.5892 -0.5282
  145SAPE  H11X15980   5.860   3.615   9.510  2.2862 -1.8611 -0.1202
  145SAPE  H11Y15981   6.033   3.665   9.539 -0.7901 -0.1435  0.0394
  145SAPE  C31215982   5.925   3.801   9.421 -0.3000  0.0925  0.1728
  145SAPE  H12X15983   6.011   3.872   9.423 -1.2729  1.3960 -2.4040
  145SAPE  H12Y15984   5.823   3.845   9.429  0.8539  3.1458 -1.0599
  145SAPE  C31315985   5.929   3.731   9.283 -0.7122 -0.1636  0.1389
  145SAPE  H13X15986   5.833   3.676   9.288 -1.2090  0.7240  0.5750
  145SAPE  H13Y15987   6.007   3.653   9.267  0.8980  1.6676 -1.3180
  145SAPE  C31415988   5.916   3.810   9.149  0.0434  0.1366 -0.4752
  145SAPE  H14X15989   5.840   3.890   9.137 -0.9157 -0.9847 -2.1208
  145SAPE  H14Y15990   5.892   3.731   9.075  2.5061 -1.6040  0.5146
  145SAPE  C31515991   6.053   3.861   9.100 -0.0981  0.4905 -0.6439
  145SAPE  H15X15992   6.125   3.776   9.101  0.3068  0.8165  2.4066
  145SAPE  H15Y15993   6.088   3.934   9.176  0.7806 -0.2901 -0.2990
  145SAPE  C31615994   6.054   3.925   8.961 -0.4420 -0.6409  0.0217
  145SAPE  H16X15995   5.965   3.989   8.939  0.6337  0.8205 -0.1330
  145SAPE  H16Y15996   6.071   3.848   8.883  2.4686 -0.0260  0.0011
  145SAPE  C31715997   6.185   4.013   8.958 -0.1179  0.5215  0.3357
  145SAPE  H17X15998   6.270   3.942   8.955  0.0558  0.7815 -2.9718
  145SAPE  H17Y15999   6.195   4.081   9.045 -1.6959 -2.2785  2.7846
  145SAPE  C31816000   6.184   4.080   8.818  0.4390  0.6433 -0.6171
  145SAPE  H18X16001   6.273   4.142   8.797 -0.3860  1.9274 -0.3917
  145SAPE  H18Y16002   6.092   4.141   8.815 -0.6969 -1.0570 -1.0493
  145SAPE  H18Z16003   6.174   4.004   8.738 -0.9485  0.0100  0.1520
  146SAPE     N16004   4.313   2.774  10.887  0.7711  0.7348  0.2518
  146SAPE   HN116005   4.335   2.735  10.981  3.3613  0.2427 -0.5178
  146SAPE   HN216006   4.404   2.820  10.866 -0.1440  0.9221 -3.6124
  146SAPE   HN316007   4.232   2.838  10.899 -0.7388 -0.4052 -3.2157
  146SAPE   C1216008   4.302   2.653  10.801 -0.2474 -0.3957 -0.8458
  146SAPE  H12A16009   4.411   2.635  10.784  0.3719  0.4642  1.9940
  146SAPE  H12B16010   4.263   2.675  10.699 -0.9130  0.4357 -0.4242
  146SAPE   C1116011   4.231   2.541  10.871  1.0229 -0.3942 -0.4364
  146SAPE  H11A16012   4.282   2.495  10.958  0.7069  0.4188  0.1883
  146SAPE  H11B16013   4.226   2.459  10.796 -0.0784  0.2498 -1.0770
  146SAPE     P16014   3.971   2.527  10.835  0.1361 -0.0509 -0.1462
  146SAPE   O1316015   3.955   2.379  10.864  0.3080  0.2823  0.0581
  146SAPE   O1416016   3.855   2.621  10.853 -0.1444 -0.4383  0.1277
  146SAPE   O1216017   4.098   2.578  10.915  0.1343  0.2773 -0.4877
  146SAPE   O1116018   4.020   2.538  10.690 -0.4307 -0.5664  0.1567
  146SAPE    C116019   3.926   2.524  10.590  0.4080 -0.2687  0.2582
  146SAPE    HA16020   3.842   2.460  10.624  0.0942  1.7181  3.3375
  146SAPE    HB16021   3.872   2.619  10.573  1.8463  0.4775 -0.2519
  146SAPE    C216022   3.982   2.464  10.453 -0.0017  0.1064  0.4626
  146SAPE    HS16023   4.050   2.382  10.483 -0.5413  0.4347  2.6982
  146SAPE   O2116024   4.037   2.573  10.386 -0.1759 -0.6214 -0.5217
  146SAPE   C2116025   4.167   2.586  10.393 -0.7796 -0.1611 -0.2455
  146SAPE   O2216026   4.243   2.509  10.448 -1.2017  0.5057  0.0928
  146SAPE   C2216027   4.222   2.708  10.325  0.5940  0.0014  0.2366
  146SAPE   H2R16028   4.141   2.755  10.265  0.0736  0.4865  1.2905
  146SAPE   H2S16029   4.243   2.785  10.403  1.0720 -0.7531  0.8566
  146SAPE    C316030   3.878   2.400  10.356  0.7168  0.3850  0.6861
  146SAPE    HX16031   3.780   2.453  10.363  0.7810  0.3336  2.0860
  146SAPE    HY16032   3.858   2.299  10.397 -0.5364 -0.7229 -2.4912
  146SAPE   O3116033   3.934   2.373  10.226 -0.2581 -0.1832 -0.0264
  146SAPE   C3116034   3.867   2.419  10.122  0.2445  0.6352  0.4358
  146SAPE   O3216035   3.779   2.498  10.118  0.1879  0.2388  0.3125
  146SAPE   C3216036   3.957   2.390  10.002 -0.2020 -0.7549 -0.6718
  146SAPE   H2X16037   3.981   2.281  10.002  0.2421 -0.6788 -2.7279
  146SAPE   H2Y16038   4.054   2.437  10.028 -1.3314  0.2225  1.9672
  146SAPE   C2316039   4.350   2.697  10.243  0.5429  0.0980  0.0681
  146SAPE   H3R16040   4.426   2.661  10.315  0.6021 -0.2657 -0.1768
  146SAPE   H3S16041   4.381   2.800  10.215 -2.4288  0.4067 -2.3766
  146SAPE   C2416042   4.326   2.601  10.125 -0.2978 -0.3986  0.3771
  146SAPE   H4R16043   4.266   2.644  10.042  1.7607 -0.7010 -1.3112
  146SAPE   H4S16044   4.268   2.515  10.164  0.0637 -0.6129  0.4472
  146SAPE   C2516045   4.469   2.556  10.081  0.2205  0.0906  0.0689
  146SAPE   H5R16046   4.534   2.525  10.165  0.6311  2.4213  0.6330
  146SAPE   C2616047   4.517   2.553   9.957  0.5317 -0.2608 -0.2120
  146SAPE   H6R16048   4.623   2.523   9.949  0.5578  0.3089 -2.3553
  146SAPE   C2716049   4.460   2.588   9.824 -0.0533  0.7661  0.1056
  146SAPE   H7R16050   4.351   2.568   9.820 -0.3716  2.0050  2.2700
  146SAPE   H7S16051   4.502   2.521   9.745  0.8870  0.2441  1.0241
  146SAPE   C2816052   4.478   2.732   9.788  0.3564  0.0509 -0.2066
  146SAPE   H8R16053   4.428   2.805   9.854  1.2938  1.3623 -0.9153
  146SAPE   C2916054   4.539   2.773   9.681 -0.2178 -0.0740 -0.2239
  146SAPE   H9R16055   4.562   2.880   9.666  0.2307 -0.1815 -0.3132
  146SAPE  C21016056   4.593   2.689   9.563 -0.7458  0.4360  0.0211
  146SAPE  H10R16057   4.510   2.618   9.544 -1.4425  1.9777 -3.0429
  146SAPE  H10S16058   4.680   2.624   9.582 -0.4007  0.8323 -0.1962
  146SAPE  C21116059   4.605   2.776   9.433  0.3356  0.2004 -0.2452
  146SAPE  H11R16060   4.703   2.813   9.399  0.1980  1.1427  0.3725
  146SAPE  C21216061   4.504   2.795   9.344 -0.1408  0.1655  0.6823
  146SAPE  H12R16062   4.534   2.843   9.250  0.5128  1.4255  1.5221
  146SAPE  C21316063   4.361   2.757   9.364  0.1331  0.3099 -0.2911
  146SAPE  H13R16064   4.298   2.846   9.344  0.8381  1.1379  1.0139
  146SAPE  H13S16065   4.337   2.724   9.468  3.3389  0.3739  0.5253
  146SAPE  C21416066   4.334   2.643   9.264 -0.4945  1.0437  0.5075
  146SAPE  H14R16067   4.393   2.552   9.283  0.4022  1.9746  2.2801
  146SAPE  C21516068   4.253   2.648   9.154 -0.3050 -0.2589  0.6379
  146SAPE  H15R16069   4.244   2.559   9.090  0.2851 -1.8861  2.7419
  146SAPE  C21616070   4.158   2.757   9.104 -0.1109 -0.3789 -0.0959
  146SAPE  H16R16071   4.115   2.830   9.176 -1.3259  1.1221 -2.2818
  146SAPE  H16S16072   4.069   2.707   9.061  0.0548 -0.6353 -0.1424
  146SAPE  C21716073   4.235   2.828   8.986  0.0406  0.1500  1.0149
  146SAPE  H17R16074   4.335   2.845   9.032 -0.2305  0.3054  1.5606
  146SAPE  H17S16075   4.189   2.928   8.967 -1.6367 -0.5720  1.1829
  146SAPE  C21816076   4.245   2.731   8.864 -0.1177 -0.7494  0.1940
  146SAPE  H18R16077   4.269   2.628   8.898 -0.0965 -0.4963  0.9679
  146SAPE  H18S16078   4.333   2.761   8.803  0.2914  0.2839  1.2578
  146SAPE  C21916079   4.121   2.708   8.772 -0.0900 -0.1047  0.1030
  146SAPE  H19R16080   4.032   2.709   8.838 -0.9075 -1.4342 -0.9439
  146SAPE  H19S16081   4.127   2.611   8.718 -0.9280 -1.7894  2.9659
  146SAPE  C22016082   4.099   2.819   8.664 -0.6905  0.0124  0.3184
  146SAPE  H20R16083   4.188   2.815   8.598 -1.9618 -1.1241 -1.3681
  146SAPE  H20S16084   4.104   2.915   8.719  0.7785 -0.2317  0.6164
  146SAPE  H20T16085   4.005   2.820   8.604 -0.9063  0.2077  0.6579
  146SAPE   C3316086   3.912   2.416   9.861  0.3103  0.3879  0.2203
  146SAPE   H3X16087   3.801   2.414   9.863  0.2717 -0.1463 -1.4742
  146SAPE   H3Y16088   3.941   2.332   9.794  0.7486  1.3889 -0.8555
  146SAPE   C3416089   3.957   2.544   9.796 -0.0441  0.1348 -0.0334
  146SAPE   H4X16090   4.068   2.557   9.801  0.0560 -0.9580  0.9534
  146SAPE   H4Y16091   3.912   2.626   9.856 -2.5937 -0.0183 -1.6860
  146SAPE   C3516092   3.924   2.565   9.656 -0.1004 -0.1336 -0.4321
  146SAPE   H5X16093   3.917   2.675   9.637  0.5057  0.1001  0.6877
  146SAPE   H5Y16094   3.828   2.526   9.616 -0.2455 -0.2923  0.0755
  146SAPE   C3616095   4.034   2.519   9.559  0.2262 -0.1569  0.1477
  146SAPE   H6X16096   4.072   2.415   9.572  1.4159  0.0932 -1.1223
  146SAPE   H6Y16097   4.118   2.587   9.588  2.0380 -2.9712  1.7575
  146SAPE   C3716098   4.004   2.545   9.417  0.3982  0.5472  0.2372
  146SAPE   H7X16099   4.079   2.498   9.350 -1.2202 -2.3746  0.4023
  146SAPE   H7Y16100   4.000   2.653   9.391 -0.4971  0.3006 -0.6512
  146SAPE   C3816101   3.863   2.495   9.373  0.2362  0.2827 -0.0631
  146SAPE   H8X16102   3.784   2.572   9.390  0.0696  0.7261 -2.6233
  146SAPE   H8Y16103   3.843   2.399   9.426  0.2328 -0.1630 -0.8743
  146SAPE   C3916104   3.869   2.463   9.224  0.1179 -0.0964 -0.1389
  146SAPE   H9X16105   3.945   2.382   9.221  1.1755  0.7085  2.7824
  146SAPE   H9Y16106   3.924   2.533   9.158 -1.0392 -0.7659 -1.8265
  146SAPE  C31016107   3.733   2.417   9.166 -0.8351 -0.4106 -0.3683
  146SAPE  H10X16108   3.670   2.508   9.157 -1.0108 -0.3583  1.1506
  146SAPE  H10Y16109   3.690   2.357   9.250  0.2507 -0.9209 -0.1671
  146SAPE  C31116110   3.736   2.321   9.045  0.0743  0.2362 -0.1258
  146SAPE  H11X16111   3.638   2.275   9.020 -0.0201 -0.7558  1.9996
  146SAPE  H11Y16112   3.795   2.232   9.075  0.7580  0.5191 -0.6095
  146SAPE  C31216113   3.801   2.383   8.927 -0.5638 -0.6721  0.3494
  146SAPE  H12X16114   3.911   2.372   8.922 -0.0315  3.6295  0.7739
  146SAPE  H12Y16115   3.775   2.490   8.912 -1.9057 -0.8510  1.3050
  146SAPE  C31316116   3.770   2.325   8.792 -0.1292 -0.2510  0.7251
  146SAPE  H13X16117   3.661   2.323   8.772  0.2060  1.6933 -1.5762
  146SAPE  H13Y16118   3.794   2.216   8.793  0.0099 -0.2144  1.9657
  146SAPE  C31416119   3.827   2.395   8.673  0.0126 -0.4470 -0.2429
  146SAPE  H14X16120   3.795   2.341   8.581  1.4029 -1.7943  0.0504
  146SAPE  H14Y16121   3.938   2.393   8.670  0.0367  0.6028 -0.4235
  146SAPE  C31516122   3.778   2.537   8.647  0.9299 -0.2062 -0.0954
  146SAPE  H15X16123   3.815   2.599   8.731 -2.3729 -1.3776  2.3270
  146SAPE  H15Y16124   3.668   2.546   8.636  0.9312  0.3706  0.3116
  146SAPE  C31616125   3.823   2.599   8.512  0.3298  0.7277 -0.9639
  146SAPE  H16X16126   3.798   2.533   8.426  1.1047  0.7698 -1.2213
  146SAPE  H16Y16127   3.933   2.611   8.510  0.5445 -1.1235 -1.1762
  146SAPE  C31716128   3.752   2.740   8.489 -0.4952 -0.4086 -0.6431
  146SAPE  H17X16129   3.779   2.797   8.581 -1.2320  0.5789 -1.0274
  146SAPE  H17Y16130   3.643   2.720   8.488 -0.6104 -0.2117  2.1357
  146SAPE  C31816131   3.803   2.808   8.364 -0.2859 -0.9562  0.2205
  146SAPE  H18X16132   3.911   2.835   8.358 -0.5801  0.6779  1.9945
  146SAPE  H18Y16133   3.750   2.901   8.334  0.6386  0.2594  2.3000
  146SAPE  H18Z16134   3.784   2.739   8.279 -2.2842 -1.8514  1.3649
  147SAPE     N16135   1.564   0.428   6.046  0.5513 -0.2944  0.0830
  147SAPE   HN116136   1.577   0.328   6.069  0.0043 -0.2854  0.4532
  147SAPE   HN216137   1.603   0.439   5.950  0.2876 -3.7921 -0.4857
  147SAPE   HN316138   1.631   0.478   6.109 -0.4326  2.0613 -0.6890
  147SAPE   C1216139   1.432   0.472   6.073 -0.2134  0.4093 -1.0009
  147SAPE  H12A16140   1.357   0.417   6.013  0.5569  0.5006 -2.0625
  147SAPE  H12B16141   1.418   0.579   6.049 -1.0230  0.2216 -1.3647
  147SAPE   C1116142   1.399   0.452   6.225  0.2102  0.3118 -0.1281
  147SAPE  H11A16143   1.294   0.489   6.232  1.0434  2.8671 -0.6310
  147SAPE  H11B16144   1.443   0.516   6.305 -0.0427 -1.1783  1.2439
  147SAPE     P16145   1.529   0.248   6.350  0.2600  0.1929  0.2191
  147SAPE   O1316146   1.482   0.128   6.424 -0.2450 -0.5206  0.2284
  147SAPE   O1416147   1.642   0.225   6.258 -0.1907  0.3751 -0.1095
  147SAPE   O1216148   1.417   0.309   6.253  0.0175 -0.1744 -0.1647
  147SAPE   O1116149   1.575   0.366   6.446  0.0459  0.1611  0.5020
  147SAPE    C116150   1.493   0.389   6.563 -0.4149 -0.7001 -0.4512
  147SAPE    HA16151   1.447   0.490   6.556  0.5079 -0.3125 -1.1249
  147SAPE    HB16152   1.411   0.315   6.573 -1.9392  1.0514  0.4406
  147SAPE    C216153   1.583   0.376   6.692  1.1831  0.1697  0.4279
  147SAPE    HS16154   1.671   0.444   6.681  0.8968  0.2291 -1.5662
  147SAPE   O2116155   1.628   0.239   6.720  0.0631 -0.1440 -0.7681
  147SAPE   C2116156   1.751   0.219   6.765  0.2415 -0.4555 -0.7315
  147SAPE   O2216157   1.839   0.300   6.783  0.1053  0.2685 -0.2496
  147SAPE   C2216158   1.761   0.075   6.807 -0.0291  0.2130  0.1462
  147SAPE   H2R16159   1.660   0.029   6.801  0.4101 -0.7180 -0.0740
  147SAPE   H2S16160   1.810   0.023   6.722 -3.8114  1.0652 -2.6994
  147SAPE    C316161   1.507   0.430   6.819 -0.2602 -0.7833  0.1101
  147SAPE    HX16162   1.407   0.382   6.821  0.5946 -2.6052  0.3215
  147SAPE    HY16163   1.485   0.539   6.818  0.5531 -0.5483  3.5151
  147SAPE   O3116164   1.562   0.396   6.946 -0.3786  0.3523 -0.1052
  147SAPE   C3116165   1.655   0.480   6.992  0.0029 -0.0536  0.4272
  147SAPE   O3216166   1.695   0.579   6.930 -0.4527 -0.3643  0.0713
  147SAPE   C3216167   1.714   0.426   7.126 -0.4939  0.3170  0.1179
  147SAPE   H2X16168   1.795   0.355   7.099 -0.6552 -0.7368  2.3083
  147SAPE   H2Y16169   1.630   0.372   7.175 -0.0821 -0.4323  0.0045
  147SAPE   C2316170   1.824   0.045   6.946 -0.5247 -0.4521 -0.9793
  147SAPE   H3R16171   1.913   0.109   6.964 -0.3043 -0.6123 -1.5083
  147SAPE   H3S16172   1.856  -0.061   6.933  2.2571  0.1048  0.8603
  147SAPE   C2416173   1.732   0.059   7.071 -0.3249 -1.0357 -0.0539
  147SAPE   H4R16174   1.693   0.162   7.086  3.6591  0.4660  0.6837
  147SAPE   H4S16175   1.801   0.046   7.157 -0.6414  1.6784  0.6462
  147SAPE   C2516176   1.623  -0.040   7.075 -0.0528  0.2390  0.3948
  147SAPE   H5R16177   1.658  -0.143   7.060  0.3418  0.6394 -1.5177
  147SAPE   C2616178   1.495  -0.017   7.088  0.0055 -0.3193 -0.6077
  147SAPE   H6R16179   1.425  -0.101   7.095  0.8637 -1.1062 -1.3289
  147SAPE   C2716180   1.425   0.118   7.106 -0.2101 -0.7590  0.5390
  147SAPE   H7R16181   1.339   0.133   7.037 -0.5360  0.2884  1.1706
  147SAPE   H7S16182   1.493   0.205   7.090 -1.5752  0.2621  0.2460
  147SAPE   C2816183   1.382   0.122   7.249 -0.6088  0.7692  0.7564
  147SAPE   H8R16184   1.462   0.155   7.318 -1.3568  1.3170  1.3680
  147SAPE   C2916185   1.267   0.081   7.304 -0.7634  0.7969  0.0036
  147SAPE   H9R16186   1.256   0.088   7.414  1.2484 -1.8909  0.4322
  147SAPE  C21016187   1.157   0.022   7.220  0.1163 -0.6578 -0.0089
  147SAPE  H10R16188   1.107  -0.062   7.271 -1.8890  0.1156 -0.6746
  147SAPE  H10S16189   1.190  -0.008   7.118 -0.4636 -0.8097 -0.1516
  147SAPE  C21116190   1.053   0.130   7.199  0.0173  0.8420 -0.4962
  147SAPE  H11R16191   1.091   0.207   7.130 -1.1199 -1.6284 -4.0241
  147SAPE  C21216192   0.922   0.135   7.246 -0.7012 -0.3486  0.3800
  147SAPE  H12R16193   0.857   0.219   7.220  0.3760  0.4682  0.3008
  147SAPE  C21316194   0.869   0.017   7.333 -0.1665  0.0486 -0.1232
  147SAPE  H13R16195   0.911  -0.075   7.288  0.3601  0.2855 -0.1274
  147SAPE  H13S16196   0.759   0.016   7.318 -0.1333 -1.4028 -0.2999
  147SAPE  C21416197   0.911   0.045   7.476  0.5176 -0.2258 -0.5235
  147SAPE  H14R16198   0.905   0.150   7.507 -1.4822 -0.7454  0.9732
  147SAPE  C21516199   0.941  -0.048   7.567  0.2204 -0.1137  0.4084
  147SAPE  H15R16200   0.974  -0.021   7.668 -1.7570  0.2933  0.9682
  147SAPE  C21616201   0.955  -0.199   7.550 -0.0590 -0.0449  0.3134
  147SAPE  H16R16202   0.926  -0.230   7.448 -1.1648  1.3018  0.1999
  147SAPE  H16S16203   0.891  -0.259   7.617  0.2815  0.6811  1.3112
  147SAPE  C21716204   1.094  -0.258   7.556  0.2362  0.1120 -0.0187
  147SAPE  H17R16205   1.158  -0.207   7.481  1.3750 -3.0707 -1.2953
  147SAPE  H17S16206   1.088  -0.363   7.520 -1.6453 -0.0713  0.8123
  147SAPE  C21816207   1.177  -0.244   7.685  0.1537  0.8719  0.0540
  147SAPE  H18R16208   1.238  -0.336   7.677 -1.1070 -0.0802  1.0841
  147SAPE  H18S16209   1.122  -0.247   7.781  0.1183  1.1486  0.0417
  147SAPE  C21916210   1.283  -0.129   7.677 -0.4499 -1.0403  0.4798
  147SAPE  H19R16211   1.221  -0.039   7.654 -2.0722 -1.6851  2.1385
  147SAPE  H19S16212   1.361  -0.148   7.601  0.5389 -0.1205  1.2486
  147SAPE  C22016213   1.358  -0.107   7.812 -0.1097  0.0920  0.2727
  147SAPE  H20R16214   1.290  -0.095   7.899 -2.5975  1.7162 -1.8165
  147SAPE  H20S16215   1.414  -0.012   7.796  0.0353  0.5369  3.1329
  147SAPE  H20T16216   1.416  -0.195   7.846  1.3696  2.5484  4.5354
  147SAPE   C3316217   1.771   0.533   7.215 -0.5188  0.1105  0.4626
  147SAPE   H3X16218   1.728   0.634   7.199  3.0753  1.4619 -1.2839
  147SAPE   H3Y16219   1.877   0.550   7.183 -0.6843 -0.9613 -0.6749
  147SAPE   C3416220   1.780   0.501   7.361 -0.8188  0.3528  0.4064
  147SAPE   H4X16221   1.795   0.391   7.366 -1.3526  0.3425  1.8966
  147SAPE   H4Y16222   1.690   0.515   7.425  0.0000  0.9440  1.4259
  147SAPE   C3516223   1.895   0.569   7.433  0.3955 -0.2491 -0.7429
  147SAPE   H5X16224   1.892   0.676   7.403 -0.6857 -0.4315 -1.3291
  147SAPE   H5Y16225   1.992   0.534   7.391 -0.7501  0.0947 -3.8310
  147SAPE   C3616226   1.880   0.557   7.585 -0.4715  0.2355  0.1877
  147SAPE   H6X16227   1.886   0.450   7.614  1.8500  0.1806 -0.3984
  147SAPE   H6Y16228   1.778   0.586   7.619 -0.2615 -0.0104  1.0470
  147SAPE   C3716229   1.999   0.624   7.648  0.0841 -0.5575  0.0925
  147SAPE   H7X16230   1.980   0.733   7.648  0.8238 -0.4181  1.5018
  147SAPE   H7Y16231   2.099   0.601   7.604 -0.7960 -0.5268 -1.9900
  147SAPE   C3816232   2.008   0.593   7.801 -0.3252  0.0454 -0.0522
  147SAPE   H8X16233   1.986   0.486   7.823 -3.4214  0.7783  0.5955
  147SAPE   H8Y16234   1.922   0.651   7.840  0.4258 -0.0991  1.8701
  147SAPE   C3916235   2.142   0.645   7.860  0.1640 -0.2163 -1.5639
  147SAPE   H9X16236   2.157   0.743   7.810 -1.1897  0.3570 -0.8753
  147SAPE   H9Y16237   2.225   0.578   7.826 -1.1044 -1.4051 -2.4035
  147SAPE  C31016238   2.130   0.666   8.015  0.3872  0.1657 -0.0063
  147SAPE  H10X16239   2.022   0.661   8.039  0.2304 -0.3738 -0.8039
  147SAPE  H10Y16240   2.176   0.764   8.038 -0.3870  0.8544 -1.3956
  147SAPE  C31116241   2.190   0.541   8.083  0.0866  0.3707 -0.0852
  147SAPE  H11X16242   2.152   0.451   8.031 -0.2846  0.3518  0.2172
  147SAPE  H11Y16243   2.144   0.531   8.184 -0.9878 -0.1874 -0.6259
  147SAPE  C31216244   2.341   0.537   8.094 -0.4463 -0.8247 -0.0358
  147SAPE  H12X16245   2.374   0.615   8.167  0.5188 -2.3631  1.1955
  147SAPE  H12Y16246   2.385   0.552   7.993 -0.8436  2.0223  0.1517
  147SAPE  C31316247   2.395   0.399   8.138  0.9737  0.7311  0.4536
  147SAPE  H13X16248   2.378   0.323   8.059  1.0913  0.7301  0.4292
  147SAPE  H13Y16249   2.319   0.381   8.218  0.0317  0.9317 -0.3937
  147SAPE  C31416250   2.543   0.397   8.180  0.5593  0.4568 -0.0599
  147SAPE  H14X16251   2.594   0.469   8.112 -1.3459  2.8706  0.9862
  147SAPE  H14Y16252   2.577   0.294   8.158 -1.0594 -0.5246  1.8902
  147SAPE  C31516253   2.547   0.413   8.335 -0.2825  0.0669 -0.3852
  147SAPE  H15X16254   2.467   0.348   8.378 -1.1659 -1.6533 -4.4303
  147SAPE  H15Y16255   2.528   0.520   8.360  1.5866 -0.0815  1.8141
  147SAPE  C31616256   2.688   0.374   8.379 -0.5240  0.7521 -0.8444
  147SAPE  H16X16257   2.697   0.266   8.353 -2.5935  0.0765  1.0384
  147SAPE  H16Y16258   2.701   0.376   8.489 -0.6214 -3.3894 -0.6789
  147SAPE  C31716259   2.799   0.462   8.319  0.0725 -0.3726 -0.1259
  147SAPE  H17X16260   2.774   0.561   8.363 -1.2317 -1.6003  1.9611
  147SAPE  H17Y16261   2.802   0.468   8.208  1.0993  2.0561  0.0147
  147SAPE  C31816262   2.940   0.415   8.362  0.1290  0.7025 -0.8232
  147SAPE  H18X16263   2.945   0.308   8.334  0.0482  0.7529 -1.0274
  147SAPE  H18Y16264   2.940   0.417   8.473 -0.7067 -1.9470 -0.7562
  147SAPE  H18Z16265   3.029   0.465   8.318  0.3064  1.3895  0.2782
  148SAPE     N16266   1.378   5.342   6.571 -0.3504 -0.4322 -0.7477
  148SAPE   HN116267   1.328   5.291   6.495 -0.7912 -0.2346 -0.5905
  148SAPE   HN216268   1.389   5.440   6.537  0.2132 -1.0782 -2.5063
  148SAPE   HN316269   1.479   5.315   6.564 -1.1452 -2.9768 -3.3381
  148SAPE   C1216270   1.312   5.338   6.703 -0.9204  0.0814  0.2502
  148SAPE  H12A16271   1.366   5.407   6.772  0.5464 -0.9178  0.1238
  148SAPE  H12B16272   1.329   5.235   6.739  2.1405  0.1704 -0.8199
  148SAPE   C1116273   1.171   5.382   6.698 -1.0838  0.4884  0.1824
  148SAPE  H11A16274   1.156   5.482   6.651 -0.4740  0.3195 -0.3713
  148SAPE  H11B16275   1.141   5.372   6.805 -0.1555  1.9803  0.5954
  148SAPE     P16276   0.944   5.295   6.607  0.2410 -0.0768  0.1589
  148SAPE   O1316277   0.908   5.309   6.462 -0.4175  0.3526  0.0035
  148SAPE   O1416278   0.881   5.182   6.685 -0.3280  0.0094 -0.1695
  148SAPE   O1216279   1.100   5.284   6.626 -0.7418 -0.0181  0.2465
  148SAPE   O1116280   0.905   5.430   6.676  0.2020  0.4925  0.4700
  148SAPE    C116281   0.762   5.446   6.718  0.5588  0.0158  0.4762
  148SAPE    HA16282   0.718   5.543   6.688 -1.0200 -0.0805  2.3845
  148SAPE    HB16283   0.691   5.380   6.663  0.4614  2.6790 -2.7407
  148SAPE    C216284   0.740   5.437   6.869  0.1379  0.3937 -0.1436
  148SAPE    HS16285   0.805   5.516   6.912  1.1326  0.0507 -1.0033
  148SAPE   O2116286   0.791   5.304   6.910  0.7968  0.0391 -0.1708
  148SAPE   C2116287   0.894   5.302   6.989  0.3087 -0.5540 -0.1191
  148SAPE   O2216288   0.941   5.399   7.048  0.3017 -0.3868 -0.0656
  148SAPE   C2216289   0.948   5.164   6.997  0.0665  0.0211 -0.6048
  148SAPE   H2R16290   0.874   5.084   7.021  0.7205 -0.2639  0.4709
  148SAPE   H2S16291   0.993   5.138   6.899  0.5666 -2.2536  0.2064
  148SAPE    C316292   0.595   5.441   6.913 -0.5306 -1.1458  0.0535
  148SAPE    HX16293   0.544   5.348   6.879 -0.3496 -0.9051 -0.9096
  148SAPE    HY16294   0.540   5.511   6.847  1.6303 -0.8277 -1.4465
  148SAPE   O3116295   0.572   5.482   7.046  0.5422  0.2165  0.2858
  148SAPE   C3116296   0.605   5.393   7.139  0.5160 -0.2504 -0.0633
  148SAPE   O3216297   0.622   5.273   7.136 -0.2968 -0.1259 -0.2044
  148SAPE   C3216298   0.617   5.469   7.274 -0.1724  0.4981 -0.7248
  148SAPE   H2X16299   0.517   5.513   7.296  0.3484  1.7115 -0.7524
  148SAPE   H2Y16300   0.695   5.548   7.277  1.0752 -0.7693  2.2011
  148SAPE   C2316301   1.043   5.151   7.121 -0.2685  0.1921 -1.1387
  148SAPE   H3R16302   0.996   5.171   7.220  0.0421 -1.3813 -0.6610
  148SAPE   H3S16303   1.121   5.231   7.121 -2.3018  2.2809  1.4839
  148SAPE   C2416304   1.110   5.009   7.125 -0.5578  0.4563  0.5174
  148SAPE   H4R16305   1.023   4.940   7.121  0.6239 -1.0019 -0.3115
  148SAPE   H4S16306   1.164   4.990   7.220  0.7651  0.1453 -0.2855
  148SAPE   C2516307   1.213   4.987   7.006 -0.4035 -0.4586  0.4759
  148SAPE   H5R16308   1.178   4.920   6.926 -1.6133 -2.5068  2.6540
  148SAPE   C2616309   1.336   5.040   6.984 -0.8896  0.0219  0.8404
  148SAPE   H6R16310   1.398   5.006   6.899  1.4139 -0.3146  2.5930
  148SAPE   C2716311   1.398   5.149   7.069 -0.5735  0.2559 -0.0020
  148SAPE   H7R16312   1.333   5.170   7.156  0.1401 -0.7357  0.7788
  148SAPE   H7S16313   1.398   5.243   7.009 -1.7518  1.0617  1.2307
  148SAPE   C2816314   1.538   5.128   7.108  0.5781 -0.4142  0.1491
  148SAPE   H8R16315   1.605   5.125   7.021  0.0284  1.6905 -0.3639
  148SAPE   C2916316   1.589   5.107   7.226 -0.3016 -0.1809 -1.0338
  148SAPE   H9R16317   1.694   5.076   7.229 -0.3585 -0.7398 -3.5664
  148SAPE  C21016318   1.514   5.110   7.362  0.5120 -0.1168 -0.1150
  148SAPE  H10R16319   1.430   5.183   7.364  1.2728  0.8317 -1.8572
  148SAPE  H10S16320   1.591   5.131   7.439  0.9403 -0.2313 -0.5140
  148SAPE  C21116321   1.454   4.973   7.376 -0.1249 -0.3566 -0.0147
  148SAPE  H11R16322   1.409   4.930   7.285  1.2045  1.5202 -1.6034
  148SAPE  C21216323   1.450   4.899   7.493 -0.5224 -0.2498  0.2999
  148SAPE  H12R16324   1.404   4.799   7.495 -0.9563 -0.0708 -0.3794
  148SAPE  C21316325   1.512   4.946   7.626 -0.0239 -0.3373  0.4734
  148SAPE  H13R16326   1.524   5.056   7.619  0.8307 -0.3671  1.3272
  148SAPE  H13S16327   1.615   4.903   7.628  0.7562  1.3615 -1.3000
  148SAPE  C21416328   1.432   4.892   7.739 -0.5700  0.1138  0.2099
  148SAPE  H14R16329   1.388   4.791   7.739  2.4461 -1.2601 -3.0782
  148SAPE  C21516330   1.449   4.948   7.861 -0.1243  0.0245 -0.8846
  148SAPE  H15R16331   1.386   4.915   7.945  0.4065 -0.8378 -0.8176
  148SAPE  C21616332   1.530   5.077   7.897  0.5921 -1.0497  0.0225
  148SAPE  H16R16333   1.609   5.086   7.819 -0.4731  0.0305 -0.9685
  148SAPE  H16S16334   1.589   5.063   7.990  1.4904 -1.5176 -0.6153
  148SAPE  C21716335   1.445   5.208   7.907  0.5000  0.1705 -0.2263
  148SAPE  H17R16336   1.402   5.242   7.810 -0.0547  0.9075  0.2729
  148SAPE  H17S16337   1.516   5.286   7.943  1.9231 -0.8197 -0.8119
  148SAPE  C21816338   1.336   5.219   8.021  0.2998 -0.2913  0.1993
  148SAPE  H18R16339   1.269   5.131   8.010  2.0674 -2.0765  3.1581
  148SAPE  H18S16340   1.283   5.317   8.031  0.7628  0.1326 -1.4826
  148SAPE  C21916341   1.395   5.187   8.160  0.3600 -0.0825 -0.4579
  148SAPE  H19R16342   1.474   5.263   8.178 -0.7374  0.7472  0.9693
  148SAPE  H19S16343   1.439   5.084   8.164  2.5418  0.8037 -0.6944
  148SAPE  C22016344   1.285   5.197   8.271 -0.6641 -0.0521  0.2760
  148SAPE  H20R16345   1.215   5.111   8.271 -1.8412  0.8589 -2.0137
  148SAPE  H20S16346   1.222   5.288   8.264 -1.6522 -0.6020  1.9164
  148SAPE  H20T16347   1.342   5.198   8.366  1.0111 -0.6779 -0.6854
  148SAPE   C3316348   0.646   5.376   7.392 -0.4729 -0.8568 -0.2720
  148SAPE   H3X16349   0.745   5.328   7.380  0.2968  0.9192 -1.2145
  148SAPE   H3Y16350   0.573   5.292   7.394 -1.3072 -0.1133  0.9261
  148SAPE   C3416351   0.637   5.446   7.533 -0.3019 -0.3568 -0.1246
  148SAPE   H4X16352   0.533   5.483   7.537 -0.4476 -0.8986  1.2291
  148SAPE   H4Y16353   0.712   5.527   7.538 -1.2296  0.4185  1.3166
  148SAPE   C3516354   0.663   5.361   7.659  0.0134  0.0271  0.4671
  148SAPE   H5X16355   0.770   5.331   7.664 -0.5213 -2.2676 -1.2785
  148SAPE   H5Y16356   0.611   5.265   7.639  0.1148  0.1652 -0.4683
  148SAPE   C3616357   0.606   5.417   7.790  0.8520 -0.3059  0.0885
  148SAPE   H6X16358   0.633   5.353   7.876  0.6530 -1.0321 -0.3873
  148SAPE   H6Y16359   0.500   5.446   7.774  0.6185 -0.8434  0.6652
  148SAPE   C3716360   0.660   5.561   7.829  0.4153  0.4215  0.0031
  148SAPE   H7X16361   0.606   5.581   7.924  0.3158  0.2864 -0.0253
  148SAPE   H7Y16362   0.627   5.626   7.746 -0.3613 -1.0837 -0.8907
  148SAPE   C3816363   0.810   5.561   7.866 -0.6492 -0.3175  0.0859
  148SAPE   H8X16364   0.836   5.666   7.888  2.3774 -0.7608 -1.2040
  148SAPE   H8Y16365   0.861   5.533   7.772  1.7201  0.4306  1.1044
  148SAPE   C3916366   0.846   5.482   7.993 -0.3895  0.0296 -0.0965
  148SAPE   H9X16367   0.817   5.375   7.984  0.5943 -0.2464 -0.1019
  148SAPE   H9Y16368   0.799   5.522   8.085 -0.5184  0.6664 -0.4404
  148SAPE  C31016369   1.005   5.496   8.007  0.1560  0.1605  0.2854
  148SAPE  H10X16370   1.052   5.492   7.907 -0.8954  0.9596 -0.2507
  148SAPE  H10Y16371   1.028   5.407   8.070 -0.7119 -0.4772 -0.3045
  148SAPE  C31116372   1.063   5.618   8.085  0.3350  0.0919  0.1112
  148SAPE  H11X16373   0.995   5.625   8.172  0.1869  1.1267 -0.0856
  148SAPE  H11Y16374   1.061   5.710   8.023  0.2832 -0.8358 -1.3074
  148SAPE  C31216375   1.199   5.599   8.137 -1.0663  0.4407 -0.4234
  148SAPE  H12X16376   1.263   5.566   8.053  0.2366 -1.4075  1.2433
  148SAPE  H12Y16377   1.200   5.507   8.199  3.2114  0.1837 -0.7047
  148SAPE  C31316378   1.264   5.716   8.218  0.3886  0.5393  0.5945
  148SAPE  H13X16379   1.208   5.731   8.313  0.9148 -3.4868  1.6107
  148SAPE  H13Y16380   1.259   5.807   8.154 -0.5233  0.5022  0.6104
  148SAPE  C31416381   1.411   5.703   8.249 -0.2343 -0.0026 -0.2516
  148SAPE  H14X16382   1.432   5.800   8.298 -0.5950 -0.7066  1.3263
  148SAPE  H14Y16383   1.477   5.677   8.163 -1.8055 -2.9037 -0.6694
  148SAPE  C31516384   1.447   5.590   8.354  0.3649  0.0442  0.4143
  148SAPE  H15X16385   1.444   5.504   8.283  0.2147  1.1626 -0.9674
  148SAPE  H15Y16386   1.374   5.571   8.435 -0.7013  2.7265  0.1245
  148SAPE  C31616387   1.584   5.586   8.425 -1.2391  0.1948 -0.3251
  148SAPE  H16X16388   1.606   5.486   8.469 -1.3515 -0.2560 -1.2853
  148SAPE  H16Y16389   1.586   5.671   8.497 -0.2076 -1.6976  1.9345
  148SAPE  C31716390   1.708   5.618   8.334 -0.0313  0.1698  0.5517
  148SAPE  H17X16391   1.801   5.609   8.395 -0.3898 -1.0211  0.9300
  148SAPE  H17Y16392   1.683   5.719   8.294 -0.5430  1.1365  3.2398
  148SAPE  C31816393   1.724   5.525   8.210 -0.0005 -0.0560  0.2829
  148SAPE  H18X16394   1.631   5.523   8.149  0.7757 -1.3351 -0.8641
  148SAPE  H18Y16395   1.736   5.425   8.257 -1.4757 -0.1706  0.4526
  148SAPE  H18Z16396   1.817   5.549   8.155  0.9320 -1.2934  1.2943
  149SAPE     N16397   1.026   5.344   6.234 -0.8070 -0.0495 -0.4822
  149SAPE   HN116398   1.042   5.242   6.217  0.5696  0.2868 -1.2347
  149SAPE   HN216399   1.113   5.393   6.261 -0.0838 -0.1081 -2.6142
  149SAPE   HN316400   0.956   5.352   6.310 -1.1250 -0.3112 -0.7447
  149SAPE   C1216401   0.969   5.409   6.112 -0.3607 -0.4816  0.5862
  149SAPE  H12A16402   0.987   5.339   6.027 -0.2140 -1.8154  1.6880
  149SAPE  H12B16403   1.014   5.509   6.096 -0.5932 -0.2618  1.3256
  149SAPE   C1116404   0.821   5.444   6.142  0.2740 -0.2554 -0.1618
  149SAPE  H11A16405   0.785   5.344   6.173  0.5624  0.1710  1.6542
  149SAPE  H11B16406   0.764   5.476   6.052 -0.9879  1.1604  1.1016
  149SAPE     P16407   0.651   5.598   6.273  0.1320  0.2164 -0.3223
  149SAPE   O1316408   0.641   5.742   6.239  0.0505  0.0992 -0.3405
  149SAPE   O1416409   0.554   5.502   6.217 -0.0949 -0.2708  0.0783
  149SAPE   O1216410   0.798   5.538   6.251 -0.3828  0.1382  0.1956
  149SAPE   O1116411   0.638   5.589   6.426  0.4798 -0.4393 -0.0099
  149SAPE    C116412   0.521   5.620   6.498  0.8737  0.1511 -0.0088
  149SAPE    HA16413   0.427   5.600   6.444 -0.4473 -1.1931  2.7090
  149SAPE    HB16414   0.501   5.545   6.577 -1.6155  1.2581  0.4421
  149SAPE    C216415   0.519   5.759   6.568 -0.5707  0.0243  0.5693
  149SAPE    HS16416   0.524   5.827   6.480  0.8699 -0.0029  0.6163
  149SAPE   O2116417   0.637   5.759   6.653 -0.1326  0.2834  0.7537
  149SAPE   C2116418   0.668   5.882   6.700  0.1565  0.0393 -0.4231
  149SAPE   O2216419   0.615   5.980   6.654  0.1211 -0.5221  0.2705
  149SAPE   C2216420   0.765   5.875   6.811 -0.0067 -0.3746 -0.6737
  149SAPE   H2R16421   0.768   5.778   6.864  0.5676 -1.8479 -3.3163
  149SAPE   H2S16422   0.867   5.893   6.772 -0.0099 -0.8972 -0.9219
  149SAPE    C316423   0.385   5.786   6.651 -1.0121  0.4118  0.8403
  149SAPE    HX16424   0.306   5.813   6.578  0.2734  1.7116 -0.0959
  149SAPE    HY16425   0.407   5.877   6.710  0.9077  1.6516 -1.6890
  149SAPE   O3116426   0.338   5.668   6.727  0.5771  0.1561 -0.0712
  149SAPE   C3116427   0.264   5.700   6.831 -0.4605  0.8711  0.5189
  149SAPE   O3216428   0.234   5.811   6.872  0.4145  0.2232 -0.3236
  149SAPE   C3216429   0.223   5.575   6.900 -0.7747  0.4051  0.0817
  149SAPE   H2X16430   0.308   5.506   6.916  1.1500  2.4067 -1.1119
  149SAPE   H2Y16431   0.167   5.522   6.820 -1.2787  2.2791 -0.8604
  149SAPE   C2316432   0.738   5.990   6.906 -0.4976 -0.4510 -0.2773
  149SAPE   H3R16433   0.741   6.089   6.857  0.0913  0.0986  0.8416
  149SAPE   H3S16434   0.822   5.994   6.978 -2.8895 -1.2054  2.6591
  149SAPE   C2416435   0.613   5.987   6.998  0.3862 -0.3412  0.4218
  149SAPE   H4R16436   0.524   5.989   6.930  0.9748  1.6063 -0.3163
  149SAPE   H4S16437   0.617   6.075   7.065  1.0972 -0.3445  0.3886
  149SAPE   C2516438   0.600   5.851   7.073  0.0611  0.3275 -0.3572
  149SAPE   H5R16439   0.598   5.762   7.009  1.4489 -1.0252  1.4276
  149SAPE   C2616440   0.584   5.835   7.209  0.7517  0.2415  0.7280
  149SAPE   H6R16441   0.606   5.734   7.247  2.6559 -0.0945 -1.1529
  149SAPE   C2716442   0.583   5.933   7.324  0.0194 -0.0468 -0.1330
  149SAPE   H7R16443   0.483   5.934   7.373  0.3520 -4.0809  0.8472
  149SAPE   H7S16444   0.598   6.035   7.283  2.3431  1.2457  3.6773
  149SAPE   C2816445   0.689   5.915   7.430  0.1886  0.3519 -0.3002
  149SAPE   H8R16446   0.771   5.854   7.390 -0.9735 -0.5330 -1.3777
  149SAPE   C2916447   0.709   5.982   7.544 -0.0288  0.0762 -0.2883
  149SAPE   H9R16448   0.800   5.968   7.605  0.7355  1.5836 -1.0445
  149SAPE  C21016449   0.607   6.079   7.598 -0.2803 -0.8843  0.0056
  149SAPE  H10R16450   0.580   6.056   7.703 -2.0917 -0.4574 -0.3533
  149SAPE  H10S16451   0.509   6.078   7.546  0.5512  1.2627 -1.6670
  149SAPE  C21116452   0.652   6.223   7.587 -0.0399  0.5338  0.5914
  149SAPE  H11R16453   0.617   6.261   7.489  0.6992 -0.8056 -0.2101
  149SAPE  C21216454   0.730   6.297   7.675 -0.1955  0.1892 -0.3802
  149SAPE  H12R16455   0.761   6.401   7.655  2.0752  0.0117  1.9103
  149SAPE  C21316456   0.781   6.258   7.812  0.6798 -0.1655  0.2739
  149SAPE  H13R16457   0.838   6.346   7.847  0.7945  1.1694 -3.0335
  149SAPE  H13S16458   0.864   6.185   7.804  0.0448 -1.0585  1.6581
  149SAPE  C21416459   0.675   6.211   7.908 -0.9823  0.3225  0.2008
  149SAPE  H14R16460   0.569   6.235   7.890 -0.3901  1.7571 -1.5412
  149SAPE  C21516461   0.701   6.139   8.022 -0.8511  1.1307 -0.2043
  149SAPE  H15R16462   0.619   6.131   8.095  0.5637  0.8840  1.3814
  149SAPE  C21616463   0.840   6.095   8.075  0.1621  0.0533 -0.9523
  149SAPE  H16R16464   0.933   6.131   8.026  1.3721  1.8782  2.5255
  149SAPE  H16S16465   0.828   5.985   8.084 -0.8875  0.1777 -0.7080
  149SAPE  C21716466   0.858   6.129   8.230  0.3212 -0.8542 -1.1632
  149SAPE  H17R16467   0.768   6.102   8.289 -0.3571  1.6846 -1.0038
  149SAPE  H17S16468   0.862   6.239   8.243 -2.7006 -0.9781  1.2940
  149SAPE  C21816469   0.970   6.048   8.286 -0.5526  0.1880 -0.0785
  149SAPE  H18R16470   1.055   6.063   8.216 -0.6667 -1.1412 -0.5034
  149SAPE  H18S16471   0.941   5.941   8.276  1.9857 -0.5379 -0.0629
  149SAPE  C21916472   0.993   6.086   8.424  0.0158 -0.2424  0.2136
  149SAPE  H19R16473   0.907   6.042   8.479  0.3406 -0.6931  0.3614
  149SAPE  H19S16474   0.996   6.197   8.435 -0.1965 -0.1673 -0.4407
  149SAPE  C22016475   1.125   6.034   8.484  0.3833  0.1893 -0.4915
  149SAPE  H20R16476   1.208   6.087   8.433  0.7423 -0.0306 -0.1324
  149SAPE  H20S16477   1.133   5.924   8.472 -0.0170 -0.2257  2.6038
  149SAPE  H20T16478   1.134   6.056   8.593 -0.7724 -0.3321 -0.2789
  149SAPE   C3316479   0.158   5.586   7.037  0.0277 -0.6149  0.3225
  149SAPE   H3X16480   0.108   5.489   7.058 -2.1602  0.2060 -0.9977
  149SAPE   H3Y16481   0.078   5.662   7.036  0.1433 -0.4991 -0.1287
  149SAPE   C3416482   0.264   5.632   7.143 -0.4729  0.3679  0.0089
  149SAPE   H4X16483   0.288   5.736   7.114  1.2069  0.1240  0.4952
  149SAPE   H4Y16484   0.359   5.575   7.138 -0.4192  0.6374 -2.7678
  149SAPE   C3516485   0.208   5.649   7.285  0.1071 -0.1488 -0.1689
  149SAPE   H5X16486   0.160   5.552   7.310 -0.9812 -0.0693 -1.9212
  149SAPE   H5Y16487   0.127   5.725   7.291  0.4188  0.1915 -0.2125
  149SAPE   C3616488   0.308   5.694   7.398 -0.4462  0.5803 -0.5145
  149SAPE   H6X16489   0.340   5.798   7.375 -0.2049  0.4797 -0.6376
  149SAPE   H6Y16490   0.396   5.629   7.418 -0.3594  0.2679 -1.8503
  149SAPE   C3716491   0.241   5.698   7.533 -0.9597 -1.1058  0.0109
  149SAPE   H7X16492   0.217   5.599   7.576 -1.0767 -1.4049 -0.7321
  149SAPE   H7Y16493   0.147   5.756   7.518  0.8338  2.0650  0.4427
  149SAPE   C3816494   0.338   5.752   7.641 -0.6404 -0.1700 -0.1305
  149SAPE   H8X16495   0.369   5.856   7.620 -0.2677 -0.3083 -0.2835
  149SAPE   H8Y16496   0.429   5.688   7.641 -1.3466 -1.1818  1.1003
  149SAPE   C3916497   0.277   5.744   7.776  0.1278  0.5693  0.3966
  149SAPE   H9X16498   0.270   5.638   7.809 -1.1939  0.6138  0.2875
  149SAPE   H9Y16499   0.177   5.790   7.783 -0.8162 -1.3993  0.2753
  149SAPE  C31016500   0.372   5.804   7.879 -0.0514 -0.1698 -0.4535
  149SAPE  H10X16501   0.394   5.911   7.859  1.3723 -0.8448 -2.6999
  149SAPE  H10Y16502   0.473   5.757   7.873  0.3190  0.6488 -0.6433
  149SAPE  C31116503   0.321   5.784   8.025 -0.5132 -0.0600  0.0681
  149SAPE  H11X16504   0.326   5.678   8.058 -2.1799  0.0957  0.8508
  149SAPE  H11Y16505   0.216   5.806   8.051 -1.0608 -3.0964  0.6428
  149SAPE  C31216506   0.412   5.868   8.121 -0.7067  0.2902  0.4060
  149SAPE  H12X16507   0.397   5.974   8.093  1.3863  0.5660  0.2365
  149SAPE  H12Y16508   0.519   5.844   8.101 -0.5282 -0.8940  2.6088
  149SAPE  C31316509   0.384   5.850   8.272  0.3886  0.0144  0.8235
  149SAPE  H13X16510   0.463   5.885   8.341 -0.6364  0.1015  1.9635
  149SAPE  H13Y16511   0.375   5.741   8.293  2.0536  0.1176  2.2203
  149SAPE  C31416512   0.254   5.925   8.318 -0.4050 -0.0843  0.1993
  149SAPE  H14X16513   0.166   5.876   8.271  0.8755 -1.4784 -0.8078
  149SAPE  H14Y16514   0.269   6.029   8.284  0.2981 -0.8821 -2.0960
  149SAPE  C31516515   0.234   5.908   8.472 -0.1193  0.1200  1.2658
  149SAPE  H15X16516   0.329   5.949   8.512  1.4539 -1.6841 -0.4707
  149SAPE  H15Y16517   0.218   5.806   8.512 -1.1086 -0.8711 -1.5228
  149SAPE  C31616518   0.116   5.996   8.528  0.2223  1.1298  0.0757
  149SAPE  H16X16519   0.025   5.962   8.475  1.2306  0.2579 -1.1366
  149SAPE  H16Y16520   0.131   6.097   8.484  1.3497  0.5016 -1.0002
  149SAPE  C31716521   0.110   6.004   8.682  0.4575  0.4489  0.3659
  149SAPE  H17X16522   0.208   5.965   8.718 -0.0519 -0.6391  0.6220
  149SAPE  H17Y16523   0.033   5.927   8.708  2.6886 -1.6368  0.9834
  149SAPE  C31816524   0.073   6.144   8.728  0.0140  0.0048 -0.1127
  149SAPE  H18X16525   0.158   6.208   8.694 -1.3929  1.3642 -1.0990
  149SAPE  H18Y16526   0.067   6.148   8.839 -0.0387  1.7432 -0.1738
  149SAPE  H18Z16527  -0.023   6.175   8.682 -0.5332 -3.4846 -1.4509
  150SAPE     N16528   6.801   6.735   6.256  0.4777 -0.2000 -0.6657
  150SAPE   HN116529   6.712   6.763   6.210  0.7191  0.6443 -0.6386
  150SAPE   HN216530   6.863   6.819   6.257  1.0600 -0.5922 -2.0779
  150SAPE   HN316531   6.864   6.667   6.209  1.1308  1.1139 -1.7196
  150SAPE   C1216532   6.745   6.693   6.390  0.4263  0.6120 -0.8532
  150SAPE  H12A16533   6.818   6.626   6.440 -0.8276  1.2252  1.8456
  150SAPE  H12B16534   6.650   6.637   6.374  1.2677 -0.9245 -0.6011
  150SAPE   C1116535   6.701   6.816   6.478  0.2277  0.7858  0.3236
  150SAPE  H11A16536   6.797   6.862   6.509  1.9179 -2.7847  0.6266
  150SAPE  H11B16537   6.645   6.788   6.569  0.8132  1.6516  0.9547
  150SAPE     P16538   6.476   6.885   6.364 -0.1756 -0.7807 -0.0004
  150SAPE   O1316539   6.394   7.009   6.382  1.0197  0.2137  0.2674
  150SAPE   O1416540   6.476   6.824   6.230 -0.2586  0.1010 -0.0871
  150SAPE   O1216541   6.629   6.915   6.409 -0.3161 -0.0825  0.0467
  150SAPE   O1116542   6.431   6.779   6.463  0.8564 -0.7184 -0.7030
  150SAPE    C116543   6.325   6.790   6.556 -0.2575 -0.4905  0.7256
  150SAPE    HA16544   6.256   6.876   6.543 -0.1588 -0.5001  0.1631
  150SAPE    HB16545   6.268   6.697   6.541 -0.4504 -0.0165 -1.5367
  150SAPE    C216546   6.367   6.805   6.709  0.1418  0.5097 -0.4918
  150SAPE    HS16547   6.273   6.823   6.766  1.2722  2.1544  0.9076
  150SAPE   O2116548   6.476   6.896   6.730  0.7631  0.5013  0.0117
  150SAPE   C2116549   6.432   7.025   6.734  0.1864 -0.5691 -0.4179
  150SAPE   O2216550   6.319   7.066   6.731 -0.5061  0.2996  0.0662
  150SAPE   C2216551   6.546   7.126   6.727 -0.0824 -0.0192 -0.7526
  150SAPE   H2R16552   6.645   7.087   6.758  0.0370  1.6944  1.1552
  150SAPE   H2S16553   6.556   7.174   6.627  1.1104  2.1632  0.3685
  150SAPE    C316554   6.419   6.659   6.745 -0.1595  0.4774 -0.4179
  150SAPE    HX16555   6.513   6.625   6.698  0.1251 -0.1167  0.5456
  150SAPE    HY16556   6.346   6.586   6.702  0.7944 -0.0522 -1.1508
  150SAPE   O3116557   6.425   6.641   6.885  0.2143 -0.2262  0.1234
  150SAPE   C3116558   6.454   6.519   6.921 -0.0161 -0.0136 -0.0352
  150SAPE   O3216559   6.485   6.427   6.844  0.0374 -0.2640 -0.1137
  150SAPE   C3216560   6.483   6.527   7.066 -0.3660  0.3873  0.4409
  150SAPE   H2X16561   6.381   6.535   7.110 -1.3289 -0.1040 -1.6654
  150SAPE   H2Y16562   6.545   6.617   7.085  0.8123 -0.7440  2.0439
  150SAPE   C2316563   6.516   7.246   6.819 -0.4441 -0.2660 -0.8906
  150SAPE   H3R16564   6.411   7.278   6.806 -0.6213  0.2067  1.4000
  150SAPE   H3S16565   6.572   7.335   6.784  0.5682 -0.5373  0.0010
  150SAPE   C2416566   6.543   7.218   6.969 -0.1367 -0.1108  0.1040
  150SAPE   H4R16567   6.576   7.306   7.027  1.2344  0.4592 -1.5047
  150SAPE   H4S16568   6.634   7.154   6.970 -0.8839 -1.1967 -0.3243
  150SAPE   C2516569   6.432   7.144   7.048 -0.2452  0.2405  0.4247
  150SAPE   H5R16570   6.422   7.036   7.035 -0.0394  0.2004  0.6035
  150SAPE   C2616571   6.343   7.209   7.127  0.3644 -0.5439 -0.2489
  150SAPE   H6R16572   6.269   7.143   7.176  1.2357 -0.3707  1.3421
  150SAPE   C2716573   6.327   7.358   7.152 -0.7885  0.2394 -0.2201
  150SAPE   H7R16574   6.396   7.420   7.092 -0.8359  1.4241  0.9128
  150SAPE   H7S16575   6.353   7.375   7.259  0.7990 -2.6061 -0.1005
  150SAPE   C2816576   6.194   7.420   7.117 -0.6064 -0.6700 -0.8059
  150SAPE   H8R16577   6.174   7.425   7.009  1.2906  0.8646 -1.1104
  150SAPE   C2916578   6.112   7.479   7.200  0.3200  0.7164  0.9542
  150SAPE   H9R16579   6.019   7.518   7.156 -0.1128 -1.5413 -0.2172
  150SAPE  C21016580   6.119   7.496   7.347 -0.2578  0.0883 -0.4331
  150SAPE  H10R16581   6.037   7.563   7.380 -1.0280 -0.7338 -0.6530
  150SAPE  H10S16582   6.218   7.541   7.369  0.2179 -0.3894 -1.5057
  150SAPE  C21116583   6.106   7.357   7.406 -0.2922  0.3557 -0.6867
  150SAPE  H11R16584   6.032   7.290   7.359 -0.9667  0.8794 -0.3866
  150SAPE  C21216585   6.173   7.318   7.520 -0.3286  0.5447  0.7614
  150SAPE  H12R16586   6.147   7.219   7.561 -1.0147  1.3473  2.2868
  150SAPE  C21316587   6.281   7.381   7.598 -0.0494 -0.6507 -0.4632
  150SAPE  H13R16588   6.367   7.416   7.537  0.6106 -0.2021  0.6872
  150SAPE  H13S16589   6.336   7.304   7.657  0.5335  0.1318  0.0217
  150SAPE  C21416590   6.248   7.503   7.681  0.5135 -0.3185  0.2057
  150SAPE  H14R16591   6.163   7.560   7.640 -0.4841 -1.2383  0.9517
  150SAPE  C21516592   6.291   7.527   7.803  0.7306 -0.2414 -0.0989
  150SAPE  H15R16593   6.270   7.627   7.843 -0.9023 -0.5473 -0.1514
  150SAPE  C21616594   6.382   7.443   7.896  0.6509 -0.8211 -0.7529
  150SAPE  H16R16595   6.443   7.502   7.968  0.1117 -0.5623 -0.5029
  150SAPE  H16S16596   6.462   7.390   7.840  1.5505 -1.0762  0.7332
  150SAPE  C21716597   6.295   7.344   7.973  0.5299 -0.0967 -0.0765
  150SAPE  H17R16598   6.362   7.278   8.032  0.0307 -0.5581 -0.0202
  150SAPE  H17S16599   6.221   7.282   7.919  1.2727 -0.7117 -0.3823
  150SAPE  C21816600   6.205   7.412   8.080 -0.1720 -0.4157  0.3153
  150SAPE  H18R16601   6.134   7.483   8.032 -1.0738 -1.5823 -0.0830
  150SAPE  H18S16602   6.265   7.479   8.146  2.0807  1.0603 -3.0827
  150SAPE  C21916603   6.142   7.307   8.168 -0.3698  0.2832  0.3857
  150SAPE  H19R16604   6.213   7.246   8.228 -2.3126 -2.3276  0.1595
  150SAPE  H19S16605   6.089   7.233   8.103 -2.5510  1.7214  0.4646
  150SAPE  C22016606   6.044   7.359   8.279  0.4424 -0.5177  0.6506
  150SAPE  H20R16607   6.104   7.405   8.361 -0.0920  0.3322  0.5688
  150SAPE  H20S16608   5.987   7.275   8.324 -2.2232  0.8153 -0.1602
  150SAPE  H20T16609   5.982   7.441   8.238 -0.3801 -0.5689  1.7820
  150SAPE   C3316610   6.561   6.411   7.128 -0.2774  0.0706  1.1627
  150SAPE   H3X16611   6.645   6.379   7.064 -0.8111  2.5573 -0.8236
  150SAPE   H3Y16612   6.494   6.321   7.130 -1.6431  1.0220 -0.4048
  150SAPE   C3416613   6.618   6.434   7.266  0.3360  0.8765  0.0883
  150SAPE   H4X16614   6.669   6.533   7.263  1.9418  0.1013  0.9677
  150SAPE   H4Y16615   6.694   6.355   7.286  0.0223  0.6929  0.5514
  150SAPE   C3516616   6.521   6.431   7.390  0.1573 -0.0608  0.4798
  150SAPE   H5X16617   6.481   6.327   7.396 -2.4345  0.8866  0.4094
  150SAPE   H5Y16618   6.439   6.503   7.370  0.1664  0.3286  1.8216
  150SAPE   C3616619   6.590   6.476   7.519  0.0245 -0.7238  0.0810
  150SAPE   H6X16620   6.616   6.584   7.517  0.5293 -0.8038  1.3805
  150SAPE   H6Y16621   6.682   6.414   7.524  0.1446 -0.6902 -1.4665
  150SAPE   C3716622   6.516   6.434   7.643 -1.2675  0.4493 -0.1451
  150SAPE   H7X16623   6.506   6.324   7.631  1.0343  0.2709 -0.7865
  150SAPE   H7Y16624   6.415   6.479   7.643 -0.4785  2.2565 -0.4341
  150SAPE   C3816625   6.601   6.469   7.768  0.5581 -0.3183 -0.0320
  150SAPE   H8X16626   6.607   6.578   7.789  0.4855 -0.5018  0.9508
  150SAPE   H8Y16627   6.704   6.429   7.757 -0.5569 -3.0833 -0.8802
  150SAPE   C3916628   6.531   6.398   7.881  0.4196 -0.0710 -0.0894
  150SAPE   H9X16629   6.524   6.288   7.870  2.6231 -0.1291 -1.1956
  150SAPE   H9Y16630   6.427   6.435   7.869  0.8290  0.6214 -1.5450
  150SAPE  C31016631   6.595   6.432   8.014 -0.3615 -0.0731  0.2779
  150SAPE  H10X16632   6.600   6.542   8.029 -1.5509 -0.1257  1.1050
  150SAPE  H10Y16633   6.699   6.393   8.011  0.2101  1.5041 -2.0266
  150SAPE  C31116634   6.531   6.378   8.144 -0.2442 -0.5847 -0.4313
  150SAPE  H11X16635   6.485   6.278   8.128 -0.4626 -0.8299  1.6126
  150SAPE  H11Y16636   6.448   6.445   8.176 -0.4570  0.1614 -2.4268
  150SAPE  C31216637   6.624   6.358   8.264 -0.1534  0.1546  0.3209
  150SAPE  H12X16638   6.713   6.301   8.230 -1.1755 -0.5843 -1.2271
  150SAPE  H12Y16639   6.572   6.300   8.343 -0.5910  0.2429  0.1008
  150SAPE  C31316640   6.674   6.494   8.322  0.7452 -0.2739 -0.2537
  150SAPE  H13X16641   6.591   6.553   8.367 -0.5615 -0.5893 -2.1903
  150SAPE  H13Y16642   6.722   6.556   8.243 -0.5928  3.4033  1.6692
  150SAPE  C31416643   6.787   6.467   8.430 -0.1037 -0.4921 -0.1953
  150SAPE  H14X16644   6.855   6.393   8.382  1.8021  1.5811 -0.7301
  150SAPE  H14Y16645   6.732   6.416   8.512 -1.5494  1.4986  0.0918
  150SAPE  C31516646   6.867   6.595   8.456 -0.6967  0.0056  0.2052
  150SAPE  H15X16647   6.795   6.671   8.491 -1.1737 -0.1297 -0.4823
  150SAPE  H15Y16648   6.925   6.624   8.366  2.3539 -1.1197  1.7004
  150SAPE  C31616649   6.974   6.574   8.561  0.1287  0.5170 -0.5212
  150SAPE  H16X16650   7.040   6.488   8.534 -2.6881 -1.6858 -0.5925
  150SAPE  H16Y16651   6.923   6.525   8.646 -0.2246 -1.4332 -1.8081
  150SAPE  C31716652   7.065   6.690   8.607  0.6258 -0.6010 -1.0096
  150SAPE  H17X16653   7.114   6.731   8.516 -2.4096  0.5544 -2.1934
  150SAPE  H17Y16654   7.142   6.653   8.678 -0.1198  0.4035  0.3615
  150SAPE  C31816655   6.978   6.801   8.675  0.3611  0.7292  0.5358
  150SAPE  H18X16656   6.905   6.752   8.742  1.0872 -1.3621 -0.1754
  150SAPE  H18Y16657   6.908   6.855   8.607  0.8050 -0.4594 -0.9021
  150SAPE  H18Z16658   7.044   6.869   8.734 -0.3731 -0.4700  2.7807
  151SAPE     N16659   2.755   4.859   6.177 -0.2529  0.5401 -1.1205
  151SAPE   HN116660   2.817   4.825   6.100 -0.4088 -1.1614 -0.5066
  151SAPE   HN216661   2.703   4.774   6.206  0.1473  0.1563 -1.5107
  151SAPE   HN316662   2.690   4.929   6.137 -1.4060 -0.1215 -0.4181
  151SAPE   C1216663   2.830   4.920   6.292 -0.4831 -0.1498 -0.7390
  151SAPE  H12A16664   2.877   5.016   6.262 -0.2637 -0.4219 -1.2798
  151SAPE  H12B16665   2.908   4.848   6.325 -0.7422  0.3915  1.1460
  151SAPE   C1116666   2.732   4.958   6.407 -0.3926  0.0211 -0.2844
  151SAPE  H11A16667   2.783   5.010   6.492 -0.0661 -0.0692 -0.4242
  151SAPE  H11B16668   2.686   4.865   6.447  0.7315 -0.4169  0.0139
  151SAPE     P16669   2.611   5.195   6.356  0.1198  0.8732 -0.1909
  151SAPE   O1316670   2.748   5.249   6.385 -0.2400 -0.2436  0.2937
  151SAPE   O1416671   2.540   5.246   6.228 -0.1255 -0.1526 -0.2936
  151SAPE   O1216672   2.620   5.034   6.356 -0.1186 -0.2352  1.0352
  151SAPE   O1116673   2.512   5.234   6.479 -0.0264  0.1224  0.0288
  151SAPE    C116674   2.487   5.380   6.507 -0.1010  0.4516  0.0370
  151SAPE    HA16675   2.552   5.437   6.437 -0.2233 -0.7844 -1.1137
  151SAPE    HB16676   2.380   5.395   6.484 -0.4963 -0.4702  1.1816
  151SAPE    C216677   2.515   5.418   6.647 -0.7531 -0.6099  0.3671
  151SAPE    HS16678   2.623   5.437   6.662 -1.0387  1.6438 -0.3246
  151SAPE   O2116679   2.449   5.323   6.730 -0.0177 -0.3940 -0.3844
  151SAPE   C2116680   2.533   5.236   6.778  0.3852  0.1354  0.5135
  151SAPE   O2216681   2.654   5.241   6.774 -0.4818 -0.4819  0.1680
  151SAPE   C2216682   2.447   5.139   6.860 -0.2555 -0.6405 -0.0638
  151SAPE   H2R16683   2.388   5.079   6.788  0.7895  0.0545 -1.5095
  151SAPE   H2S16684   2.516   5.070   6.913  0.6627 -0.4132 -0.9428
  151SAPE    C316685   2.454   5.558   6.674 -0.3804 -0.2737  0.3761
  151SAPE    HX16686   2.344   5.543   6.664 -0.2332 -0.9178 -0.3033
  151SAPE    HY16687   2.505   5.620   6.597  0.5566 -0.1349  1.1047
  151SAPE   O3116688   2.485   5.592   6.811 -0.1307 -0.5398  0.4134
  151SAPE   C3116689   2.388   5.659   6.876 -0.1581 -0.0467  0.0606
  151SAPE   O3216690   2.282   5.687   6.826 -0.6867  0.7236 -0.0223
  151SAPE   C3216691   2.458   5.720   7.000 -0.0925  0.2396 -0.0639
  151SAPE   H2X16692   2.470   5.825   6.966 -0.4263 -0.3780 -2.1509
  151SAPE   H2Y16693   2.553   5.667   7.019 -0.6466 -0.6918  0.1641
  151SAPE   C2316694   2.363   5.226   6.956  0.1934 -0.6513 -0.1150
  151SAPE   H3R16695   2.298   5.155   7.011 -1.6546 -0.5094 -2.0580
  151SAPE   H3S16696   2.295   5.297   6.903 -0.5104 -2.6239 -1.9004
  151SAPE   C2416697   2.437   5.313   7.058 -0.0012  0.5018  0.3056
  151SAPE   H4R16698   2.353   5.359   7.113 -1.1234  0.1011 -1.0485
  151SAPE   H4S16699   2.493   5.398   7.016 -1.6606  1.5451  0.1728
  151SAPE   C2516700   2.518   5.222   7.149 -0.4951  0.1169  0.3106
  151SAPE   H5R16701   2.619   5.198   7.113 -1.1433 -1.7463 -0.3672
  151SAPE   C2616702   2.478   5.169   7.265 -0.1302  0.0712 -0.1688
  151SAPE   H6R16703   2.545   5.101   7.321  0.5006  0.4081 -0.5081
  151SAPE   C2716704   2.348   5.179   7.333  0.2434 -0.7518  1.0407
  151SAPE   H7R16705   2.268   5.171   7.256  1.1220 -0.5961  0.1048
  151SAPE   H7S16706   2.344   5.282   7.375  0.1301  0.1882 -1.1903
  151SAPE   C2816707   2.314   5.085   7.447  0.1511 -0.7314  0.0929
  151SAPE   H8R16708   2.267   4.993   7.409  0.9128 -1.3821  0.6964
  151SAPE   C2916709   2.339   5.092   7.580  0.1944  0.4182  0.5333
  151SAPE   H9R16710   2.308   5.000   7.633  1.8433 -0.9045 -0.7359
  151SAPE  C21016711   2.404   5.211   7.657 -0.2214  0.1324 -0.1227
  151SAPE  H10R16712   2.320   5.241   7.723 -0.0402  1.3072 -0.4126
  151SAPE  H10S16713   2.437   5.296   7.593  0.5246 -0.4322 -0.5086
  151SAPE  C21116714   2.520   5.161   7.738 -0.4487  0.0196  0.5688
  151SAPE  H11R16715   2.615   5.174   7.684 -0.7513  0.0517  0.0398
  151SAPE  C21216716   2.515   5.096   7.854  0.6074  0.1427 -0.9817
  151SAPE  H12R16717   2.610   5.064   7.898 -1.0587 -0.7908  2.1270
  151SAPE  C21316718   2.394   5.070   7.944  0.5760  0.3779  0.2893
  151SAPE  H13R16719   2.317   5.150   7.935  1.8332  1.3919 -1.8637
  151SAPE  H13S16720   2.430   5.073   8.049  0.9329 -2.0333  0.2606
  151SAPE  C21416721   2.333   4.931   7.930 -0.2748 -0.4057 -0.3638
  151SAPE  H14R16722   2.305   4.903   7.828  1.0943  1.7089 -1.3841
  151SAPE  C21516723   2.313   4.843   8.036  0.3738 -0.9584 -0.3846
  151SAPE  H15R16724   2.290   4.738   8.013  0.1818 -1.0593  0.2403
  151SAPE  C21616725   2.349   4.869   8.183  0.4109 -0.0818  0.0865
  151SAPE  H16R16726   2.422   4.951   8.198  0.1523  0.0370  0.7057
  151SAPE  H16S16727   2.390   4.784   8.243 -2.2293 -0.0250  2.0640
  151SAPE  C21716728   2.221   4.927   8.254  0.6591 -0.0918 -0.7526
  151SAPE  H17R16729   2.140   4.852   8.245  0.9478 -0.5263  0.2158
  151SAPE  H17S16730   2.193   5.019   8.200 -1.0487  0.5986  1.2220
  151SAPE  C21816731   2.249   4.964   8.395 -0.1736  0.4093  0.2317
  151SAPE  H18R16732   2.193   5.054   8.427 -1.1449  0.5737 -1.8330
  151SAPE  H18S16733   2.357   4.988   8.398  0.3055 -1.6668  0.8802
  151SAPE  C21916734   2.254   4.850   8.498  0.2382 -0.2169 -0.3903
  151SAPE  H19R16735   2.303   4.881   8.593  0.0873  1.4435 -0.8304
  151SAPE  H19S16736   2.309   4.765   8.455 -2.9932 -1.4427 -2.3097
  151SAPE  C22016737   2.115   4.792   8.539 -0.5097 -0.1534 -0.3924
  151SAPE  H20R16738   2.068   4.873   8.599 -1.3541 -0.5031 -0.5823
  151SAPE  H20S16739   2.052   4.766   8.451 -1.1262 -2.1416  0.6301
  151SAPE  H20T16740   2.144   4.702   8.597  0.5064  0.3366 -0.1185
  151SAPE   C3316741   2.382   5.725   7.135  0.0948 -0.6217 -0.2910
  151SAPE   H3X16742   2.272   5.725   7.115 -0.1665  1.1013  0.9505
  151SAPE   H3Y16743   2.408   5.821   7.184 -2.5527 -0.6109  1.2234
  151SAPE   C3416744   2.428   5.631   7.244 -0.6370  0.2416 -0.6486
  151SAPE   H4X16745   2.539   5.632   7.247 -0.6792  1.3535  1.1406
  151SAPE   H4Y16746   2.401   5.528   7.213 -1.4064  0.1321  0.3601
  151SAPE   C3516747   2.375   5.672   7.383  0.2749  0.0173 -0.5341
  151SAPE   H5X16748   2.265   5.681   7.380  0.0654 -2.4955 -0.6973
  151SAPE   H5Y16749   2.411   5.775   7.405  1.0967 -0.3255 -0.2502
  151SAPE   C3616750   2.408   5.566   7.490 -0.2522  0.2469 -0.0737
  151SAPE   H6X16751   2.513   5.582   7.524 -0.1142 -1.3398  0.3362
  151SAPE   H6Y16752   2.415   5.470   7.433  1.5111 -1.9792  3.6871
  151SAPE   C3716753   2.306   5.556   7.604 -0.4383 -0.4535 -0.7941
  151SAPE   H7X16754   2.313   5.461   7.661 -1.3764 -0.8687 -1.3705
  151SAPE   H7Y16755   2.204   5.543   7.562 -0.2890  1.0443 -1.6209
  151SAPE   C3816756   2.312   5.668   7.712 -0.2956  0.1953  0.1090
  151SAPE   H8X16757   2.270   5.758   7.662 -1.2213  0.1934  0.8867
  151SAPE   H8Y16758   2.417   5.686   7.742 -0.5506 -0.3485  1.3616
  151SAPE   C3916759   2.231   5.646   7.838 -0.3648 -0.0787 -0.3239
  151SAPE   H9X16760   2.257   5.549   7.885  0.7017  0.7403  0.8573
  151SAPE   H9Y16761   2.125   5.635   7.807 -0.5366  0.4783  0.0468
  151SAPE  C31016762   2.253   5.745   7.948 -0.7421 -0.3002  0.4781
  151SAPE  H10X16763   2.211   5.844   7.920  0.1747  0.8584  3.0195
  151SAPE  H10Y16764   2.363   5.753   7.965 -0.4802  1.9250 -2.0197
  151SAPE  C31116765   2.180   5.702   8.076  0.2823 -0.3535 -0.1065
  151SAPE  H11X16766   2.199   5.595   8.100 -1.2504 -0.3851  0.9907
  151SAPE  H11Y16767   2.069   5.707   8.074  0.3458  0.5554 -1.7744
  151SAPE  C31216768   2.233   5.770   8.204  0.2227 -0.4489  0.2421
  151SAPE  H12X16769   2.343   5.776   8.216  0.3893 -0.3814 -1.2219
  151SAPE  H12Y16770   2.184   5.710   8.284 -2.4566  0.1159 -0.9232
  151SAPE  C31316771   2.176   5.906   8.213  0.1238 -0.5781  0.4591
  151SAPE  H13X16772   2.072   5.916   8.175  0.1298 -0.6789  0.4156
  151SAPE  H13Y16773   2.242   5.967   8.149 -0.6476 -0.9618 -0.7239
  151SAPE  C31416774   2.179   5.956   8.359 -0.2937 -0.5341  0.1406
  151SAPE  H14X16775   2.281   5.943   8.401 -0.7129  1.0353  1.6608
  151SAPE  H14Y16776   2.132   5.888   8.433  0.5644  0.0433  1.2304
  151SAPE  C31516777   2.141   6.102   8.369  0.8551  0.0453  0.0374
  151SAPE  H15X16778   2.039   6.130   8.335  0.7476 -0.5817 -0.1473
  151SAPE  H15Y16779   2.210   6.158   8.303  0.0169  0.7167 -0.2850
  151SAPE  C31616780   2.164   6.151   8.510  0.0516 -0.6278  0.5907
  151SAPE  H16X16781   2.274   6.139   8.515  0.2140  0.7267  0.4045
  151SAPE  H16Y16782   2.104   6.094   8.585 -3.7184 -1.6333 -2.9986
  151SAPE  C31716783   2.127   6.298   8.527  0.2176  0.4146 -0.5301
  151SAPE  H17X16784   2.018   6.299   8.505  0.0827 -0.2157  0.0761
  151SAPE  H17Y16785   2.176   6.369   8.457  0.1847 -2.0312 -3.1015
  151SAPE  C31816786   2.147   6.338   8.671  0.4813 -0.1788  0.1237
  151SAPE  H18X16787   2.095   6.281   8.751  2.2882 -0.5239  1.0760
  151SAPE  H18Y16788   2.111   6.443   8.681  1.0820  0.0797 -0.3152
  151SAPE  H18Z16789   2.256   6.338   8.695  0.8462  2.4094 -1.2366
  152SAPE     N16790   6.302   1.786   6.228 -0.4001 -0.0483  0.0819
  152SAPE   HN116791   6.296   1.824   6.325  0.2739 -0.8100  0.4319
  152SAPE   HN216792   6.339   1.864   6.171  1.0509 -1.0237 -0.3320
  152SAPE   HN316793   6.205   1.753   6.208 -0.9643  0.2432  2.1599
  152SAPE   C1216794   6.397   1.668   6.241  0.8007  0.3642 -0.2310
  152SAPE  H12A16795   6.496   1.707   6.272  0.7272 -1.8642  3.0506
  152SAPE  H12B16796   6.408   1.632   6.136 -0.3228 -1.6381  0.3113
  152SAPE   C1116797   6.351   1.562   6.342  0.8817 -0.6666 -0.0265
  152SAPE  H11A16798   6.346   1.614   6.440  2.3090  1.6722 -1.1320
  152SAPE  H11B16799   6.422   1.477   6.343  0.8625 -0.6768  0.3402
  152SAPE     P16800   6.152   1.405   6.380  0.2702  0.6851  0.4474
  152SAPE   O1316801   6.035   1.359   6.310  0.0031  0.6106  0.2660
  152SAPE   O1416802   6.261   1.313   6.400 -0.1233 -0.0192 -0.0644
  152SAPE   O1216803   6.222   1.523   6.298  0.1360 -0.1246 -1.2272
  152SAPE   O1116804   6.122   1.483   6.515  0.0046 -0.5890 -0.4316
  152SAPE    C116805   6.030   1.597   6.521 -0.4558  0.1035 -0.3660
  152SAPE    HA16806   6.072   1.680   6.459 -0.1980 -0.3203 -0.7680
  152SAPE    HB16807   5.936   1.572   6.468  0.1323  1.7103 -2.2286
  152SAPE    C216808   5.993   1.636   6.662 -0.2316 -0.4669 -0.3230
  152SAPE    HS16809   5.895   1.687   6.666 -0.4246 -0.8989  0.6354
  152SAPE   O2116810   6.089   1.718   6.724  0.0905  0.4717  0.0882
  152SAPE   C2116811   6.066   1.848   6.693 -0.2059  0.0199  0.5149
  152SAPE   O2216812   5.990   1.885   6.612 -0.0144 -0.4919 -0.3621
  152SAPE   C2216813   6.151   1.937   6.774 -0.5573 -0.5433  0.1500
  152SAPE   H2R16814   6.169   1.889   6.872 -2.5423 -2.5376 -0.3994
  152SAPE   H2S16815   6.245   1.952   6.716 -0.7291 -2.7034 -0.7771
  152SAPE    C316816   5.960   1.507   6.745 -0.0397 -0.0224 -0.8695
  152SAPE    HX16817   6.042   1.433   6.736 -1.4089 -1.6776 -0.1147
  152SAPE    HY16818   5.867   1.464   6.702 -0.3327  2.2960 -2.6308
  152SAPE   O3116819   5.925   1.533   6.888  0.0564  0.1425  0.1859
  152SAPE   C3116820   6.040   1.533   6.964  0.4560 -0.0979 -0.2487
  152SAPE   O3216821   6.149   1.503   6.932 -0.0271 -0.0427  0.3388
  152SAPE   C3216822   6.003   1.584   7.103  0.2091 -0.9320  0.9239
  152SAPE   H2X16823   5.893   1.571   7.115  0.2225 -3.5034 -1.3739
  152SAPE   H2Y16824   6.019   1.694   7.107 -0.4432 -0.8727  2.1394
  152SAPE   C2316825   6.088   2.074   6.804  0.2715 -0.3429 -0.0090
  152SAPE   H3R16826   6.093   2.141   6.715 -0.4132  1.7227  1.4832
  152SAPE   H3S16827   6.156   2.121   6.878 -1.4402 -0.3253  1.5930
  152SAPE   C2416828   5.950   2.083   6.867  0.2465  0.9566 -0.3622
  152SAPE   H4R16829   5.881   2.049   6.787 -0.2958  0.1626  0.4193
  152SAPE   H4S16830   5.929   2.186   6.902  0.1316  0.8009  0.0290
  152SAPE   C2516831   5.921   1.983   6.977 -0.5164  0.8001  0.5250
  152SAPE   H5R16832   5.933   1.878   6.946 -0.3053  0.2255  2.5170
  152SAPE   C2616833   5.891   2.011   7.104  0.8239  0.5460 -0.4119
  152SAPE   H6R16834   5.884   1.926   7.174  1.8726  0.9226  0.1636
  152SAPE   C2716835   5.867   2.151   7.168  0.1483  0.0214 -0.0325
  152SAPE   H7R16836   5.762   2.146   7.205  0.4517 -3.0172  0.5978
  152SAPE   H7S16837   5.879   2.240   7.103 -0.7514 -0.0713 -0.3337
  152SAPE   C2816838   5.961   2.171   7.284  0.8037 -0.4233  1.0070
  152SAPE   H8R16839   6.048   2.230   7.251  0.4977 -0.3944  0.2424
  152SAPE   C2916840   5.949   2.134   7.412 -0.1517  0.6015 -0.1268
  152SAPE   H9R16841   6.019   2.166   7.489 -0.0351 -1.5213  0.6738
  152SAPE  C21016842   5.831   2.043   7.466 -0.2988 -0.3204 -0.1798
  152SAPE  H10R16843   5.859   1.936   7.455 -1.4975 -0.7993  1.2253
  152SAPE  H10S16844   5.737   2.058   7.410  0.7675  2.3871 -1.3659
  152SAPE  C21116845   5.800   2.081   7.609 -0.1166  0.0649  0.5911
  152SAPE  H11R16846   5.858   2.036   7.690 -0.5319 -1.6797 -0.0495
  152SAPE  C21216847   5.709   2.176   7.641 -0.3298  0.2557 -0.9940
  152SAPE  H12R16848   5.707   2.193   7.750  0.9381  0.2089 -0.9460
  152SAPE  C21316849   5.624   2.261   7.555 -0.3683 -0.1017 -1.0779
  152SAPE  H13R16850   5.519   2.259   7.592 -0.1146  1.6391 -0.2372
  152SAPE  H13S16851   5.620   2.206   7.459 -3.5334  0.8020 -1.5270
  152SAPE  C21416852   5.670   2.403   7.529  0.8101 -1.3917  0.0005
  152SAPE  H14R16853   5.730   2.423   7.439 -0.0088 -0.2962 -0.3191
  152SAPE  C21516854   5.632   2.507   7.605 -0.8840 -0.6254 -0.5312
  152SAPE  H15R16855   5.671   2.606   7.574  0.4669 -0.3603  1.8315
  152SAPE  C21616856   5.560   2.510   7.737  0.4512  0.0793  0.1458
  152SAPE  H16R16857   5.485   2.428   7.742  1.8323 -1.2508 -0.5098
  152SAPE  H16S16858   5.494   2.598   7.753 -0.4554 -0.5839  0.1496
  152SAPE  C21716859   5.641   2.505   7.872 -0.2802 -0.0124  0.9277
  152SAPE  H17R16860   5.706   2.594   7.882  2.0098 -1.6641  0.9770
  152SAPE  H17S16861   5.709   2.418   7.865 -1.0621 -0.6640  1.3398
  152SAPE  C21816862   5.549   2.480   7.996 -0.1767  0.3959 -0.1277
  152SAPE  H18R16863   5.549   2.370   8.010 -1.7389  0.3248 -0.6154
  152SAPE  H18S16864   5.444   2.514   7.985 -0.8588 -0.7229  2.4513
  152SAPE  C21916865   5.612   2.555   8.123  0.2531 -0.7151 -0.4875
  152SAPE  H19R16866   5.616   2.664   8.104  2.7746 -0.8374 -0.8259
  152SAPE  H19S16867   5.708   2.504   8.146  0.8824  0.0061 -1.4488
  152SAPE  C22016868   5.519   2.536   8.239 -0.1431  1.1041 -0.4235
  152SAPE  H20R16869   5.468   2.438   8.243  0.3814  0.7550 -1.9335
  152SAPE  H20S16870   5.439   2.613   8.249 -0.4230  0.5723  1.7103
  152SAPE  H20T16871   5.574   2.551   8.335  1.3183  0.7936 -1.2053
  152SAPE   C3316872   6.072   1.503   7.223 -0.3687 -1.4939  0.9623
  152SAPE   H3X16873   6.030   1.559   7.309  0.8696  1.2616 -0.1862
  152SAPE   H3Y16874   6.182   1.520   7.235 -0.0452 -2.4779 -0.4322
  152SAPE   C3416875   6.023   1.362   7.233 -0.7583  0.3961  0.2064
  152SAPE   H4X16876   6.053   1.310   7.140 -1.9439  0.2339 -0.0953
  152SAPE   H4Y16877   5.913   1.347   7.229 -0.5065 -1.4792 -0.3245
  152SAPE   C3516878   6.081   1.283   7.359 -0.0788  0.6599 -0.4677
  152SAPE   H5X16879   6.190   1.289   7.340  0.0946 -2.2849 -0.5951
  152SAPE   H5Y16880   6.060   1.178   7.329  0.5328 -0.0247  1.4194
  152SAPE   C3616881   6.036   1.313   7.494  0.6175  0.1494  0.7481
  152SAPE   H6X16882   5.928   1.288   7.504  0.3431  1.7784  2.2611
  152SAPE   H6Y16883   6.036   1.424   7.500 -0.2946  0.1013  1.9826
  152SAPE   C3716884   6.127   1.257   7.595  0.0409 -1.1888  0.0229
  152SAPE   H7X16885   6.233   1.280   7.569  0.1006 -1.3830  0.0884
  152SAPE   H7Y16886   6.143   1.147   7.585 -2.5973 -1.5412 -0.5587
  152SAPE   C3816887   6.099   1.321   7.736  0.9758 -0.2883  0.6915
  152SAPE   H8X16888   5.991   1.302   7.756  0.2922  0.4307 -2.1008
  152SAPE   H8Y16889   6.115   1.431   7.726 -1.6094 -0.0175 -1.1935
  152SAPE   C3916890   6.169   1.263   7.853 -0.0937 -0.8314  0.5728
  152SAPE   H9X16891   6.279   1.268   7.836  0.1825  0.1563  2.4359
  152SAPE   H9Y16892   6.153   1.153   7.858  1.2346 -0.9718  2.8962
  152SAPE  C31016893   6.142   1.329   7.989  0.8326 -0.3141  0.3684
  152SAPE  H10X16894   6.193   1.277   8.073 -0.6908  0.2447  1.6646
  152SAPE  H10Y16895   6.031   1.338   7.999  0.6794 -0.7942 -0.7840
  152SAPE  C31116896   6.203   1.468   7.980  0.2719 -0.4818  0.2465
  152SAPE  H11X16897   6.171   1.537   7.899  2.9444 -1.0355 -1.3662
  152SAPE  H11Y16898   6.309   1.455   7.951  0.1332  0.1228 -0.5408
  152SAPE  C31216899   6.193   1.540   8.111  0.1138 -0.2443 -0.3504
  152SAPE  H12X16900   6.254   1.482   8.183  1.2310  1.9618  0.5081
  152SAPE  H12Y16901   6.087   1.535   8.143  0.2534  0.8766  0.2740
  152SAPE  C31316902   6.239   1.679   8.100 -0.4881 -0.4996  0.5959
  152SAPE  H13X16903   6.165   1.746   8.051 -1.5663 -0.3447  2.3964
  152SAPE  H13Y16904   6.332   1.682   8.040  0.1700  1.0988  1.6547
  152SAPE  C31416905   6.251   1.738   8.244 -0.5197  0.4684 -0.0926
  152SAPE  H14X16906   6.332   1.685   8.299 -2.7267 -0.9326  1.9513
  152SAPE  H14Y16907   6.155   1.731   8.300 -0.9116  3.7809 -0.2780
  152SAPE  C31516908   6.293   1.884   8.259  0.1701  0.2490 -0.6089
  152SAPE  H15X16909   6.222   1.950   8.204 -2.9797 -0.3846  2.4973
  152SAPE  H15Y16910   6.395   1.904   8.220  0.8416 -1.5101  0.1917
  152SAPE  C31616911   6.302   1.929   8.403 -0.3657 -0.4139 -0.4687
  152SAPE  H16X16912   6.311   1.841   8.470  0.1542 -0.2782 -0.3593
  152SAPE  H16Y16913   6.209   1.980   8.437  1.0918  0.8713  1.6559
  152SAPE  C31716914   6.425   2.030   8.417 -0.5290 -0.0069  0.7373
  152SAPE  H17X16915   6.406   2.117   8.349  0.5363 -0.7762 -0.5777
  152SAPE  H17Y16916   6.510   1.971   8.376  0.6417  0.6318  2.1821
  152SAPE  C31816917   6.444   2.058   8.568 -1.1958 -0.0730  0.0997
  152SAPE  H18X16918   6.544   2.106   8.567 -0.8106 -0.8617 -1.2620
  152SAPE  H18Y16919   6.446   1.976   8.643  0.6936  0.5752  0.7794
  152SAPE  H18Z16920   6.364   2.126   8.603 -1.9497 -1.7367  1.6859
  153SAPE     N16921   2.827   2.035   6.098  0.4479  0.0773 -0.8886
  153SAPE   HN116922   2.806   2.132   6.067 -0.0113  0.3063  0.1215
  153SAPE   HN216923   2.902   2.001   6.034  0.1815  1.8570 -2.1808
  153SAPE   HN316924   2.743   1.973   6.094 -0.4411  1.3298 -1.8965
  153SAPE   C1216925   2.878   2.037   6.241 -0.1694 -0.5647 -0.4079
  153SAPE  H12A16926   2.961   2.112   6.243  1.3375 -2.1902 -0.7825
  153SAPE  H12B16927   2.933   1.943   6.263  0.1690 -0.3092 -0.1459
  153SAPE   C1116928   2.761   2.063   6.333  0.0475 -0.0164 -0.1281
  153SAPE  H11A16929   2.740   2.171   6.314  0.5823  0.1179  0.0269
  153SAPE  H11B16930   2.785   2.048   6.440  0.8475  0.1488 -0.2829
  153SAPE     P16931   2.500   2.027   6.332 -0.1791  0.0875 -0.0541
  153SAPE   O1316932   2.457   2.127   6.233  0.1572  0.7159  0.3720
  153SAPE   O1416933   2.420   1.902   6.347  0.1426  0.0098 -0.3582
  153SAPE   O1216934   2.649   1.986   6.292 -0.2732 -0.9374 -0.1267
  153SAPE   O1116935   2.520   2.098   6.471  0.3342 -0.9317  0.4407
  153SAPE    C116936   2.407   2.118   6.555 -0.3272 -0.0589 -0.2462
  153SAPE    HA16937   2.330   2.039   6.547 -1.7499  1.4534 -2.0575
  153SAPE    HB16938   2.442   2.121   6.661 -0.5058  2.2486 -0.2267
  153SAPE    C216939   2.346   2.264   6.541 -0.4809  0.1685 -0.0533
  153SAPE    HS16940   2.321   2.279   6.433  0.9597  0.0606 -0.4032
  153SAPE   O2116941   2.427   2.362   6.597  0.1127  0.0909  0.0189
  153SAPE   C2116942   2.479   2.447   6.508  0.5980  1.0215  0.4227
  153SAPE   O2216943   2.472   2.446   6.389 -0.5250  0.3473 -0.0196
  153SAPE   C2216944   2.571   2.539   6.593  0.0303 -0.0051 -0.4172
  153SAPE   H2R16945   2.584   2.505   6.698  1.1785  0.4800 -0.3935
  153SAPE   H2S16946   2.669   2.516   6.546  0.4964 -1.3228  1.1390
  153SAPE    C316947   2.214   2.272   6.618  0.5799 -0.0959  0.3415
  153SAPE    HX16948   2.241   2.232   6.718 -2.1261  0.4565  1.3132
  153SAPE    HY16949   2.139   2.210   6.564  0.4879  0.1501  0.1875
  153SAPE   O3116950   2.166   2.411   6.614  0.7517 -0.6482  0.4980
  153SAPE   C3116951   2.054   2.442   6.545 -0.9709  0.3617  0.1279
  153SAPE   O3216952   1.991   2.361   6.481 -0.5962  0.1563  0.1140
  153SAPE   C3216953   2.012   2.591   6.569 -0.0267 -0.0118 -0.0359
  153SAPE   H2X16954   1.953   2.634   6.486  0.5749  1.4531  0.2840
  153SAPE   H2Y16955   2.102   2.657   6.570  0.3118 -0.4805  1.5083
  153SAPE   C2316956   2.536   2.692   6.573  0.2870  0.2290  0.5331
  153SAPE   H3R16957   2.426   2.698   6.572  0.2148 -0.8580  1.4476
  153SAPE   H3S16958   2.573   2.724   6.473 -1.3592 -0.0349 -0.1660
  153SAPE   C2416959   2.577   2.781   6.689 -0.1399  0.0253 -0.4272
  153SAPE   H4R16960   2.532   2.730   6.777 -1.1605  0.9973 -0.3837
  153SAPE   H4S16961   2.530   2.880   6.673 -1.4604 -0.7329 -1.3706
  153SAPE   C2516962   2.725   2.804   6.702 -0.6736 -0.8525  0.1647
  153SAPE   H5R16963   2.768   2.856   6.615  0.1590 -0.5061  0.7816
  153SAPE   C2616964   2.804   2.774   6.807  0.0892 -0.2041 -0.8439
  153SAPE   H6R16965   2.912   2.790   6.799  0.0829  1.5799  1.7948
  153SAPE   C2716966   2.769   2.707   6.931  0.5285 -0.2804  0.7249
  153SAPE   H7R16967   2.658   2.702   6.940  0.0395  2.9241 -2.3725
  153SAPE   H7S16968   2.808   2.765   7.017  1.7761  0.9042 -0.6151
  153SAPE   C2816969   2.823   2.566   6.930  0.1482 -0.1074  0.2945
  153SAPE   H8R16970   2.753   2.491   6.892  0.1348  1.0401 -2.0564
  153SAPE   C2916971   2.942   2.519   6.964 -0.0457 -0.6542  0.6006
  153SAPE   H9R16972   2.970   2.413   6.961  1.8379 -0.2650  2.7395
  153SAPE  C21016973   3.060   2.598   7.022 -0.0396  0.3410  0.1054
  153SAPE  H10R16974   3.022   2.696   7.058  1.6517  0.0994  2.6846
  153SAPE  H10S16975   3.137   2.618   6.946 -0.6628  0.4786 -0.4966
  153SAPE  C21116976   3.132   2.522   7.127  0.0864  0.3393 -0.3571
  153SAPE  H11R16977   3.240   2.513   7.109 -0.0914 -0.4935 -1.0456
  153SAPE  C21216978   3.088   2.483   7.252 -0.0670 -0.0723 -0.0352
  153SAPE  H12R16979   3.162   2.442   7.323 -0.0716  0.9962  0.5943
  153SAPE  C21316980   2.952   2.508   7.305  1.4251 -0.1574 -0.0902
  153SAPE  H13R16981   2.873   2.459   7.245  0.7807  0.2065  0.4446
  153SAPE  H13S16982   2.932   2.616   7.289 -0.1463 -0.7699 -2.5950
  153SAPE  C21416983   2.938   2.480   7.450  0.3543 -0.3815 -0.1215
  153SAPE  H14R16984   3.028   2.497   7.511 -0.5479 -1.6426  1.5722
  153SAPE  C21516985   2.832   2.427   7.508  1.0122 -0.6880 -0.1598
  153SAPE  H15R16986   2.841   2.410   7.616 -1.6389 -0.6430  0.1102
  153SAPE  C21616987   2.706   2.388   7.438 -0.2717  0.5332  0.3064
  153SAPE  H16R16988   2.724   2.300   7.373 -2.3704  0.4971 -0.2747
  153SAPE  H16S16989   2.679   2.474   7.372  1.5423  3.6607  3.4401
  153SAPE  C21716990   2.579   2.378   7.528 -0.2453 -0.8559  0.0219
  153SAPE  H17R16991   2.593   2.301   7.607 -0.3856  0.8007  1.6902
  153SAPE  H17S16992   2.497   2.347   7.460  0.3660 -0.7135 -0.7841
  153SAPE  C21816993   2.558   2.509   7.602 -0.5743 -0.3882 -0.8393
  153SAPE  H18R16994   2.559   2.587   7.523  1.4790  2.1662  1.6474
  153SAPE  H18S16995   2.644   2.523   7.671 -1.6556  0.5707  0.3106
  153SAPE  C21916996   2.427   2.504   7.677  0.0110 -0.3262 -0.3749
  153SAPE  H19R16997   2.348   2.458   7.614  0.0059 -0.6530 -0.1248
  153SAPE  H19S16998   2.396   2.609   7.697 -1.7420 -0.8139 -0.5140
  153SAPE  C22016999   2.447   2.437   7.815 -0.3507 -0.3250  0.2071
  153SAPE  H20R17000   2.478   2.333   7.796 -0.7150 -0.2459 -0.8677
  153SAPE  H20S17001   2.353   2.432   7.874 -0.0572  0.0914  0.7113
  153SAPE  H20T17002   2.523   2.489   7.877 -0.1858 -2.2712  1.6623
  153SAPE   C3317003   1.945   2.617   6.704 -0.8728 -0.7475  0.5982
  153SAPE   H3X17004   1.924   2.724   6.728  1.6359 -0.5003  1.7871
  153SAPE   H3Y17005   2.014   2.582   6.784  1.0264  0.0189 -0.6669
  153SAPE   C3417006   1.803   2.557   6.725  0.5598  0.3399  0.1054
  153SAPE   H4X17007   1.795   2.448   6.704  0.6535  0.4200 -0.3409
  153SAPE   H4Y17008   1.726   2.607   6.662 -0.5310 -1.1378  0.2404
  153SAPE   C3517009   1.761   2.572   6.869  0.4039  0.0559 -0.6041
  153SAPE   H5X17010   1.651   2.559   6.866  0.3763  0.4225 -1.1333
  153SAPE   H5Y17011   1.781   2.671   6.914 -1.1083  0.9020 -1.7474
  153SAPE   C3617012   1.820   2.460   6.955  0.9185  0.5454 -0.2070
  153SAPE   H6X17013   1.928   2.448   6.933  0.0150 -1.5889 -4.0444
  153SAPE   H6Y17014   1.782   2.362   6.920 -1.7951  2.2781 -2.3665
  153SAPE   C3717015   1.799   2.471   7.105  0.6631 -0.6508 -0.4105
  153SAPE   H7X17016   1.807   2.376   7.162  0.2181 -1.2628 -1.3517
  153SAPE   H7Y17017   1.697   2.505   7.131  0.7422 -1.6778  1.3023
  153SAPE   C3817018   1.905   2.565   7.168 -0.5719 -0.0163  0.4154
  153SAPE   H8X17019   1.872   2.668   7.145  0.2942  0.4859  1.3250
  153SAPE   H8Y17020   2.001   2.544   7.116 -0.1404  0.5234  0.9786
  153SAPE   C3917021   1.942   2.558   7.320  0.0523 -0.3330 -0.6239
  153SAPE   H9X17022   2.021   2.636   7.327 -2.2447  2.1299 -1.1142
  153SAPE   H9Y17023   1.971   2.458   7.358 -0.6666  0.8877  3.3743
  153SAPE  C31017024   1.835   2.604   7.408 -0.5876  0.4297  0.3065
  153SAPE  H10X17025   1.746   2.541   7.386 -0.3938 -0.1508  1.1646
  153SAPE  H10Y17026   1.810   2.711   7.394  0.4605  0.8210  1.3562
  153SAPE  C31117027   1.866   2.582   7.563 -0.1404 -0.1035  0.0815
  153SAPE  H11X17028   1.893   2.475   7.572  0.8792 -0.1330 -2.7142
  153SAPE  H11Y17029   1.773   2.613   7.615 -0.3710 -0.0310 -0.3646
  153SAPE  C31217030   1.978   2.666   7.616  0.0596 -0.0267 -0.2767
  153SAPE  H12X17031   1.955   2.767   7.575 -1.3584 -0.8825 -1.6160
  153SAPE  H12Y17032   2.067   2.621   7.567  1.0832  0.2476  1.2829
  153SAPE  C31317033   1.988   2.680   7.775 -0.3789  0.3099 -0.5385
  153SAPE  H13X17034   1.967   2.580   7.819 -0.7667  0.1698 -1.0276
  153SAPE  H13Y17035   1.906   2.752   7.795 -0.2246  0.4397 -0.3673
  153SAPE  C31417036   2.121   2.741   7.828  0.6172  0.1337  0.5981
  153SAPE  H14X17037   2.128   2.843   7.784 -1.3385 -0.5179 -1.3330
  153SAPE  H14Y17038   2.212   2.684   7.801 -0.0562  1.0024 -3.8980
  153SAPE  C31517039   2.124   2.770   7.971  0.0516  0.1019 -0.2098
  153SAPE  H15X17040   2.058   2.703   8.030  0.0959 -0.9653 -1.3624
  153SAPE  H15Y17041   2.068   2.865   7.989  2.4267  0.8066  4.2917
  153SAPE  C31617042   2.272   2.764   8.020 -0.0020 -0.0603 -0.5784
  153SAPE  H16X17043   2.316   2.853   7.970 -1.3498  0.5958 -0.6202
  153SAPE  H16Y17044   2.326   2.674   7.983  1.1846  0.1445  0.5957
  153SAPE  C31717045   2.265   2.754   8.174  0.1283  1.4084  0.0630
  153SAPE  H17X17046   2.191   2.823   8.218  0.9974  1.6764  1.1257
  153SAPE  H17Y17047   2.362   2.782   8.221  1.1846 -3.0465  0.7029
  153SAPE  C31817048   2.221   2.608   8.224 -0.5078 -0.6312  0.2298
  153SAPE  H18X17049   2.112   2.588   8.220 -0.9696  1.3948  1.7883
  153SAPE  H18Y17050   2.251   2.607   8.331 -0.8788 -0.6027  0.3319
  153SAPE  H18Z17051   2.280   2.531   8.169  2.9184  2.8188 -1.2004
  154SAPE     N17052   0.921   1.417   6.063 -0.5553  0.2999 -0.3680
  154SAPE   HN117053   0.878   1.497   6.113 -1.2805 -0.3584  0.0532
  154SAPE   HN217054   1.004   1.457   6.013  0.3522 -0.9917  0.0731
  154SAPE   HN317055   0.854   1.380   5.993 -0.0532 -0.6400 -0.3743
  154SAPE   C1217056   0.938   1.306   6.163 -1.1462  0.4572  0.1674
  154SAPE  H12A17057   1.013   1.344   6.235  0.4918 -0.5856 -0.9332
  154SAPE  H12B17058   0.978   1.218   6.108 -0.4560  0.5905  0.4553
  154SAPE   C1117059   0.808   1.260   6.234  0.1304  0.2728  0.2335
  154SAPE  H11A17060   0.766   1.343   6.294 -0.0665  2.3957 -2.6963
  154SAPE  H11B17061   0.837   1.176   6.300 -0.9007 -0.9899 -0.8857
  154SAPE     P17062   0.702   1.064   6.083  0.2888 -0.1248 -0.2631
  154SAPE   O1317063   0.581   1.066   6.000  0.1157  0.2105  0.3557
  154SAPE   O1417064   0.828   1.003   6.034  0.1455  0.3259 -0.0246
  154SAPE   O1217065   0.721   1.212   6.130 -0.8946  0.3942 -0.3529
  154SAPE   O1117066   0.658   0.988   6.218 -0.3548 -0.1148  0.7362
  154SAPE    C117067   0.539   1.043   6.286 -0.1898 -0.0611 -1.1480
  154SAPE    HA17068   0.541   1.154   6.283  0.5276 -0.0167  0.4056
  154SAPE    HB17069   0.447   1.005   6.237 -0.6507 -1.3764  0.7009
  154SAPE    C217070   0.536   0.990   6.436  0.4273 -0.0688  0.0498
  154SAPE    HS17071   0.434   1.019   6.468 -0.7265 -0.8151 -2.7847
  154SAPE   O2117072   0.630   1.043   6.527 -0.0080  0.1001  0.6365
  154SAPE   C2117073   0.597   1.051   6.655  0.0881  0.4271  0.1742
  154SAPE   O2217074   0.488   1.027   6.699 -0.1919  0.2552 -0.2882
  154SAPE   C2217075   0.721   1.104   6.729  0.1349  0.8029 -0.5550
  154SAPE   H2R17076   0.806   1.090   6.659  1.9251  0.5164  1.6325
  154SAPE   H2S17077   0.707   1.210   6.759 -1.0044 -0.0061  1.8768
  154SAPE    C317078   0.541   0.840   6.433  0.1666  0.0596  0.4206
  154SAPE    HX17079   0.647   0.809   6.443 -0.0041 -0.3265  1.0271
  154SAPE    HY17080   0.519   0.801   6.331  0.5246 -1.7153  1.0010
  154SAPE   O3117081   0.459   0.777   6.536  0.5972 -0.3656  0.2220
  154SAPE   C3117082   0.338   0.743   6.511 -0.0045  0.5151  0.4101
  154SAPE   O3217083   0.291   0.718   6.399  0.7076  0.3633  0.0145
  154SAPE   C3217084   0.263   0.741   6.645 -0.4246 -0.3939 -0.6881
  154SAPE   H2X17085   0.335   0.772   6.724 -0.1974 -2.6819  0.0556
  154SAPE   H2Y17086   0.242   0.633   6.666 -1.7284 -0.3774 -1.7913
  154SAPE   C2317087   0.748   1.019   6.859  0.6786 -0.2762 -0.5520
  154SAPE   H3R17088   0.836   0.957   6.829 -0.9916 -2.6040 -0.7262
  154SAPE   H3S17089   0.669   0.943   6.873 -0.6338  0.5758 -2.9068
  154SAPE   C2417090   0.782   1.107   6.985  0.3677  1.2612 -0.5812
  154SAPE   H4R17091   0.688   1.145   7.030 -0.7508 -3.1696  1.0308
  154SAPE   H4S17092   0.856   1.184   6.954  0.2197  1.1388 -1.2628
  154SAPE   C2517093   0.859   1.023   7.074 -0.1946 -0.2051  0.1005
  154SAPE   H5R17094   0.891   0.928   7.029  0.2205  1.2045 -2.7209
  154SAPE   C2617095   0.890   1.050   7.202  0.4390 -0.5854  0.4394
  154SAPE   H6R17096   0.951   0.978   7.259  2.3669  1.4171  0.9788
  154SAPE   C2717097   0.847   1.181   7.264 -0.4788 -0.0707  0.6180
  154SAPE   H7R17098   0.755   1.221   7.218 -0.3445  0.3171  0.6812
  154SAPE   H7S17099   0.926   1.259   7.255 -0.6203 -0.1317 -1.3613
  154SAPE   C2817100   0.813   1.154   7.409  0.4077 -0.1418 -0.3421
  154SAPE   H8R17101   0.709   1.122   7.420 -0.3098  1.5650 -1.8236
  154SAPE   C2917102   0.898   1.160   7.513  0.1116 -0.4052 -0.1505
  154SAPE   H9R17103   0.851   1.139   7.610 -1.6724  0.5139 -0.8049
  154SAPE  C21017104   1.046   1.178   7.507  0.1165  0.3645 -0.7035
  154SAPE  H10R17105   1.089   1.264   7.562 -0.0266  0.1037 -0.1802
  154SAPE  H10S17106   1.076   1.205   7.403  0.1144 -1.5926 -1.2417
  154SAPE  C21117107   1.122   1.046   7.526 -0.7884  0.2497 -0.4479
  154SAPE  H11R17108   1.153   1.002   7.430 -0.2983  1.0412 -0.6661
  154SAPE  C21217109   1.187   1.004   7.641 -0.2197 -0.3923 -0.0672
  154SAPE  H12R17110   1.250   0.914   7.630  1.0234  0.5535 -0.7426
  154SAPE  C21317111   1.180   1.078   7.771  0.0256 -0.3021 -0.0640
  154SAPE  H13R17112   1.114   1.166   7.754  1.7689  1.3998  1.7609
  154SAPE  H13S17113   1.280   1.118   7.797  0.3025 -1.0298 -0.0053
  154SAPE  C21417114   1.137   0.990   7.890 -0.9282  0.1819 -0.0349
  154SAPE  H14R17115   1.165   0.885   7.870  3.7099  1.6467 -2.0348
  154SAPE  C21517116   1.055   1.027   7.986 -0.1658  0.1950  0.2566
  154SAPE  H15R17117   1.031   0.946   8.057 -0.4103  0.6204  0.6669
  154SAPE  C21617118   0.994   1.162   8.014 -0.1061  0.6638  0.2684
  154SAPE  H16R17119   0.892   1.171   7.970 -0.1812 -2.3315 -0.2408
  154SAPE  H16S17120   1.058   1.234   7.959 -0.1573  0.0339 -0.6191
  154SAPE  C21717121   0.987   1.172   8.167 -0.0765 -0.1750  0.3820
  154SAPE  H17R17122   0.937   1.085   8.215  0.9217 -1.4412 -0.8207
  154SAPE  H17S17123   0.917   1.252   8.198  1.2612  0.2333  2.4757
  154SAPE  C21817124   1.126   1.199   8.230 -0.0563  0.3438  0.2947
  154SAPE  H18R17125   1.174   1.278   8.167  0.8782  0.0408  0.6256
  154SAPE  H18S17126   1.199   1.116   8.231 -1.0320 -0.5182  0.2931
  154SAPE  C21917127   1.095   1.265   8.366  0.6853 -0.0161 -0.1994
  154SAPE  H19R17128   1.018   1.203   8.416  3.3086 -1.4491  2.2070
  154SAPE  H19S17129   1.055   1.366   8.343 -1.7758 -1.5366 -2.9748
  154SAPE  C22017130   1.217   1.276   8.458 -0.0494  0.1415  1.0668
  154SAPE  H20R17131   1.284   1.347   8.405 -0.1481 -1.2666 -0.9713
  154SAPE  H20S17132   1.263   1.176   8.470  3.3372  1.4157 -0.5411
  154SAPE  H20T17133   1.185   1.314   8.558  1.1859  0.4629  1.3551
  154SAPE   C3317134   0.128   0.816   6.641  0.6958  0.2110 -0.5569
  154SAPE   H3X17135   0.070   0.777   6.554  0.4815 -1.1799  0.1879
  154SAPE   H3Y17136   0.141   0.926   6.634 -0.4575  0.3185 -1.2049
  154SAPE   C3417137   0.045   0.780   6.762 -0.4692  0.2639 -0.1693
  154SAPE   H4X17138   0.112   0.783   6.850  0.1236  0.9422 -0.6392
  154SAPE   H4Y17139   0.009   0.678   6.740 -0.7876  0.6227 -1.3915
  154SAPE   C3517140  -0.067   0.888   6.790 -0.6401 -0.0567  0.0834
  154SAPE   H5X17141  -0.114   0.914   6.693  0.8884 -1.3589 -1.0307
  154SAPE   H5Y17142  -0.019   0.978   6.834  0.3201 -0.5801  0.1294
  154SAPE   C3617143  -0.164   0.845   6.895  0.5051 -0.1407 -0.4736
  154SAPE   H6X17144  -0.122   0.758   6.949 -0.8324  0.6751  1.9723
  154SAPE   H6Y17145  -0.253   0.805   6.842 -0.5094  0.0451  1.0423
  154SAPE   C3717146  -0.205   0.956   6.997  0.1225 -0.2135 -0.0191
  154SAPE   H7X17147  -0.226   1.053   6.947 -0.2245  0.1363  0.7907
  154SAPE   H7Y17148  -0.118   0.972   7.064 -0.2305  3.1737 -0.2852
  154SAPE   C3817149  -0.320   0.912   7.096  0.4521 -0.1589  0.3514
  154SAPE   H8X17150  -0.301   0.806   7.124  1.3581 -0.4646 -1.3408
  154SAPE   H8Y17151  -0.412   0.923   7.034  0.3589  4.1373  1.0664
  154SAPE   C3917152  -0.331   1.000   7.213 -0.0535 -0.5807 -0.5880
  154SAPE   H9X17153  -0.370   1.102   7.190  0.3795 -0.6879 -1.8003
  154SAPE   H9Y17154  -0.233   0.993   7.264 -0.1183 -0.5880 -0.4646
  154SAPE  C31017155  -0.440   0.945   7.311 -0.4146  0.3447  0.4936
  154SAPE  H10X17156  -0.406   0.841   7.329  2.1635  1.5413  2.7976
  154SAPE  H10Y17157  -0.541   0.949   7.265  0.3324  0.3899 -1.1793
  154SAPE  C31117158  -0.451   1.010   7.453 -0.2828  0.8412  0.0297
  154SAPE  H11X17159  -0.509   0.939   7.515  0.7022  1.0086  1.1515
  154SAPE  H11Y17160  -0.500   1.110   7.448 -1.2582  0.3703  0.1182
  154SAPE  C31217161  -0.320   1.035   7.527 -0.5380 -0.1082  0.1134
  154SAPE  H12X17162  -0.271   1.124   7.481  0.8495 -1.0757 -0.3140
  154SAPE  H12Y17163  -0.248   0.952   7.515 -2.0614 -1.4656  0.1416
  154SAPE  C31317164  -0.359   1.057   7.675  0.3577  0.1139 -0.4208
  154SAPE  H13X17165  -0.399   0.963   7.716 -0.1239 -0.4215 -2.0912
  154SAPE  H13Y17166  -0.441   1.131   7.682 -0.1786 -0.6936  2.7312
  154SAPE  C31417167  -0.236   1.095   7.761 -0.1591 -0.5459  0.5116
  154SAPE  H14X17168  -0.185   1.176   7.704  0.1972 -0.5294  0.8457
  154SAPE  H14Y17169  -0.167   1.008   7.761  1.4003  0.6530 -1.0644
  154SAPE  C31517170  -0.262   1.133   7.909 -0.0558 -0.4125  0.1311
  154SAPE  H15X17171  -0.345   1.070   7.948 -1.1009  0.3329 -0.8283
  154SAPE  H15Y17172  -0.304   1.236   7.897  1.8992  0.2472 -1.3780
  154SAPE  C31617173  -0.146   1.137   8.007  0.5054 -0.1115 -0.1341
  154SAPE  H16X17174  -0.074   1.214   7.971  0.8333 -1.3175 -2.1060
  154SAPE  H16Y17175  -0.091   1.041   8.005 -0.6206 -0.8090  1.9804
  154SAPE  C31717176  -0.193   1.168   8.149 -0.1711  0.1285  0.5085
  154SAPE  H17X17177  -0.281   1.108   8.183 -1.9738  2.0619 -0.6134
  154SAPE  H17Y17178  -0.227   1.273   8.149  2.0764  0.8826 -0.7438
  154SAPE  C31817179  -0.084   1.157   8.244  0.0788 -0.0008 -0.0135
  154SAPE  H18X17180   0.012   1.206   8.217  0.8617 -1.3317  0.3012
  154SAPE  H18Y17181  -0.072   1.047   8.255  0.9923 -0.1705 -2.4629
  154SAPE  H18Z17182  -0.115   1.206   8.339 -1.0573 -0.1821 -0.2839
  155SAPE     N17183   0.857   2.344   6.414 -0.3798 -0.1028  0.4884
  155SAPE   HN117184   0.802   2.365   6.500 -0.6084  1.3780  0.0011
  155SAPE   HN217185   0.926   2.419   6.396 -1.7426  0.3643 -3.0392
  155SAPE   HN317186   0.790   2.335   6.335 -0.5407  2.7579  0.2359
  155SAPE   C1217187   0.910   2.208   6.423 -0.1616 -0.4063  0.0183
  155SAPE  H12A17188   0.982   2.199   6.507 -0.4022  0.6134  0.3304
  155SAPE  H12B17189   0.969   2.185   6.331 -0.8962  0.4385 -0.6708
  155SAPE   C1117190   0.799   2.102   6.441  0.0392  0.2759 -0.8311
  155SAPE  H11A17191   0.729   2.128   6.523  2.0484 -1.0943  1.3835
  155SAPE  H11B17192   0.859   2.011   6.463 -0.6716  0.1338  0.5162
  155SAPE     P17193   0.635   1.950   6.303  0.0104 -0.1811 -0.0764
  155SAPE   O1317194   0.540   1.963   6.190  0.4949 -0.0209 -0.5979
  155SAPE   O1417195   0.737   1.847   6.291 -0.6744 -0.1861  0.2395
  155SAPE   O1217196   0.722   2.088   6.322  0.8626  0.6803 -0.4075
  155SAPE   O1117197   0.560   1.918   6.437 -0.5051 -0.2600 -0.5135
  155SAPE    C117198   0.422   1.951   6.454 -0.1347 -0.3714  0.4614
  155SAPE    HA17199   0.362   1.952   6.361  0.2535 -2.5285  0.1454
  155SAPE    HB17200   0.378   1.874   6.521  0.3902 -2.6599 -1.7339
  155SAPE    C217201   0.403   2.084   6.528 -0.0964  0.2079  0.4324
  155SAPE    HS17202   0.451   2.159   6.462  1.0606  0.1821  1.2409
  155SAPE   O2117203   0.464   2.079   6.654  0.0286  0.3850  0.8846
  155SAPE   C2117204   0.493   2.186   6.718 -0.3937 -0.7194 -0.3540
  155SAPE   O2217205   0.485   2.300   6.666  0.1338  0.7682  1.0233
  155SAPE   C2217206   0.543   2.159   6.861  0.4342  0.0764 -0.1727
  155SAPE   H2R17207   0.509   2.059   6.896 -0.1814  0.6699  0.9735
  155SAPE   H2S17208   0.654   2.159   6.868  0.4491 -4.4713  1.7839
  155SAPE    C317209   0.252   2.126   6.539 -0.7461 -0.1610  0.0483
  155SAPE    HX17210   0.219   2.133   6.433 -0.7637  1.0766  0.1371
  155SAPE    HY17211   0.221   2.225   6.577  1.5978  0.2657  0.9248
  155SAPE   O3117212   0.180   2.016   6.605 -0.1909 -0.4677  0.1373
  155SAPE   C3117213   0.165   2.042   6.731 -0.0654  0.4162  0.1420
  155SAPE   O3217214   0.218   2.136   6.792 -0.1234 -0.7569 -0.2222
  155SAPE   C3217215   0.081   1.926   6.791  0.0051 -1.0349 -0.6579
  155SAPE   H2X17216   0.138   1.831   6.789  0.0487 -0.9993 -1.4041
  155SAPE   H2Y17217  -0.018   1.926   6.741  0.3467 -1.9844 -1.3369
  155SAPE   C2317218   0.486   2.257   6.964 -0.0936  0.2547 -0.5505
  155SAPE   H3R17219   0.384   2.216   6.983 -0.8885  0.9590 -3.0983
  155SAPE   H3S17220   0.468   2.359   6.922 -1.8857 -0.1049 -0.7164
  155SAPE   C2417221   0.569   2.275   7.102  0.5394 -0.2702  0.3159
  155SAPE   H4R17222   0.534   2.360   7.164 -1.3283 -1.8711  1.5010
  155SAPE   H4S17223   0.676   2.295   7.079  1.1990 -0.7367  2.8972
  155SAPE   C2517224   0.562   2.144   7.173 -0.3192 -0.3215 -1.0890
  155SAPE   H5R17225   0.602   2.062   7.111  1.6845 -0.9932  1.0088
  155SAPE   C2617226   0.538   2.126   7.302  0.4992 -0.5613  0.2500
  155SAPE   H6R17227   0.534   2.023   7.339 -1.8329 -0.2775  0.8928
  155SAPE   C2717228   0.493   2.233   7.392 -0.0485  0.1062  0.2851
  155SAPE   H7R17229   0.412   2.197   7.459  1.1641  0.1813  1.8309
  155SAPE   H7S17230   0.447   2.318   7.337  0.0938  0.0217  0.0332
  155SAPE   C2817231   0.605   2.283   7.477 -0.5521  0.4502 -0.5837
  155SAPE   H8R17232   0.670   2.352   7.422  0.5171  0.2441  0.4100
  155SAPE   C2917233   0.646   2.240   7.600 -0.5299  0.2456 -0.2626
  155SAPE   H9R17234   0.739   2.283   7.640 -1.0868 -0.5078  1.8633
  155SAPE  C21017235   0.580   2.120   7.669  0.2290  0.5239  0.3406
  155SAPE  H10R17236   0.652   2.041   7.699 -0.5345  0.1027  1.0937
  155SAPE  H10S17237   0.513   2.063   7.602 -0.2495  1.3572  0.1098
  155SAPE  C21117238   0.495   2.160   7.789  0.1907  0.6941 -0.2683
  155SAPE  H11R17239   0.388   2.181   7.773  0.0435  0.5298  0.4374
  155SAPE  C21217240   0.541   2.175   7.914 -0.2406 -0.3416 -0.8144
  155SAPE  H12R17241   0.457   2.193   7.982 -1.6176 -0.1595 -2.5321
  155SAPE  C21317242   0.681   2.160   7.980  0.4972 -1.0795  0.2616
  155SAPE  H13R17243   0.729   2.257   8.006  0.2904 -0.4275 -1.7035
  155SAPE  H13S17244   0.756   2.136   7.901  1.0951 -0.6204  0.6875
  155SAPE  C21417245   0.689   2.054   8.084  0.1749  0.2687 -0.3667
  155SAPE  H14R17246   0.661   1.952   8.054 -1.1730  0.0579  1.5280
  155SAPE  C21517247   0.706   2.072   8.216 -0.9853  0.7596  0.8350
  155SAPE  H15R17248   0.704   1.986   8.285 -0.2785  1.4870  1.7835
  155SAPE  C21617249   0.733   2.208   8.278  0.3437 -0.3160  0.6531
  155SAPE  H16R17250   0.800   2.278   8.224  1.4164 -0.8554  1.2595
  155SAPE  H16S17251   0.784   2.188   8.375 -1.1218 -0.4919  1.3970
  155SAPE  C21717252   0.605   2.282   8.322  1.1209  0.3734  0.2229
  155SAPE  H17R17253   0.536   2.203   8.361  0.7554  0.6354  0.1154
  155SAPE  H17S17254   0.571   2.329   8.227 -0.5730  1.0713  1.1336
  155SAPE  C21817255   0.629   2.398   8.419 -0.1696  0.8538 -0.3246
  155SAPE  H18R17256   0.601   2.499   8.381  0.8072  1.8461  1.4984
  155SAPE  H18S17257   0.738   2.399   8.444 -0.0486  0.2883 -0.8322
  155SAPE  C21917258   0.533   2.381   8.538 -0.8870 -0.0655  0.4604
  155SAPE  H19R17259   0.536   2.280   8.582 -0.4625 -0.0593  0.4458
  155SAPE  H19S17260   0.428   2.387   8.502 -0.8553 -0.6563  0.2605
  155SAPE  C22017261   0.556   2.478   8.663 -0.2378  0.2090  0.6793
  155SAPE  H20R17262   0.484   2.455   8.745 -3.6266  4.1182 -1.0141
  155SAPE  H20S17263   0.543   2.583   8.628 -0.3030 -0.4409 -1.3066
  155SAPE  H20T17264   0.660   2.459   8.697  0.1277  0.9993 -0.0069
  155SAPE   C3317265   0.045   1.948   6.941  0.0803  0.1362  0.1100
  155SAPE   H3X17266  -0.022   1.863   6.967  0.3915  0.0923  0.7711
  155SAPE   H3Y17267  -0.003   2.047   6.961  0.0808  0.6757 -2.3090
  155SAPE   C3417268   0.160   1.944   7.046 -0.2693  0.3041 -0.7315
  155SAPE   H4X17269   0.195   2.050   7.040  0.7672 -0.0208 -0.5547
  155SAPE   H4Y17270   0.245   1.889   7.001 -0.0203 -1.8017  2.2184
  155SAPE   C3517271   0.114   1.896   7.189  0.3956  0.5121  0.0309
  155SAPE   H5X17272   0.121   1.787   7.205 -1.2833  0.3986  0.0121
  155SAPE   H5Y17273   0.006   1.919   7.199  0.2617 -0.3331  0.5599
  155SAPE   C3617274   0.175   1.960   7.310  1.0305 -0.8999 -0.6621
  155SAPE   H6X17275   0.179   2.071   7.298 -0.5404 -0.5088  1.9738
  155SAPE   H6Y17276   0.282   1.933   7.325  0.8675  0.0132  2.7270
  155SAPE   C3717277   0.098   1.934   7.443 -0.1396  0.5075  0.8365
  155SAPE   H7X17278   0.071   1.826   7.448  0.5271  0.2153 -1.2383
  155SAPE   H7Y17279   0.013   2.006   7.444  2.2351  3.4364  0.3966
  155SAPE   C3817280   0.185   1.976   7.557 -0.2103  0.2325  0.0585
  155SAPE   H8X17281   0.183   2.086   7.573 -0.7485  0.6294 -2.6261
  155SAPE   H8Y17282   0.291   1.948   7.540 -0.2587 -0.5703  1.0129
  155SAPE   C3917283   0.150   1.910   7.687  0.8532  0.2904 -0.0097
  155SAPE   H9X17284   0.143   1.799   7.677 -0.1500  0.2322  1.1888
  155SAPE   H9Y17285   0.048   1.946   7.713  0.0214 -0.1409 -2.5457
  155SAPE  C31017286   0.252   1.920   7.797 -0.0386  0.7953  0.5718
  155SAPE  H10X17287   0.264   2.024   7.834 -1.0069  0.3200  2.2996
  155SAPE  H10Y17288   0.345   1.881   7.749 -1.5506  0.3763 -2.0992
  155SAPE  C31117289   0.217   1.843   7.925 -0.6103  0.3261 -0.8227
  155SAPE  H11X17290   0.204   1.735   7.900 -0.5170  0.5662 -1.9341
  155SAPE  H11Y17291   0.123   1.887   7.963 -1.6799 -2.3952 -0.2293
  155SAPE  C31217292   0.322   1.874   8.032 -0.9024 -0.3604 -0.7815
  155SAPE  H12X17293   0.308   1.981   8.059  2.8060  0.3444 -1.3400
  155SAPE  H12Y17294   0.428   1.844   8.017 -1.2499 -2.2039  0.3098
  155SAPE  C31317295   0.270   1.815   8.168  0.1079 -0.0456  0.2442
  155SAPE  H13X17296   0.274   1.704   8.161  0.2228 -0.0623  0.5869
  155SAPE  H13Y17297   0.160   1.826   8.183 -0.3519 -1.5510 -1.6991
  155SAPE  C31417298   0.353   1.851   8.288 -0.0812 -0.4440  0.9576
  155SAPE  H14X17299   0.396   1.950   8.262 -0.0126 -0.9866 -1.1282
  155SAPE  H14Y17300   0.437   1.777   8.291 -0.6136 -1.3423 -2.8980
  155SAPE  C31517301   0.282   1.840   8.424 -0.2636 -0.1213  0.1324
  155SAPE  H15X17302   0.247   1.735   8.439  1.3423 -0.7686 -0.5037
  155SAPE  H15Y17303   0.193   1.904   8.409 -0.0813 -0.0502 -0.6713
  155SAPE  C31617304   0.355   1.907   8.535 -0.2798 -0.7370  1.0231
  155SAPE  H16X17305   0.385   2.010   8.506  0.0908 -0.5679  1.9811
  155SAPE  H16Y17306   0.450   1.851   8.544 -0.0304 -0.6747 -1.1351
  155SAPE  C31717307   0.282   1.919   8.672 -0.3462  0.1341 -0.0188
  155SAPE  H17X17308   0.252   1.816   8.698 -0.3908 -0.0208 -0.6797
  155SAPE  H17Y17309   0.178   1.959   8.670  0.0863  1.2687  0.0334
  155SAPE  C31817310   0.360   1.984   8.789 -0.7622  0.1093 -0.5028
  155SAPE  H18X17311   0.289   1.997   8.874 -1.5247  0.7646 -1.2388
  155SAPE  H18Y17312   0.409   2.077   8.753  1.0971 -0.1775  1.1407
  155SAPE  H18Z17313   0.444   1.920   8.825  0.2040  2.1112  0.9026
  156SAPE     N17314   6.043   2.787   6.315 -0.2221  0.3010  0.2773
  156SAPE   HN117315   6.143   2.808   6.331 -0.0056 -0.9467  0.5295
  156SAPE   HN217316   6.024   2.698   6.364 -3.0673  0.6411 -0.1186
  156SAPE   HN317317   6.034   2.778   6.212  0.5277  1.5908  0.0898
  156SAPE   C1217318   5.941   2.887   6.362  0.4318 -0.3196  0.3634
  156SAPE  H12A17319   5.976   2.986   6.325 -4.8019  1.1321 -1.0491
  156SAPE  H12B17320   5.941   2.902   6.472  0.1832  0.8761  0.2068
  156SAPE   C1117321   5.805   2.859   6.304  0.4599  0.2133  0.7201
  156SAPE  H11A17322   5.820   2.845   6.195  0.3773  0.6790  0.6458
  156SAPE  H11B17323   5.743   2.951   6.315  0.2349 -0.0875  1.9777
  156SAPE     P17324   5.660   2.739   6.482  0.4927 -0.4750  0.0921
  156SAPE   O1317325   5.566   2.852   6.446 -0.4151 -0.3148 -0.1382
  156SAPE   O1417326   5.603   2.604   6.501 -0.2166 -0.2757 -0.0152
  156SAPE   O1217327   5.759   2.733   6.365  0.0018 -0.4856  0.5593
  156SAPE   O1117328   5.745   2.779   6.605 -0.3918 -0.1753 -0.8359
  156SAPE    C117329   5.851   2.704   6.665  0.2493 -0.5335 -0.5994
  156SAPE    HA17330   5.907   2.645   6.589  0.0398  0.6291 -1.6696
  156SAPE    HB17331   5.926   2.774   6.707  0.3974 -1.3719  0.5679
  156SAPE    C217332   5.804   2.602   6.768  0.7699 -0.1172  0.3323
  156SAPE    HS17333   5.752   2.524   6.708  0.9550  0.9423 -1.2376
  156SAPE   O2117334   5.709   2.662   6.856  1.1212  0.2771  0.4034
  156SAPE   C2117335   5.623   2.581   6.914 -0.7063 -0.1887  0.5591
  156SAPE   O2217336   5.593   2.471   6.875 -0.0391 -0.0336 -0.6667
  156SAPE   C2217337   5.551   2.657   7.036  0.1440  0.0044 -0.1164
  156SAPE   H2R17338   5.623   2.719   7.093 -1.5067  1.5159  0.3482
  156SAPE   H2S17339   5.480   2.735   7.002  0.8688 -0.1613 -2.0310
  156SAPE    C317340   5.926   2.537   6.835  0.2356  0.1155  0.3098
  156SAPE    HX17341   5.992   2.506   6.752  0.2285  2.2859 -0.5442
  156SAPE    HY17342   5.897   2.452   6.899  1.0750 -1.0096 -0.7830
  156SAPE   O3117343   5.991   2.633   6.919 -0.9050  0.0472 -0.0762
  156SAPE   C3117344   6.122   2.601   6.949 -0.5837 -0.1547 -0.3896
  156SAPE   O3217345   6.184   2.516   6.894  0.0529 -0.2752  0.1379
  156SAPE   C3217346   6.170   2.691   7.063 -0.5393  0.5249  1.1577
  156SAPE   H2X17347   6.145   2.798   7.051 -0.3397  0.4020 -0.4306
  156SAPE   H2Y17348   6.279   2.675   7.051 -0.3258  2.7219 -0.0201
  156SAPE   C2317349   5.467   2.565   7.122 -0.4961  0.3229 -0.2627
  156SAPE   H3R17350   5.522   2.477   7.162 -0.3525  1.1061  1.3047
  156SAPE   H3S17351   5.376   2.535   7.067  0.6947 -1.6694 -1.1926
  156SAPE   C2417352   5.419   2.634   7.256  1.2306  0.6888 -0.4706
  156SAPE   H4R17353   5.508   2.640   7.322  0.4928  0.5847  0.5545
  156SAPE   H4S17354   5.343   2.568   7.304  0.0889 -0.1906 -3.3916
  156SAPE   C2517355   5.377   2.780   7.237  0.0027 -0.3216  0.1324
  156SAPE   H5R17356   5.446   2.846   7.182 -0.2252 -1.4196 -1.5190
  156SAPE   C2617357   5.257   2.824   7.274  0.0876  0.2904 -0.2945
  156SAPE   H6R17358   5.231   2.928   7.248 -3.9270  0.0474  2.2764
  156SAPE   C2717359   5.148   2.745   7.342 -0.3080  0.5547  0.4870
  156SAPE   H7R17360   5.093   2.815   7.408  1.7987  0.1570  2.7288
  156SAPE   H7S17361   5.198   2.668   7.405  3.6225 -0.1612 -3.2733
  156SAPE   C2817362   5.074   2.668   7.234  0.1186  0.0465  0.6337
  156SAPE   H8R17363   5.121   2.672   7.134 -0.3250  1.8061  0.4750
  156SAPE   C2917364   4.966   2.591   7.265  0.0148 -0.0186 -0.6138
  156SAPE   H9R17365   4.918   2.521   7.195 -0.7115 -0.2722  0.1237
  156SAPE  C21017366   4.904   2.574   7.405  0.0940  0.5474 -0.1532
  156SAPE  H10R17367   4.965   2.622   7.484 -0.5401  1.2445 -0.0810
  156SAPE  H10S17368   4.905   2.465   7.426 -1.3546  0.4463 -0.5441
  156SAPE  C21117369   4.766   2.634   7.404  0.0374 -0.2536 -0.1168
  156SAPE  H11R17370   4.764   2.730   7.351  2.5207  1.0079  1.9309
  156SAPE  C21217371   4.663   2.598   7.486  0.2441  0.7226 -0.1408
  156SAPE  H12R17372   4.570   2.655   7.471 -0.7008 -0.4775  1.0122
  156SAPE  C21317373   4.653   2.477   7.580 -0.3586 -0.5450  0.0930
  156SAPE  H13R17374   4.602   2.512   7.672 -1.7367 -0.1788 -0.8056
  156SAPE  H13S17375   4.759   2.461   7.610  0.0765  1.0352 -0.5949
  156SAPE  C21417376   4.582   2.357   7.518  0.3956  0.4035  0.9261
  156SAPE  H14R17377   4.607   2.348   7.412 -0.2529  0.0299  0.8003
  156SAPE  C21517378   4.494   2.275   7.570  0.4600 -0.2923 -0.0987
  156SAPE  H15R17379   4.449   2.188   7.520  1.5846 -0.7513 -0.3300
  156SAPE  C21617380   4.447   2.267   7.714  0.5374 -0.0460  0.3330
  156SAPE  H16R17381   4.518   2.317   7.783  0.0700  1.1179 -0.0041
  156SAPE  H16S17382   4.440   2.159   7.739 -1.8354 -0.4034 -1.6209
  156SAPE  C21717383   4.306   2.331   7.722  0.2219  0.1574  0.3224
  156SAPE  H17R17384   4.243   2.303   7.635  0.2159  0.9355  0.0634
  156SAPE  H17S17385   4.304   2.443   7.719  3.1757  0.2532  0.5769
  156SAPE  C21817386   4.244   2.304   7.855 -0.2092 -0.4495 -0.3044
  156SAPE  H18R17387   4.168   2.380   7.882 -0.3311 -0.4880 -0.5377
  156SAPE  H18S17388   4.327   2.300   7.929  0.7193 -0.0613 -1.2949
  156SAPE  C21917389   4.166   2.171   7.845  0.1063 -0.0589 -0.3417
  156SAPE  H19R17390   4.228   2.090   7.802 -0.5271 -1.0987  0.6737
  156SAPE  H19S17391   4.087   2.190   7.769 -0.1113  0.2774 -0.0381
  156SAPE  C22017392   4.099   2.118   7.962  0.1741  0.1641 -0.6282
  156SAPE  H20R17393   4.015   2.050   7.937 -1.4065  1.4421  1.0940
  156SAPE  H20S17394   4.060   2.207   8.015  0.3289 -0.4083  0.4679
  156SAPE  H20T17395   4.178   2.081   8.031 -0.8956 -0.5129  0.2478
  156SAPE   C3317396   6.124   2.645   7.201 -0.4806  0.3128 -0.5789
  156SAPE   H3X17397   6.014   2.660   7.214 -0.6536 -0.7285 -0.8278
  156SAPE   H3Y17398   6.183   2.707   7.271  0.9843  0.0470 -1.5565
  156SAPE   C3417399   6.170   2.501   7.229 -0.3200 -0.5692 -0.3413
  156SAPE   H4X17400   6.273   2.485   7.190 -0.1689 -1.3100  0.3387
  156SAPE   H4Y17401   6.108   2.435   7.164  0.6150 -1.3317 -0.4664
  156SAPE   C3517402   6.176   2.457   7.380  0.1563 -0.6715  0.7749
  156SAPE   H5X17403   6.264   2.514   7.418  0.3523 -0.5910  0.1945
  156SAPE   H5Y17404   6.214   2.353   7.381 -1.2959 -1.2136 -0.0640
  156SAPE   C3617405   6.054   2.483   7.466 -0.0539  0.3073  1.4706
  156SAPE   H6X17406   5.966   2.442   7.413  0.7319  1.5588 -0.8632
  156SAPE   H6Y17407   6.032   2.592   7.468 -2.4510 -0.0537 -1.4316
  156SAPE   C3717408   6.067   2.419   7.607 -0.7036 -0.9332 -1.0341
  156SAPE   H7X17409   6.109   2.316   7.604  1.4590 -0.1898  1.5247
  156SAPE   H7Y17410   5.966   2.407   7.652 -0.4489  1.5412  0.3443
  156SAPE   C3817411   6.154   2.505   7.700  0.1315  0.6737  0.3151
  156SAPE   H8X17412   6.108   2.603   7.720 -2.0427 -0.3652  0.5550
  156SAPE   H8Y17413   6.253   2.532   7.657 -0.6810  0.1533 -1.9515
  156SAPE   C3917414   6.178   2.432   7.833 -0.7794  0.2043 -0.8131
  156SAPE   H9X17415   6.239   2.339   7.838 -1.3982 -0.1085  1.5935
  156SAPE   H9Y17416   6.073   2.409   7.862 -0.7350  1.4393  0.3836
  156SAPE  C31017417   6.240   2.526   7.947  0.0457  0.0910 -0.2575
  156SAPE  H10X17418   6.188   2.622   7.930 -0.5564  0.0772  1.4901
  156SAPE  H10Y17419   6.349   2.540   7.928 -0.0127  2.4606  1.0391
  156SAPE  C31117420   6.233   2.469   8.091  0.7805  0.0561 -0.0462
  156SAPE  H11X17421   6.288   2.540   8.156  0.4125  0.9131 -0.6651
  156SAPE  H11Y17422   6.298   2.379   8.092  0.8671  0.0938 -1.3648
  156SAPE  C31217423   6.097   2.423   8.141 -1.1000  0.0276 -0.3702
  156SAPE  H12X17424   6.056   2.336   8.086 -0.1679 -0.2052 -0.7019
  156SAPE  H12Y17425   6.021   2.502   8.124 -0.4064  0.5496 -1.0917
  156SAPE  C31317426   6.093   2.411   8.292  0.3258  0.1834  0.0141
  156SAPE  H13X17427   6.151   2.497   8.333  0.3590 -1.2428  3.1167
  156SAPE  H13Y17428   6.144   2.319   8.329 -1.5157  0.0750  2.3806
  156SAPE  C31417429   5.941   2.417   8.342  0.0149  0.3883  0.3744
  156SAPE  H14X17430   5.904   2.320   8.302  0.1841  0.8525 -0.9316
  156SAPE  H14Y17431   5.878   2.490   8.287  4.1275  2.0844 -2.3917
  156SAPE  C31517432   5.912   2.439   8.487 -0.0953 -0.0461  0.2175
  156SAPE  H15X17433   5.801   2.438   8.497 -0.4859  1.9346 -3.3600
  156SAPE  H15Y17434   5.948   2.539   8.520  1.4274 -0.2773 -0.6953
  156SAPE  C31617435   5.985   2.348   8.585  0.3434 -0.1882  0.2079
  156SAPE  H16X17436   5.968   2.362   8.694  0.1861 -0.5853  0.2343
  156SAPE  H16Y17437   6.093   2.367   8.566  0.3660 -1.5490 -1.1075
  156SAPE  C31717438   5.957   2.202   8.566 -0.0880 -0.2263 -0.1194
  156SAPE  H17X17439   5.986   2.172   8.463 -0.0335  0.3118 -0.2627
  156SAPE  H17Y17440   5.847   2.189   8.571 -0.1496  0.2344 -0.2487
  156SAPE  C31817441   6.029   2.111   8.660  0.2765  0.2072  0.9503
  156SAPE  H18X17442   6.009   2.147   8.763 -2.2299  1.3623  0.0902
  156SAPE  H18Y17443   6.139   2.114   8.644  0.3190 -1.5842  0.7174
  156SAPE  H18Z17444   5.990   2.007   8.653 -0.4925  0.5710 -0.3021
  157SAPE     N17445   2.230   4.285   6.390 -0.1918  0.0888  0.0791
  157SAPE   HN117446   2.225   4.388   6.374  0.8499  0.4127  1.7105
  157SAPE   HN217447   2.281   4.236   6.314  1.2159  0.5212  0.7435
  157SAPE   HN317448   2.133   4.247   6.394 -0.2824  0.0071 -2.1770
  157SAPE   C1217449   2.301   4.256   6.518 -0.2469  0.1753 -0.2295
  157SAPE  H12A17450   2.298   4.146   6.533  0.5952  0.4254  2.0074
  157SAPE  H12B17451   2.244   4.319   6.589 -0.8221 -1.5285  0.8352
  157SAPE   C1117452   2.451   4.299   6.503 -0.4619 -0.3692 -0.0373
  157SAPE  H11A17453   2.499   4.245   6.420  1.4010  0.0957  0.7157
  157SAPE  H11B17454   2.502   4.278   6.600 -2.3425  0.1066  1.0945
  157SAPE     P17455   2.564   4.521   6.415  0.4937  0.0417 -0.3906
  157SAPE   O1317456   2.585   4.468   6.280 -0.1000  0.0727 -0.0072
  157SAPE   O1417457   2.540   4.664   6.425 -0.1103 -1.1901 -0.1369
  157SAPE   O1217458   2.449   4.444   6.490  0.4433  0.1298  0.3007
  157SAPE   O1117459   2.682   4.477   6.503 -0.2544 -0.3281  0.4594
  157SAPE    C117460   2.692   4.506   6.640  0.5184  0.1819  0.6912
  157SAPE    HA17461   2.622   4.584   6.677 -0.8124 -1.2152  1.1690
  157SAPE    HB17462   2.675   4.418   6.706 -0.7410  0.5834  0.8989
  157SAPE    C217463   2.846   4.542   6.670  0.2737  0.7377 -0.0911
  157SAPE    HS17464   2.899   4.462   6.615 -1.1177  0.1376 -0.6018
  157SAPE   O2117465   2.870   4.542   6.812  0.5279 -0.3078 -0.0501
  157SAPE   C2117466   2.999   4.526   6.848 -0.0917  0.5940  0.2747
  157SAPE   O2217467   3.086   4.508   6.761  0.2226  0.6226  0.6047
  157SAPE   C2217468   3.004   4.547   6.999 -0.2401 -0.1411 -0.4435
  157SAPE   H2R17469   2.910   4.599   7.026  0.2192 -0.1138  1.1966
  157SAPE   H2S17470   3.008   4.448   7.049 -1.6162  0.9953  2.0303
  157SAPE    C317471   2.869   4.683   6.604  1.1179 -0.4737 -0.0813
  157SAPE    HX17472   2.833   4.674   6.499  2.5589  0.6627 -0.6821
  157SAPE    HY17473   2.976   4.710   6.591  0.3876  1.4888 -2.4520
  157SAPE   O3117474   2.791   4.787   6.670  0.6830 -0.1785  0.7516
  157SAPE   C3117475   2.857   4.846   6.766  0.1595 -0.5291  0.5626
  157SAPE   O3217476   2.977   4.844   6.786  0.1917  0.0508 -0.2063
  157SAPE   C3217477   2.751   4.920   6.850  0.7510  1.2144 -0.0303
  157SAPE   H2X17478   2.665   4.854   6.873  1.6894 -0.5567 -1.5062
  157SAPE   H2Y17479   2.702   4.995   6.784  0.3561 -0.2487 -1.4117
  157SAPE   C2317480   3.122   4.637   7.043 -0.8911 -0.3491  0.4862
  157SAPE   H3R17481   3.099   4.744   7.022  1.1561  0.5165  2.4251
  157SAPE   H3S17482   3.206   4.619   6.973 -0.1918  0.2457  1.1582
  157SAPE   C2417483   3.161   4.615   7.190 -0.4442  0.0669  0.5239
  157SAPE   H4R17484   3.073   4.569   7.237  1.1300  0.2573  3.7705
  157SAPE   H4S17485   3.195   4.709   7.239 -1.2392  1.9361 -2.3658
  157SAPE   C2517486   3.275   4.513   7.187 -0.2666 -0.3389 -0.1039
  157SAPE   H5R17487   3.366   4.538   7.130  0.8384 -0.4907  1.5625
  157SAPE   C2617488   3.274   4.395   7.239  0.7033 -0.7863 -0.0995
  157SAPE   H6R17489   3.365   4.333   7.235  0.7581 -0.6830 -0.4697
  157SAPE   C2717490   3.168   4.330   7.320 -0.5567 -0.0989  0.1686
  157SAPE   H7R17491   3.132   4.236   7.274  0.0802 -0.6763  0.8278
  157SAPE   H7S17492   3.072   4.385   7.327  0.2586  1.5504 -1.2084
  157SAPE   C2817493   3.222   4.297   7.460  0.7722  1.0690 -0.1712
  157SAPE   H8R17494   3.290   4.211   7.457 -1.4701 -0.7202 -0.9447
  157SAPE   C2917495   3.187   4.352   7.581 -0.0829 -0.4075 -0.5383
  157SAPE   H9R17496   3.235   4.306   7.669  1.2143 -0.8490 -1.4730
  157SAPE  C21017497   3.089   4.465   7.604 -0.5028 -0.3308 -0.0414
  157SAPE  H10R17498   2.985   4.426   7.605 -1.3454  1.7923 -1.4551
  157SAPE  H10S17499   3.086   4.537   7.520 -0.0049 -1.0457 -0.6724
  157SAPE  C21117500   3.115   4.543   7.734 -0.1649 -1.0078  0.9279
  157SAPE  H11R17501   3.146   4.648   7.724  1.7522 -1.5361  1.0940
  157SAPE  C21217502   3.107   4.495   7.861  0.6185  0.0263  0.2969
  157SAPE  H12R17503   3.127   4.561   7.946  0.0533 -0.3750  0.7468
  157SAPE  C21317504   3.072   4.351   7.911  0.3005  0.0495  0.4928
  157SAPE  H13R17505   3.073   4.269   7.836  0.2515 -0.9993  1.6204
  157SAPE  H13S17506   2.964   4.364   7.931  0.1391 -1.0525  0.3625
  157SAPE  C21417507   3.154   4.295   8.024  0.2511  0.3586  0.0234
  157SAPE  H14R17508   3.258   4.271   7.998 -0.0388  0.0331 -0.8498
  157SAPE  C21517509   3.114   4.293   8.158  0.0923  0.6608 -0.1368
  157SAPE  H15R17510   3.195   4.261   8.226 -1.4629  1.5350  2.1656
  157SAPE  C21617511   2.984   4.341   8.215  0.6902  0.6546  0.4546
  157SAPE  H16R17512   2.950   4.283   8.304 -1.0022  0.4003 -0.3479
  157SAPE  H16S17513   2.911   4.319   8.135  1.3476  0.2774 -0.0457
  157SAPE  C21717514   2.990   4.498   8.251  0.3273 -0.5519 -0.8113
  157SAPE  H17R17515   3.034   4.558   8.169 -0.5027  1.3755  0.1227
  157SAPE  H17S17516   3.040   4.506   8.350 -0.9222  0.3921 -0.2425
  157SAPE  C21817517   2.850   4.554   8.269 -0.2119  0.5374  0.7729
  157SAPE  H18R17518   2.789   4.557   8.176 -2.1814  1.8139  2.0609
  157SAPE  H18S17519   2.855   4.662   8.296 -3.7489  0.5305  1.6957
  157SAPE  C21917520   2.774   4.498   8.386 -0.2598 -0.4703 -0.0459
  157SAPE  H19R17521   2.848   4.512   8.468  2.1175 -0.7051 -2.0655
  157SAPE  H19S17522   2.764   4.389   8.366 -0.8528 -0.3197 -0.5748
  157SAPE  C22017523   2.639   4.568   8.405 -0.1759 -0.1130 -0.2279
  157SAPE  H20R17524   2.568   4.501   8.458 -0.2098  0.9342  1.0846
  157SAPE  H20S17525   2.601   4.598   8.305  0.2126  0.7346 -0.1294
  157SAPE  H20T17526   2.652   4.670   8.448  2.4517  0.6567 -2.6469
  157SAPE   C3317527   2.821   4.992   6.971 -0.4954 -0.1778  0.2783
  157SAPE   H3X17528   2.751   5.073   7.002  1.5000  0.3865  3.5791
  157SAPE   H3Y17529   2.921   5.034   6.948 -0.2992  0.9790  3.1386
  157SAPE   C3417530   2.825   4.902   7.091  0.7096 -0.1190  0.0089
  157SAPE   H4X17531   2.902   4.824   7.074  1.5315  0.9460 -1.2957
  157SAPE   H4Y17532   2.724   4.859   7.111  0.0681  0.9794 -0.8003
  157SAPE   C3517533   2.866   4.981   7.222  0.6185 -0.3773 -0.1476
  157SAPE   H5X17534   2.790   5.059   7.244  1.0884 -0.2130  0.9448
  157SAPE   H5Y17535   2.964   5.022   7.192 -0.7837  0.9398 -3.1714
  157SAPE   C3617536   2.875   4.897   7.350 -0.2784 -0.2814  0.0704
  157SAPE   H6X17537   2.939   4.807   7.339  1.1333  0.5739  1.0646
  157SAPE   H6Y17538   2.770   4.864   7.363  0.0234 -2.6225 -2.7192
  157SAPE   C3717539   2.897   4.979   7.476  0.3886 -0.5633 -0.7822
  157SAPE   H7X17540   2.813   5.052   7.475  0.7107 -0.1903 -1.1278
  157SAPE   H7Y17541   2.994   5.032   7.469  0.2122 -0.2698 -1.0385
  157SAPE   C3817542   2.898   4.904   7.611  0.1557 -0.0301 -0.6046
  157SAPE   H8X17543   2.983   4.834   7.611 -0.0130 -0.2904  2.2396
  157SAPE   H8Y17544   2.816   4.830   7.623  0.5335 -0.1216  1.5935
  157SAPE   C3917545   2.911   4.989   7.739  0.9141  0.1515  0.0538
  157SAPE   H9X17546   2.815   5.045   7.745 -0.0566 -1.5091  0.0098
  157SAPE   H9Y17547   2.987   5.070   7.739  0.7137  0.3527  1.4253
  157SAPE  C31017548   2.951   4.907   7.854  0.2910 -0.1347  0.1294
  157SAPE  H10X17549   3.053   4.868   7.832  0.4724 -0.4110  1.4039
  157SAPE  H10Y17550   2.878   4.823   7.862  2.9819 -2.6105 -0.3345
  157SAPE  C31117551   2.952   4.979   7.991  0.4374 -0.8350  0.1055
  157SAPE  H11X17552   2.854   5.031   7.991  1.5320  1.2901 -0.0553
  157SAPE  H11Y17553   3.042   5.043   7.979  0.8955 -1.3154  0.9926
  157SAPE  C31217554   2.964   4.869   8.109 -0.0768 -0.4636 -0.2336
  157SAPE  H12X17555   3.049   4.805   8.075  1.4695  0.7295  1.3215
  157SAPE  H12Y17556   2.874   4.806   8.095 -0.3927  0.4255 -2.5289
  157SAPE  C31317557   2.986   4.927   8.246 -0.4321 -0.2100 -0.5824
  157SAPE  H13X17558   3.075   4.994   8.246 -1.4677  1.2060  0.8882
  157SAPE  H13Y17559   3.000   4.848   8.323 -2.0074  1.0709  1.1013
  157SAPE  C31417560   2.869   5.010   8.298 -0.4717  0.0852  0.0214
  157SAPE  H14X17561   2.772   4.955   8.296 -1.7410  2.1149  1.9346
  157SAPE  H14Y17562   2.852   5.100   8.235  2.7882  1.3373  0.8056
  157SAPE  C31517563   2.893   5.060   8.444  0.5059  0.0897 -0.1919
  157SAPE  H15X17564   2.946   5.158   8.442 -1.4211  1.1797  0.9954
  157SAPE  H15Y17565   2.960   4.985   8.492  0.3389 -0.5709 -0.9786
  157SAPE  C31617566   2.760   5.082   8.521  0.8396 -0.2441 -0.3310
  157SAPE  H16X17567   2.765   5.032   8.620 -0.4201 -2.2905 -1.2587
  157SAPE  H16Y17568   2.686   5.010   8.480 -2.0300  1.8267  1.1036
  157SAPE  C31717569   2.704   5.222   8.517 -0.1203  0.7244  0.3159
  157SAPE  H17X17570   2.752   5.273   8.430 -0.4334 -0.2477 -0.4323
  157SAPE  H17Y17571   2.743   5.282   8.602 -2.7671  0.5894  1.6692
  157SAPE  C31817572   2.552   5.231   8.511  0.2312  0.4532  0.2368
  157SAPE  H18X17573   2.521   5.215   8.406 -1.0511  0.5335  0.5968
  157SAPE  H18Y17574   2.524   5.333   8.546  0.1336  0.0858  1.2377
  157SAPE  H18Z17575   2.502   5.146   8.561  1.9662 -0.1663  0.9738
  158SAPE     N17576   4.864   2.285   6.102  0.1593 -0.1245 -0.1481
  158SAPE   HN117577   4.831   2.315   6.196 -1.1732 -1.2677 -0.2400
  158SAPE   HN217578   4.877   2.366   6.038  3.7065  0.2563  0.9243
  158SAPE   HN317579   4.789   2.226   6.061  2.0690 -2.8049  0.0619
  158SAPE   C1217580   4.989   2.215   6.113  0.3380  0.2888  0.6906
  158SAPE  H12A17581   5.069   2.292   6.125 -2.0306  2.8860  0.3286
  158SAPE  H12B17582   5.015   2.157   6.022 -0.0690 -1.0758  1.4286
  158SAPE   C1117583   4.976   2.121   6.232  0.0427  0.3676 -0.0730
  158SAPE  H11A17584   5.023   2.156   6.327  1.5819  0.9410 -1.0330
  158SAPE  H11B17585   5.045   2.038   6.205 -1.2062 -1.0878  1.1279
  158SAPE     P17586   4.811   1.921   6.219 -0.3979 -0.2849  0.4310
  158SAPE   O1317587   4.668   1.903   6.224  0.4364 -0.1621  0.1038
  158SAPE   O1417588   4.885   1.887   6.090  0.2965 -0.8158 -0.3484
  158SAPE   O1217589   4.838   2.069   6.254  0.2040  0.5560 -0.4170
  158SAPE   O1117590   4.876   1.829   6.334 -0.4636  0.2678 -0.3890
  158SAPE    C117591   4.828   1.838   6.469 -0.2774  0.0569  0.0648
  158SAPE    HA17592   4.796   1.940   6.498 -1.9340 -0.4178  0.0185
  158SAPE    HB17593   4.735   1.779   6.485 -1.7074  1.7615 -1.7437
  158SAPE    C217594   4.927   1.799   6.583 -0.2074 -0.5855  0.1127
  158SAPE    HS17595   5.005   1.877   6.579  1.0651 -1.8716 -0.4124
  158SAPE   O2117596   4.971   1.672   6.549  0.1652  0.1012  0.5585
  158SAPE   C2117597   5.101   1.650   6.589  0.2623 -0.0302  0.2565
  158SAPE   O2217598   5.177   1.734   6.626 -0.1216  0.2308  0.3868
  158SAPE   C2217599   5.127   1.501   6.600  0.1753 -0.2449  0.8409
  158SAPE   H2R17600   5.067   1.449   6.523  1.8714  1.6898 -1.9232
  158SAPE   H2S17601   5.235   1.488   6.574  0.2737  0.8303  0.6882
  158SAPE    C317602   4.863   1.806   6.726 -0.5620  0.2638  0.3589
  158SAPE    HX17603   4.789   1.724   6.735  2.7648 -3.4618 -3.7884
  158SAPE    HY17604   4.802   1.899   6.731  1.1613  1.3047  3.3473
  158SAPE   O3117605   4.967   1.797   6.826  0.7617 -0.1219  0.2973
  158SAPE   C3117606   4.919   1.755   6.942  0.1359 -0.2944 -0.3628
  158SAPE   O3217607   4.806   1.730   6.971 -0.2162  0.5312 -0.0339
  158SAPE   C3217608   5.040   1.741   7.034  0.5545  0.0747 -0.9111
  158SAPE   H2X17609   5.081   1.840   7.066  0.6114  0.0458 -0.8951
  158SAPE   H2Y17610   5.121   1.697   6.972  1.7196 -1.7431  1.7894
  158SAPE   C2317611   5.102   1.460   6.745 -0.1665 -0.2172 -0.0181
  158SAPE   H3R17612   5.000   1.497   6.769 -1.4096 -1.7576 -2.6550
  158SAPE   H3S17613   5.181   1.511   6.805 -2.3348 -0.2566  2.9790
  158SAPE   C2417614   5.125   1.309   6.784  0.1200  0.6477 -0.0450
  158SAPE   H4R17615   5.092   1.312   6.890 -2.8128  3.7953 -0.9395
  158SAPE   H4S17616   5.234   1.292   6.777  0.4734  2.2702  1.0647
  158SAPE   C2517617   5.043   1.221   6.695 -0.8196 -0.5552 -0.2712
  158SAPE   H5R17618   5.098   1.196   6.603  1.0087 -0.2431  0.7143
  158SAPE   C2617619   4.933   1.154   6.728  0.0700  0.7941 -0.4169
  158SAPE   H6R17620   4.890   1.085   6.653 -1.3160  0.5351  0.5830
  158SAPE   C2717621   4.858   1.177   6.856 -0.1025  0.2578  0.6316
  158SAPE   H7R17622   4.919   1.150   6.945 -0.4787  2.5695  1.6348
  158SAPE   H7S17623   4.768   1.112   6.850  1.4783 -1.9471 -0.0769
  158SAPE   C2817624   4.801   1.312   6.872  0.2374 -0.1927 -0.4482
  158SAPE   H8R17625   4.773   1.350   6.772 -0.7743 -0.5181 -0.2903
  158SAPE   C2917626   4.770   1.380   6.981 -0.1188  0.1147 -0.1925
  158SAPE   H9R17627   4.743   1.486   6.971  1.0099  0.6594  2.1179
  158SAPE  C21017628   4.788   1.336   7.123 -0.2960 -0.1473  0.2634
  158SAPE  H10R17629   4.894   1.355   7.154 -0.4010 -3.3703  2.8829
  158SAPE  H10S17630   4.752   1.232   7.111  1.2689 -0.6059 -0.5784
  158SAPE  C21117631   4.695   1.396   7.228 -0.3499 -0.2982 -0.1577
  158SAPE  H11R17632   4.616   1.463   7.190  0.4122  0.1704 -0.9156
  158SAPE  C21217633   4.720   1.384   7.365  0.3251  0.8186  0.3030
  158SAPE  H12R17634   4.648   1.431   7.435  0.9361 -1.0927  2.2880
  158SAPE  C21317635   4.827   1.296   7.429  0.0210  0.0189 -0.5007
  158SAPE  H13R17636   4.928   1.338   7.407  0.5882 -0.9496  0.2067
  158SAPE  H13S17637   4.819   1.198   7.379  2.1605 -1.6858  2.3262
  158SAPE  C21417638   4.787   1.268   7.571  0.7332  0.2835  0.8283
  158SAPE  H14R17639   4.783   1.160   7.593 -0.5813  0.3948  1.1674
  158SAPE  C21517640   4.755   1.350   7.669 -0.3669 -0.8106 -0.3436
  158SAPE  H15R17641   4.744   1.305   7.769 -2.4077  2.0080  0.7424
  158SAPE  C21617642   4.762   1.496   7.669  0.3813  0.5391 -0.5225
  158SAPE  H16R17643   4.659   1.534   7.685  0.6552  0.8037  0.7236
  158SAPE  H16S17644   4.791   1.536   7.570  0.2554  2.5767  0.2469
  158SAPE  C21717645   4.858   1.563   7.765 -0.0520 -0.3663 -0.0115
  158SAPE  H17R17646   4.846   1.674   7.761  1.2788 -0.2298 -0.4652
  158SAPE  H17S17647   4.960   1.555   7.720  0.0738  1.4683 -0.0936
  158SAPE  C21817648   4.850   1.513   7.910  0.3523 -0.6489  0.3993
  158SAPE  H18R17649   4.943   1.497   7.968 -0.4069  1.0946  2.1375
  158SAPE  H18S17650   4.791   1.419   7.920 -2.9158  1.2865  0.1895
  158SAPE  C21917651   4.765   1.622   7.982 -0.1807  0.1382  0.0435
  158SAPE  H19R17652   4.670   1.615   7.925 -0.0492  0.1217 -0.1714
  158SAPE  H19S17653   4.813   1.722   7.974  0.0666  0.1069  1.0199
  158SAPE  C22017654   4.748   1.598   8.136 -0.3962  0.4517 -0.0363
  158SAPE  H20R17655   4.715   1.496   8.164  1.4572 -0.5829 -1.4790
  158SAPE  H20S17656   4.668   1.669   8.167  0.8361  1.7579  0.1891
  158SAPE  H20T17657   4.840   1.626   8.192 -0.2394 -1.8614  0.9224
  158SAPE   C3317658   5.002   1.645   7.162  0.6414 -1.2796 -0.2202
  158SAPE   H3X17659   4.987   1.543   7.121 -0.1529 -0.5912 -1.6895
  158SAPE   H3Y17660   4.909   1.670   7.218  0.7531 -1.1311 -0.1005
  158SAPE   C3417661   5.116   1.651   7.263  0.3936  0.5644  0.2161
  158SAPE   H4X17662   5.217   1.650   7.217  0.6175 -0.0094  0.7211
  158SAPE   H4Y17663   5.097   1.581   7.347  2.2312  0.2820  0.4154
  158SAPE   C3517664   5.129   1.782   7.338  0.1709  0.0755  0.0948
  158SAPE   H5X17665   5.036   1.832   7.373 -1.2843 -2.0629 -0.5906
  158SAPE   H5Y17666   5.153   1.861   7.264  1.9287 -1.2734 -0.7990
  158SAPE   C3617667   5.224   1.764   7.450  0.6572 -0.4828  0.0015
  158SAPE   H6X17668   5.315   1.709   7.417  1.3244  0.5031  0.1563
  158SAPE   H6Y17669   5.177   1.701   7.529 -0.7678 -0.3908 -0.7651
  158SAPE   C3717670   5.287   1.891   7.518 -0.1625 -0.2938 -0.7372
  158SAPE   H7X17671   5.370   1.927   7.453 -0.7977  0.8840 -0.9072
  158SAPE   H7Y17672   5.210   1.969   7.534  2.7445  2.7673 -1.1172
  158SAPE   C3817673   5.355   1.867   7.654  0.8609  0.2394  0.0718
  158SAPE   H8X17674   5.457   1.825   7.644  1.8300  1.7482  2.9593
  158SAPE   H8Y17675   5.286   1.801   7.711 -0.6935  1.9870  0.2560
  158SAPE   C3917676   5.353   1.999   7.734  0.5628 -0.6362 -0.1528
  158SAPE   H9X17677   5.245   2.022   7.749  1.0411  0.1592  2.2621
  158SAPE   H9Y17678   5.391   2.093   7.688 -0.3468 -0.5190 -0.6735
  158SAPE  C31017679   5.419   1.980   7.874  0.1434  0.2385  0.3594
  158SAPE  H10X17680   5.527   1.957   7.878  0.6381  2.4000 -0.1189
  158SAPE  H10Y17681   5.367   1.894   7.921 -0.6066 -0.9438 -2.4859
  158SAPE  C31117682   5.411   2.108   7.959 -0.5826  0.4052 -0.0835
  158SAPE  H11X17683   5.304   2.137   7.970  0.0337  2.4982  0.6923
  158SAPE  H11Y17684   5.455   2.196   7.907  1.3015  0.0002  0.7974
  158SAPE  C31217685   5.478   2.091   8.096  0.3886 -0.3100  0.8779
  158SAPE  H12X17686   5.481   2.193   8.141  0.5687 -0.1768  0.5671
  158SAPE  H12Y17687   5.576   2.040   8.083  1.5545  1.9278  0.4268
  158SAPE  C31317688   5.382   2.014   8.188 -0.5274 -0.4315  0.2863
  158SAPE  H13X17689   5.354   1.927   8.125  2.1391 -0.9907 -0.1825
  158SAPE  H13Y17690   5.284   2.061   8.213  0.5248  2.8063 -1.3503
  158SAPE  C31417691   5.448   1.961   8.319 -0.4635 -0.8386 -0.3134
  158SAPE  H14X17692   5.519   1.884   8.284 -0.1609 -0.4116 -0.6522
  158SAPE  H14Y17693   5.370   1.921   8.387  1.3175 -0.2047  2.1817
  158SAPE  C31517694   5.526   2.077   8.384 -0.2182  0.3242  0.2767
  158SAPE  H15X17695   5.455   2.158   8.408  0.5303  0.7022  1.2531
  158SAPE  H15Y17696   5.598   2.133   8.320  0.1099  0.1359  0.4812
  158SAPE  C31617697   5.595   2.032   8.508 -0.1217 -0.3053  0.0949
  158SAPE  H16X17698   5.699   1.999   8.491  0.2777  1.1002 -0.2503
  158SAPE  H16Y17699   5.544   1.944   8.555  1.2195 -1.0155  0.2308
  158SAPE  C31717700   5.600   2.141   8.615  0.5109 -0.1757  0.0065
  158SAPE  H17X17701   5.636   2.238   8.575  0.3790 -0.2911 -0.3873
  158SAPE  H17Y17702   5.676   2.115   8.692  1.8399  2.2856 -0.4179
  158SAPE  C31817703   5.466   2.154   8.699  0.4121  0.1566  0.4996
  158SAPE  H18X17704   5.469   2.246   8.761  0.2065  0.4857  0.0224
  158SAPE  H18Y17705   5.442   2.059   8.752  2.2172  0.2967  1.6266
  158SAPE  H18Z17706   5.386   2.172   8.624  0.4972 -2.0242 -0.1455
  159SAPE     N17707   3.979   6.425   6.419 -0.1942 -0.4163  0.3115
  159SAPE   HN117708   3.977   6.491   6.499 -1.7481  2.5386 -2.0987
  159SAPE   HN217709   4.069   6.436   6.367 -0.6294  0.5196 -0.2563
  159SAPE   HN317710   3.913   6.471   6.354  2.4886  1.5035 -1.1655
  159SAPE   C1217711   3.941   6.287   6.448  0.9434 -0.7618  0.0384
  159SAPE  H12A17712   3.854   6.277   6.516  0.1925 -1.7856 -1.0363
  159SAPE  H12B17713   4.025   6.239   6.503  1.3007  1.3370  1.3725
  159SAPE   C1117714   3.914   6.200   6.316 -0.7665  0.1924 -0.0020
  159SAPE  H11A17715   3.820   6.237   6.270 -0.8566  0.1322  0.1349
  159SAPE  H11B17716   3.883   6.098   6.346 -1.7917  0.7061  0.7222
  159SAPE     P17717   4.149   6.126   6.203  0.3493  0.2803 -0.6974
  159SAPE   O1317718   4.148   6.022   6.096 -0.2512  0.4646  0.0209
  159SAPE   O1417719   4.255   6.225   6.207  0.0101  0.5477 -0.1104
  159SAPE   O1217720   4.011   6.206   6.209 -0.1076  0.4059 -0.7511
  159SAPE   O1117721   4.143   6.051   6.343 -0.0465  0.3163  0.5046
  159SAPE    C117722   4.248   6.065   6.444  0.5014 -0.0538  0.5302
  159SAPE    HA17723   4.343   6.115   6.414 -0.1929  0.4782 -0.8535
  159SAPE    HB17724   4.206   6.125   6.528  1.1279 -1.1045  1.6031
  159SAPE    C217725   4.292   5.926   6.504  0.1567  0.1096  0.2113
  159SAPE    HS17726   4.359   5.872   6.434  1.4722  2.5126 -0.4060
  159SAPE   O2117727   4.186   5.836   6.527 -0.2646  0.2311 -0.2133
  159SAPE   C2117728   4.108   5.863   6.627 -0.2932  0.5478 -0.5689
  159SAPE   O2217729   4.090   5.966   6.687 -0.5035 -0.1393  0.2130
  159SAPE   C2217730   4.039   5.733   6.677 -0.0696 -0.0875 -0.2939
  159SAPE   H2R17731   3.982   5.753   6.770  1.5534 -1.2307  0.9682
  159SAPE   H2S17732   3.979   5.682   6.599 -0.6671 -1.5682  1.1117
  159SAPE    C317733   4.378   5.958   6.632 -0.7491  0.1291  0.0273
  159SAPE    HX17734   4.322   6.023   6.703  1.3349 -0.8924  2.7092
  159SAPE    HY17735   4.465   6.019   6.599 -0.6919  0.8967  1.5352
  159SAPE   O3117736   4.421   5.845   6.711 -0.2734  0.6312 -0.0492
  159SAPE   C3117737   4.528   5.771   6.661  0.8034 -0.1881  0.9248
  159SAPE   O3217738   4.581   5.797   6.555 -0.0089  0.1484  0.2289
  159SAPE   C3217739   4.557   5.652   6.744  0.2300 -0.1242 -0.5570
  159SAPE   H2X17740   4.510   5.568   6.688 -0.3130 -0.2843  0.1306
  159SAPE   H2Y17741   4.514   5.657   6.847 -0.2389  0.3026 -0.7729
  159SAPE   C2317742   4.153   5.628   6.720  0.4167 -0.3452  0.2482
  159SAPE   H3R17743   4.246   5.674   6.760  1.1783 -2.3299  0.8396
  159SAPE   H3S17744   4.171   5.581   6.621  0.0117  1.0017 -0.4704
  159SAPE   C2417745   4.098   5.519   6.815 -0.2409  0.5127  0.4908
  159SAPE   H4R17746   4.010   5.476   6.764 -0.5287  0.8695  0.6793
  159SAPE   H4S17747   4.072   5.573   6.909  1.1280  1.4238  0.3686
  159SAPE   C2517748   4.202   5.416   6.823  0.5271  0.0742 -0.6746
  159SAPE   H5R17749   4.217   5.353   6.734 -2.8314  0.0165 -1.2544
  159SAPE   C2617750   4.281   5.389   6.931  0.2952 -0.2640  0.4835
  159SAPE   H6R17751   4.340   5.297   6.922 -0.0929 -0.3986 -0.8514
  159SAPE   C2717752   4.265   5.456   7.063  0.3108  0.8207  0.4000
  159SAPE   H7R17753   4.160   5.460   7.100  0.3341  0.4857  0.5060
  159SAPE   H7S17754   4.286   5.565   7.061 -3.1653  1.6200  2.9832
  159SAPE   C2817755   4.345   5.399   7.181 -0.8674 -0.2480  0.1033
  159SAPE   H8R17756   4.435   5.342   7.152 -0.7108  0.2933 -0.4763
  159SAPE   C2917757   4.319   5.419   7.309 -0.0960 -1.1725  0.2213
  159SAPE   H9R17758   4.387   5.372   7.382  1.3975  0.8683  0.2006
  159SAPE  C21017759   4.206   5.501   7.370 -0.4959 -0.3131  0.4483
  159SAPE  H10R17760   4.121   5.435   7.395 -0.4578 -0.5579 -0.0602
  159SAPE  H10S17761   4.168   5.580   7.301  2.9633 -0.4079 -1.6795
  159SAPE  C21117762   4.249   5.572   7.493 -0.5620 -0.0565  0.0067
  159SAPE  H11R17763   4.338   5.637   7.490 -1.7626  1.7894  2.1744
  159SAPE  C21217764   4.189   5.574   7.612 -0.0845 -0.2775 -0.1230
  159SAPE  H12R17765   4.237   5.635   7.690 -1.3353 -0.6748  0.9590
  159SAPE  C21317766   4.058   5.516   7.652  0.4612  0.1851 -0.6019
  159SAPE  H13R17767   4.038   5.412   7.620 -1.8050  0.6058 -0.6541
  159SAPE  H13S17768   3.987   5.581   7.597 -1.3973  0.0936  1.5886
  159SAPE  C21417769   4.025   5.533   7.805  0.1638  0.0799  0.0583
  159SAPE  H14R17770   3.937   5.597   7.823  0.9460  0.9643  0.7223
  159SAPE  C21517771   4.086   5.452   7.898  0.4995 -0.2273  0.6729
  159SAPE  H15R17772   4.046   5.458   8.000 -1.9785  3.6623 -0.4033
  159SAPE  C21617773   4.186   5.340   7.863  0.6388 -0.3000 -0.1225
  159SAPE  H16R17774   4.186   5.311   7.756 -0.8757 -0.5260 -0.0810
  159SAPE  H16S17775   4.150   5.243   7.905  1.9028 -1.8687 -2.5399
  159SAPE  C21717776   4.328   5.364   7.902  1.2224  0.9260  0.7985
  159SAPE  H17R17777   4.329   5.419   7.999 -1.8211  1.7928  0.3825
  159SAPE  H17S17778   4.380   5.437   7.837  2.4695  1.5710  2.4537
  159SAPE  C21817779   4.412   5.235   7.908  0.4466 -0.6151 -0.3019
  159SAPE  H18R17780   4.389   5.190   8.007 -0.9147 -1.7904 -1.1427
  159SAPE  H18S17781   4.521   5.257   7.907  0.6910 -1.7522  0.1463
  159SAPE  C21917782   4.397   5.142   7.791 -0.4718 -0.6489 -0.5808
  159SAPE  H19R17783   4.477   5.170   7.719 -0.6811 -1.6042 -1.2038
  159SAPE  H19S17784   4.297   5.146   7.744 -0.4071  2.0308 -0.5236
  159SAPE  C22017785   4.417   4.994   7.844  0.4404  0.6640  0.0698
  159SAPE  H20R17786   4.367   4.916   7.783 -1.5132  0.3226  2.0668
  159SAPE  H20S17787   4.358   4.978   7.936  1.0737 -0.2700  0.3221
  159SAPE  H20T17788   4.523   4.968   7.865  0.3775 -2.3000 -2.8647
  159SAPE   C3317789   4.706   5.627   6.750  0.5035  0.2198  0.0192
  159SAPE   H3X17790   4.752   5.704   6.816  0.4448  1.5798 -1.5034
  159SAPE   H3Y17791   4.757   5.640   6.652 -0.3486 -2.7265 -0.8675
  159SAPE   C3417792   4.750   5.490   6.807  0.0350  0.3047 -0.2142
  159SAPE   H4X17793   4.861   5.486   6.795  0.2951  2.2872  1.2933
  159SAPE   H4Y17794   4.704   5.411   6.745 -0.5904 -0.2081  0.8915
  159SAPE   C3517795   4.707   5.475   6.957  0.0766 -1.0336 -0.3942
  159SAPE   H5X17796   4.739   5.375   6.992 -0.6738 -0.4452  2.1116
  159SAPE   H5Y17797   4.597   5.489   6.967  0.0651 -0.1813 -1.6793
  159SAPE   C3617798   4.783   5.571   7.047 -1.1869  0.1733  0.0207
  159SAPE   H6X17799   4.738   5.672   7.042 -1.9949 -0.0731  1.7533
  159SAPE   H6Y17800   4.892   5.573   7.025 -0.4292 -0.8211  3.2675
  159SAPE   C3717801   4.768   5.543   7.202 -0.4769 -0.2549  0.0560
  159SAPE   H7X17802   4.864   5.564   7.252  1.2310 -0.0316 -3.1808
  159SAPE   H7Y17803   4.771   5.435   7.224  1.1200  0.0070  1.1942
  159SAPE   C3817804   4.659   5.614   7.290 -0.4533  0.6906 -0.1062
  159SAPE   H8X17805   4.564   5.566   7.256 -0.0415  0.0497 -0.3488
  159SAPE   H8Y17806   4.651   5.724   7.282  2.4605  1.2193  3.0375
  159SAPE   C3917807   4.677   5.581   7.441 -0.0866  0.2505  0.6720
  159SAPE   H9X17808   4.702   5.473   7.443 -0.0188  0.2000 -1.6260
  159SAPE   H9Y17809   4.584   5.592   7.501  0.5840  0.3395  1.7119
  159SAPE  C31017810   4.782   5.672   7.501  0.1971  0.4108  0.9637
  159SAPE  H10X17811   4.742   5.774   7.479 -2.6402 -0.5810  1.3414
  159SAPE  H10Y17812   4.879   5.646   7.454 -1.3332 -2.4581 -0.6970
  159SAPE  C31117813   4.795   5.649   7.648 -0.3705 -0.4139  0.2441
  159SAPE  H11X17814   4.840   5.548   7.655 -0.5770 -0.4572  1.0582
  159SAPE  H11Y17815   4.693   5.647   7.693  0.0286  1.5540  1.2746
  159SAPE  C31217816   4.885   5.747   7.729  0.4176  0.5314  0.2538
  159SAPE  H12X17817   4.823   5.837   7.750 -0.9036 -0.7365  1.9036
  159SAPE  H12Y17818   4.961   5.773   7.652 -0.7301  0.5972 -0.8697
  159SAPE  C31317819   4.938   5.684   7.863 -0.6352 -0.5560  0.1575
  159SAPE  H13X17820   5.016   5.616   7.825 -2.1141 -1.3727 -1.4675
  159SAPE  H13Y17821   4.864   5.619   7.914 -0.9326  0.5935  1.2241
  159SAPE  C31417822   5.009   5.788   7.954  0.8601 -0.0858 -0.4580
  159SAPE  H14X17823   4.939   5.868   7.985  2.1843  2.2856 -3.3274
  159SAPE  H14Y17824   5.091   5.835   7.895  1.8291 -1.7920 -0.4977
  159SAPE  C31517825   5.085   5.717   8.071 -0.3112 -0.2032 -0.1147
  159SAPE  H15X17826   5.118   5.613   8.050  1.3342  0.2691  0.0462
  159SAPE  H15Y17827   5.008   5.709   8.150  0.4110 -0.0856  0.6152
  159SAPE  C31617828   5.192   5.800   8.147  0.2906 -0.5949 -0.1040
  159SAPE  H16X17829   5.187   5.774   8.255 -1.5903  2.4723  0.6121
  159SAPE  H16Y17830   5.161   5.906   8.158 -0.2935 -0.5307 -2.0999
  159SAPE  C31717831   5.328   5.777   8.095 -0.9501  0.5650  0.0396
  159SAPE  H17X17832   5.315   5.812   7.991  0.2697  2.1090  0.3929
  159SAPE  H17Y17833   5.356   5.670   8.108 -1.4803  0.5457  1.2016
  159SAPE  C31817834   5.450   5.859   8.150  0.0564  0.7491  0.4045
  159SAPE  H18X17835   5.470   5.831   8.256  1.3758 -2.6327 -0.6822
  159SAPE  H18Y17836   5.428   5.968   8.155 -0.4329  0.6771 -0.1746
  159SAPE  H18Z17837   5.541   5.837   8.090  1.9665  2.9386  2.3608
  160SAPE     N17838   4.877   3.132   6.250  0.0769 -0.0736 -0.1402
  160SAPE   HN117839   4.923   3.125   6.343 -0.3277  2.6556  0.3074
  160SAPE   HN217840   4.891   3.045   6.195 -0.3872 -0.0984 -0.2208
  160SAPE   HN317841   4.919   3.210   6.196  0.1164  0.6674  0.9333
  160SAPE   C1217842   4.736   3.169   6.277  0.1279  0.1572 -0.2514
  160SAPE  H12A17843   4.675   3.077   6.260  0.2725  0.0697 -0.3031
  160SAPE  H12B17844   4.697   3.236   6.197 -0.1301 -0.1002 -0.3418
  160SAPE   C1117845   4.721   3.232   6.415  0.5641 -0.1995 -0.6421
  160SAPE  H11A17846   4.728   3.157   6.497  1.6791 -0.0548 -0.5958
  160SAPE  H11B17847   4.620   3.276   6.428  0.5756 -0.0397 -1.1096
  160SAPE     P17848   4.789   3.493   6.396  0.2112  0.1635 -0.4284
  160SAPE   O1317849   4.908   3.554   6.328  0.4797  0.7871  0.2819
  160SAPE   O1417850   4.658   3.499   6.325 -0.4218 -0.3981 -0.3719
  160SAPE   O1217851   4.818   3.339   6.433  0.0859  0.2181  0.4008
  160SAPE   O1117852   4.769   3.563   6.537 -0.4049  0.5347 -0.0839
  160SAPE    C117853   4.674   3.511   6.625 -0.2491 -0.2895  0.3621
  160SAPE    HA17854   4.603   3.442   6.576 -0.5530 -0.6202  1.2572
  160SAPE    HB17855   4.729   3.454   6.703 -1.9869 -1.7312  0.5664
  160SAPE    C217856   4.595   3.628   6.685 -0.3394  0.1488 -0.0688
  160SAPE    HS17857   4.567   3.697   6.602 -1.9421  1.4708  1.5066
  160SAPE   O2117858   4.683   3.695   6.775 -0.4611 -0.5733  0.4843
  160SAPE   C2117859   4.655   3.823   6.796  0.0066  0.6631  0.4516
  160SAPE   O2217860   4.570   3.886   6.731 -0.4941  0.2802 -0.5565
  160SAPE   C2217861   4.730   3.859   6.924  0.7220  0.0845  1.0739
  160SAPE   H2R17862   4.716   3.779   7.000 -0.4926 -1.2501 -0.5204
  160SAPE   H2S17863   4.840   3.856   6.911  0.6585  0.3727  0.4647
  160SAPE    C317864   4.469   3.575   6.755  0.5191 -0.0098  0.2579
  160SAPE    HX17865   4.501   3.499   6.830  0.7856 -1.8353 -1.6501
  160SAPE    HY17866   4.412   3.539   6.666 -2.1847 -1.8019  2.6408
  160SAPE   O3117867   4.399   3.672   6.834 -0.6698  0.4406 -0.5871
  160SAPE   C3117868   4.289   3.729   6.787 -0.2711  0.2702 -0.3048
  160SAPE   O3217869   4.260   3.747   6.673  0.2286 -0.1123  0.4482
  160SAPE   C3217870   4.222   3.796   6.909  0.7006 -0.1522  0.1659
  160SAPE   H2X17871   4.180   3.718   6.975  0.5511 -0.5740 -0.4318
  160SAPE   H2Y17872   4.141   3.857   6.863  1.5608 -0.0747 -1.2702
  160SAPE   C2317873   4.694   4.009   6.972 -0.7278  0.2368  0.4044
  160SAPE   H3R17874   4.584   4.019   6.961 -0.5809  1.0486 -0.3637
  160SAPE   H3S17875   4.747   4.077   6.903  1.2700 -1.2019  0.4602
  160SAPE   C2417876   4.738   4.053   7.108  0.2616 -0.2193 -0.4526
  160SAPE   H4R17877   4.848   4.064   7.106  0.2698  0.3114  1.5802
  160SAPE   H4S17878   4.719   3.967   7.176 -0.0003 -0.2042 -0.5058
  160SAPE   C2517879   4.670   4.172   7.166 -0.0136 -0.2305  0.7524
  160SAPE   H5R17880   4.689   4.265   7.109  1.9298  0.2620  2.1458
  160SAPE   C2617881   4.588   4.174   7.276 -0.6228  0.1697  0.3861
  160SAPE   H6R17882   4.538   4.265   7.312  1.6332  1.2305  0.9265
  160SAPE   C2717883   4.550   4.056   7.366 -0.2466 -0.0857  0.3950
  160SAPE   H7R17884   4.527   3.966   7.305 -0.4675 -1.2082  2.1054
  160SAPE   H7S17885   4.467   4.084   7.433 -1.3854 -0.1577 -0.9719
  160SAPE   C2817886   4.666   4.010   7.451  0.2413 -0.2716 -0.2148
  160SAPE   H8R17887   4.738   3.937   7.409 -1.3610 -1.7178 -0.4755
  160SAPE   C2917888   4.665   4.013   7.583 -0.8635 -0.4391  0.1104
  160SAPE   H9R17889   4.749   3.965   7.636 -0.4282 -1.4248 -1.4364
  160SAPE  C21017890   4.559   4.084   7.670 -0.4398 -0.4362  0.4562
  160SAPE  H10R17891   4.458   4.055   7.634 -0.8184 -0.4999  1.5535
  160SAPE  H10S17892   4.569   4.195   7.662 -0.3547 -0.5284 -1.0072
  160SAPE  C21117893   4.568   4.044   7.816  0.0868  0.1058  0.0927
  160SAPE  H11R17894   4.572   4.131   7.883  0.3151  0.6739 -0.6503
  160SAPE  C21217895   4.564   3.925   7.870 -0.6828 -0.3905 -0.1238
  160SAPE  H12R17896   4.586   3.926   7.978  1.5000 -0.9741 -0.5510
  160SAPE  C21317897   4.545   3.787   7.809 -0.4325 -0.2518  0.6347
  160SAPE  H13R17898   4.519   3.714   7.888 -0.7677 -0.2658  0.5111
  160SAPE  H13S17899   4.642   3.746   7.774 -2.2532 -3.0004 -1.3408
  160SAPE  C21417900   4.440   3.773   7.698 -0.1982  0.0204  0.0087
  160SAPE  H14R17901   4.484   3.759   7.598 -0.8614 -1.6268 -0.0661
  160SAPE  C21517902   4.313   3.767   7.716  0.1783 -0.5218 -0.2172
  160SAPE  H15R17903   4.244   3.756   7.631 -1.1608  0.5416  0.7135
  160SAPE  C21617904   4.240   3.776   7.846  0.4096 -0.1588  0.2299
  160SAPE  H16R17905   4.166   3.859   7.847  1.0589  0.4103  1.5343
  160SAPE  H16S17906   4.313   3.801   7.925  1.8553  3.8447 -2.2062
  160SAPE  C21717907   4.173   3.637   7.870  0.5247  0.1601 -0.0222
  160SAPE  H17R17908   4.122   3.654   7.967 -1.6787 -2.1754 -0.7232
  160SAPE  H17S17909   4.252   3.560   7.867 -0.9242 -1.3127 -1.0135
  160SAPE  C21817910   4.063   3.613   7.766  0.2024  0.8464  0.0320
  160SAPE  H18R17911   4.106   3.618   7.664  1.5918  2.8577  0.6819
  160SAPE  H18S17912   3.994   3.699   7.781 -1.5763 -0.6774  0.9922
  160SAPE  C21917913   3.977   3.481   7.792 -0.0256  0.6649 -0.7329
  160SAPE  H19R17914   3.911   3.496   7.881 -0.1828 -0.8800 -0.5714
  160SAPE  H19S17915   4.044   3.396   7.818  0.6112  1.7751  1.3574
  160SAPE  C22017916   3.904   3.430   7.671 -0.5436 -0.0501  0.0211
  160SAPE  H20R17917   3.857   3.330   7.683 -0.7327  0.3293  2.7554
  160SAPE  H20S17918   3.976   3.440   7.586  1.4992  1.5837  1.8778
  160SAPE  H20T17919   3.821   3.500   7.651  1.1343  1.7367 -0.8858
  160SAPE   C3317920   4.333   3.887   6.979  0.0993 -0.1280  0.5589
  160SAPE   H3X17921   4.365   3.972   6.915  0.0210 -3.1058 -3.6766
  160SAPE   H3Y17922   4.425   3.834   7.011  0.3662  0.4885  0.8224
  160SAPE   C3417923   4.275   3.939   7.110  1.4540  0.2292 -0.0209
  160SAPE   H4X17924   4.182   3.998   7.094 -0.1068 -1.3179  2.9109
  160SAPE   H4Y17925   4.354   4.002   7.156  0.1860  2.5510 -0.9124
  160SAPE   C3517926   4.234   3.827   7.213  0.0931 -0.1754  0.1737
  160SAPE   H5X17927   4.316   3.756   7.240  0.1601  0.8095  2.7283
  160SAPE   H5Y17928   4.148   3.767   7.176  1.0562 -0.5706 -1.4656
  160SAPE   C3617929   4.204   3.880   7.352 -0.2260  0.6490 -0.3269
  160SAPE   H6X17930   4.295   3.915   7.405  0.7427 -2.0083 -0.1209
  160SAPE   H6Y17931   4.171   3.789   7.407  0.7663  0.1397 -0.5605
  160SAPE   C3717932   4.105   3.993   7.345 -0.7783 -0.1315 -0.2040
  160SAPE   H7X17933   4.037   3.964   7.263  0.5338 -2.7211 -0.4221
  160SAPE   H7Y17934   4.149   4.090   7.313 -1.8756  0.6065  0.4807
  160SAPE   C3817935   4.040   4.009   7.478  0.0881  0.7824 -0.3632
  160SAPE   H8X17936   3.979   4.101   7.489 -1.1418 -0.1786  1.1333
  160SAPE   H8Y17937   4.111   4.006   7.564  2.3004  0.1212 -2.1634
  160SAPE   C3917938   3.934   3.888   7.522 -0.1576 -0.6689 -0.0865
  160SAPE   H9X17939   3.994   3.799   7.549  1.6294  0.1371 -1.2932
  160SAPE   H9Y17940   3.883   3.860   7.427 -0.4426 -1.4260  0.2862
  160SAPE  C31017941   3.836   3.925   7.635 -0.4886 -0.3224  0.8166
  160SAPE  H10X17942   3.770   4.014   7.624 -0.6497 -0.3780  1.3010
  160SAPE  H10Y17943   3.896   3.934   7.728  0.5859  0.7505  0.0216
  160SAPE  C31117944   3.741   3.809   7.664  1.2332  0.6186  0.4331
  160SAPE  H11X17945   3.793   3.711   7.657 -1.0786 -0.5020 -2.2958
  160SAPE  H11Y17946   3.670   3.809   7.578  0.1227  3.1778  1.2867
  160SAPE  C31217947   3.665   3.826   7.798  0.6614  0.1194 -0.0333
  160SAPE  H12X17948   3.604   3.733   7.803  2.0534 -0.8048 -0.0558
  160SAPE  H12Y17949   3.604   3.918   7.787  0.1130 -0.3189 -0.7306
  160SAPE  C31317950   3.751   3.828   7.922 -0.4986  0.5848  0.6883
  160SAPE  H13X17951   3.831   3.905   7.924 -0.6224  0.7374 -0.2612
  160SAPE  H13Y17952   3.809   3.733   7.925 -2.7581 -1.0046 -2.7220
  160SAPE  C31417953   3.676   3.855   8.052  0.4789  0.3424  0.1561
  160SAPE  H14X17954   3.618   3.763   8.073 -1.1314  0.8821 -1.8596
  160SAPE  H14Y17955   3.604   3.938   8.037 -3.7070 -3.2536 -0.6113
  160SAPE  C31517956   3.770   3.870   8.172 -0.0776 -0.5276  0.0363
  160SAPE  H15X17957   3.840   3.953   8.149  0.5420 -1.2325 -0.6475
  160SAPE  H15Y17958   3.834   3.779   8.166 -1.9357 -1.9103  0.6042
  160SAPE  C31617959   3.699   3.880   8.303  0.4103 -0.8985  0.4258
  160SAPE  H16X17960   3.624   3.799   8.307 -0.3687 -0.1304  1.4106
  160SAPE  H16Y17961   3.642   3.974   8.318  3.2637  1.0427 -0.3070
  160SAPE  C31717962   3.789   3.864   8.429  0.1245 -0.5674 -0.0395
  160SAPE  H17X17963   3.860   3.779   8.416 -0.0075 -0.8055  0.8041
  160SAPE  H17Y17964   3.721   3.854   8.516 -0.5443  1.3882 -0.3181
  160SAPE  C31817965   3.874   3.984   8.449  0.5490  0.3969 -0.4862
  160SAPE  H18X17966   3.822   4.083   8.447  0.8478  0.5435 -3.0769
  160SAPE  H18Y17967   3.955   3.980   8.373  0.9681 -0.1542 -0.0131
  160SAPE  H18Z17968   3.917   3.970   8.550 -0.3031  3.1808  0.3219
  161SOPE     N17969   2.523   5.889  10.569 -0.2255 -0.2201  0.1317
  161SOPE   HN117970   2.477   5.818  10.508  1.1837  0.5880 -1.9162
  161SOPE   HN217971   2.596   5.950  10.527 -0.5482  1.8205  2.4805
  161SOPE   HN317972   2.579   5.831  10.634 -1.7653 -0.9085  0.8719
  161SOPE   C1217973   2.428   5.975  10.641  1.1051 -0.2761 -0.5262
  161SOPE  H12A17974   2.428   5.937  10.745 -1.1155 -0.3656 -0.5178
  161SOPE  H12B17975   2.328   5.966  10.592  0.6517 -1.7535  0.6423
  161SOPE   C1117976   2.480   6.122  10.649  0.8093  0.4336 -0.6892
  161SOPE  H11A17977   2.393   6.170  10.699 -1.4529 -2.1722 -1.9546
  161SOPE  H11B17978   2.493   6.168  10.549 -0.0632 -0.0467 -1.0278
  161SOPE     P17979   2.742   6.145  10.659  0.0508  0.2113 -0.5546
  161SOPE   O1317980   2.852   6.128  10.761 -0.0775 -0.5803  0.4177
  161SOPE   O1417981   2.726   6.274  10.590 -0.5084 -0.0801 -0.1458
  161SOPE   O1217982   2.606   6.111  10.720  0.6106 -0.7076 -0.3976
  161SOPE   O1117983   2.756   6.032  10.539  0.0368 -0.8559  0.1644
  161SOPE    C117984   2.878   5.959  10.529  0.0160  0.0695 -0.6588
  161SOPE    HA17985   2.858   5.849  10.528 -1.2437  0.2821 -0.2615
  161SOPE    HB17986   2.943   5.976  10.617  0.6109 -0.7695 -0.9233
  161SOPE    C217987   2.960   6.001  10.405  0.4382 -0.1595 -0.1387
  161SOPE    HS17988   3.043   6.070  10.430 -0.4261  2.1363 -3.3156
  161SOPE   O2117989   2.875   6.043  10.300  0.1657 -0.5531 -0.3392
  161SOPE   C2117990   2.933   6.121  10.208  0.6007  0.1508 -0.4088
  161SOPE   O2217991   3.048   6.165  10.214 -0.1573 -0.0245  0.6937
  161SOPE   C2217992   2.845   6.140  10.085 -0.4177  0.1283 -0.1101
  161SOPE   H2R17993   2.891   6.220  10.024 -0.4254  0.0577 -0.2072
  161SOPE   H2S17994   2.752   6.185  10.126  1.4306  3.3013  0.7776
  161SOPE    C317995   3.034   5.873  10.355 -0.4285  0.0548 -0.0328
  161SOPE    HX17996   2.962   5.798  10.317 -1.0803  0.8729 -0.4163
  161SOPE    HY17997   3.074   5.817  10.442 -2.0157  0.9498  1.2835
  161SOPE   O3117998   3.140   5.904  10.263 -0.1471 -0.1777 -0.3265
  161SOPE   C3117999   3.161   5.822  10.168 -0.2432 -0.4490  0.5771
  161SOPE   O3218000   3.102   5.718  10.144 -0.6554  0.2126 -0.6519
  161SOPE   C3218001   3.270   5.878  10.080  1.0082  0.4054 -0.6608
  161SOPE   H2X18002   3.343   5.795  10.066  0.3380 -0.4763  0.9756
  161SOPE   H2Y18003   3.312   5.971  10.122  0.2509 -0.1042  1.2715
  161SOPE   C2318004   2.828   6.009  10.012  0.1679 -0.0962  0.3408
  161SOPE   H3R18005   2.733   5.964  10.048 -0.2378  1.9198  1.8615
  161SOPE   H3S18006   2.911   5.935  10.006  0.6808  0.5796 -1.0627
  161SOPE   C2418007   2.799   6.048   9.861 -0.9987 -0.3057 -0.0822
  161SOPE   H4R18008   2.742   6.143   9.857  2.8204  2.0391 -2.2777
  161SOPE   H4S18009   2.898   6.069   9.815 -1.4265  1.2857 -0.3078
  161SOPE   C2518010   2.748   5.925   9.786 -0.3880 -0.2780  0.2043
  161SOPE   H5R18011   2.821   5.841   9.786 -1.9765 -1.7036 -1.7593
  161SOPE   H5S18012   2.653   5.895   9.834 -1.8302 -0.3248 -2.5989
  161SOPE   C2618013   2.716   5.947   9.640 -0.7192 -1.1985 -0.3225
  161SOPE   H6R18014   2.624   6.010   9.632  0.2812  0.5198  1.1693
  161SOPE   H6S18015   2.796   6.011   9.598 -2.5576  0.6486 -1.1583
  161SOPE   C2718016   2.694   5.809   9.563  0.1319 -0.1096 -0.4478
  161SOPE   H7R18017   2.794   5.760   9.552 -0.1525 -0.6141 -0.7876
  161SOPE   H7S18018   2.631   5.738   9.621  1.1133  0.2705  1.1256
  161SOPE   C2818019   2.649   5.843   9.414  0.3303  0.3354  0.0874
  161SOPE   H8R18020   2.722   5.917   9.373  0.8915 -0.9718 -1.2961
  161SOPE   H8S18021   2.669   5.754   9.351 -0.6048  0.7085 -0.7495
  161SOPE   C2918022   2.511   5.901   9.398  0.0417  0.0234  0.1586
  161SOPE   H9118023   2.487   5.988   9.462  2.5532  0.6072  0.3528
  161SOPE  C21018024   2.405   5.841   9.337  0.1217 -0.0611 -0.2191
  161SOPE  H10118025   2.300   5.875   9.347 -0.0072 -0.4959 -0.0893
  161SOPE  C21118026   2.409   5.712   9.268 -0.3189 -0.1266 -0.2657
  161SOPE  H11R18027   2.510   5.669   9.255 -0.7382 -0.7231 -1.5918
  161SOPE  H11S18028   2.374   5.715   9.163  1.0294 -0.4018 -0.7283
  161SOPE  C21218029   2.339   5.616   9.365  0.8252 -0.1032  0.4759
  161SOPE  H12R18030   2.366   5.635   9.471  3.8188 -1.1086 -0.0657
  161SOPE  H12S18031   2.379   5.513   9.351  1.9540  0.2797  0.9083
  161SOPE  C21318032   2.191   5.603   9.351 -0.1663 -0.4455 -0.3401
  161SOPE  H13R18033   2.174   5.604   9.241  2.2667 -1.4290 -0.7611
  161SOPE  H13S18034   2.138   5.685   9.404  1.4598 -0.6468  1.6485
  161SOPE  C21418035   2.132   5.460   9.399  0.5231  0.3737 -0.2702
  161SOPE  H14R18036   2.167   5.398   9.314  0.9135 -0.2135  0.3129
  161SOPE  H14S18037   2.022   5.472   9.402  0.5374  0.5867 -0.5065
  161SOPE  C21518038   2.186   5.429   9.533  0.1256  0.3297 -0.0472
  161SOPE  H15R18039   2.170   5.512   9.604 -1.2680  0.8779 -0.9788
  161SOPE  H15S18040   2.294   5.409   9.543  0.4987  2.0460 -0.5530
  161SOPE  C21618041   2.098   5.319   9.604 -0.5823 -0.1681 -0.4386
  161SOPE  H16R18042   1.998   5.363   9.625 -0.1225  0.4501  0.4700
  161SOPE  H16S18043   2.146   5.288   9.699 -1.9891 -2.5796 -0.4715
  161SOPE  C21718044   2.077   5.190   9.525  0.9320 -0.1404 -0.0912
  161SOPE  H17R18045   2.179   5.160   9.493 -0.2091 -2.4410 -1.7103
  161SOPE  H17S18046   2.022   5.213   9.432 -1.4433 -0.5235  1.1810
  161SOPE  C21818047   2.013   5.073   9.605  0.0558  0.0309  0.2861
  161SOPE  H18R18048   2.065   5.057   9.702  0.6373  2.1945  0.3749
  161SOPE  H18S18049   2.027   4.977   9.552 -0.1823  1.4671 -2.4224
  161SOPE  H18T18050   1.903   5.091   9.609  0.3373  1.9743  0.0759
  161SOPE   C3318051   3.203   5.920   9.950 -0.1060 -0.2264 -0.7515
  161SOPE   H3X18052   3.126   5.999   9.969 -1.0892 -0.6066 -2.9675
  161SOPE   H3Y18053   3.146   5.832   9.913 -0.7854 -0.1802  0.1666
  161SOPE   C3418054   3.304   5.955   9.839 -0.0564 -0.7444  0.3738
  161SOPE   H4X18055   3.369   5.866   9.824 -0.8062 -1.0421 -1.1652
  161SOPE   H4Y18056   3.365   6.045   9.865 -2.2915  1.7731 -2.6533
  161SOPE   C3518057   3.238   6.003   9.706 -0.0147  0.0843  0.2471
  161SOPE   H5X18058   3.314   6.020   9.626 -1.0093  0.9216 -0.5475
  161SOPE   H5Y18059   3.193   6.103   9.722  1.8480  0.9067  0.5401
  161SOPE   C3618060   3.138   5.902   9.659 -0.1447  0.2082 -0.3692
  161SOPE   H6X18061   3.052   5.908   9.729 -0.0305  0.4287 -0.2510
  161SOPE   H6Y18062   3.174   5.797   9.653  3.0591  1.1899  0.8495
  161SOPE   C3718063   3.077   5.936   9.523 -0.1479 -0.3846 -0.4703
  161SOPE   H7X18064   3.034   6.037   9.543 -2.7395 -1.3532 -0.9704
  161SOPE   H7Y18065   3.009   5.856   9.489 -1.4445  0.3795  0.2837
  161SOPE   C3818066   3.178   5.952   9.402  0.1907  1.0873  0.1525
  161SOPE   H8X18067   3.204   5.849   9.368 -2.4990  0.9810 -1.7715
  161SOPE   H8Y18068   3.268   6.013   9.426 -0.5909  0.2894  5.5398
  161SOPE   C3918069   3.113   6.027   9.281  0.0750  0.0840  0.1720
  161SOPE   H9X18070   3.070   6.126   9.310  1.0783  0.1838  1.3866
  161SOPE   H9Y18071   3.024   5.974   9.242  1.1081 -2.6960  1.4688
  161SOPE  C31018072   3.215   6.051   9.171 -0.0467  0.4308 -0.6498
  161SOPE  H10X18073   3.268   5.957   9.144  1.5841  1.3655 -0.7971
  161SOPE  H10Y18074   3.292   6.116   9.220 -2.1508 -0.3593  4.0166
  161SOPE  C31118075   3.161   6.118   9.045 -0.1922  0.3692  0.2707
  161SOPE  H11X18076   3.093   6.204   9.063 -0.2742  0.3195  0.1997
  161SOPE  H11Y18077   3.100   6.054   8.977  2.0134  0.2496 -1.6654
  161SOPE  C31218078   3.276   6.151   8.947 -0.3755  0.2598 -0.2776
  161SOPE  H12X18079   3.337   6.236   8.984 -3.1770  1.0313  2.8288
  161SOPE  H12Y18080   3.233   6.176   8.848  1.0257 -1.6020 -1.3713
  161SOPE  C31318081   3.363   6.027   8.919  0.1691  0.3898 -0.1162
  161SOPE  H13X18082   3.301   5.940   8.887  0.4048  0.2065 -0.0788
  161SOPE  H13Y18083   3.413   5.989   9.011 -0.5428 -0.6070 -0.1323
  161SOPE  C31418084   3.479   6.057   8.828  0.3895 -1.0899 -0.3089
  161SOPE  H14X18085   3.437   6.129   8.754 -0.1344  0.3248  1.3490
  161SOPE  H14Y18086   3.505   5.969   8.765 -1.1739 -2.3555  0.7968
  161SOPE  C31518087   3.606   6.129   8.891  0.8514  0.5644 -0.2312
  161SOPE  H15X18088   3.667   6.064   8.957  2.1244  0.1633 -1.7822
  161SOPE  H15Y18089   3.564   6.205   8.960  0.5960 -0.8333  1.1919
  161SOPE  C31618090   3.690   6.194   8.787 -0.5637 -0.2101  0.3984
  161SOPE  H16X18091   3.766   6.265   8.826 -0.9217  0.9638 -1.0008
  161SOPE  H16Y18092   3.620   6.249   8.720 -0.9619 -0.3217  0.7206
  161SOPE  C31718093   3.760   6.091   8.702 -0.3757  0.2773 -0.5473
  161SOPE  H17X18094   3.688   6.059   8.624  2.1378  0.1935 -2.8859
  161SOPE  H17Y18095   3.785   6.001   8.763 -1.6956 -0.2614 -0.8031
  161SOPE  C31818096   3.887   6.150   8.633  0.1760  0.3016  0.0541
  161SOPE  H18X18097   3.867   6.220   8.549 -2.1461  0.3801  0.6312
  161SOPE  H18Y18098   3.942   6.066   8.585 -0.3830  0.8495 -1.5995
  161SOPE  H18Z18099   3.948   6.196   8.713 -1.0535  1.0304  0.5839
  162SOPE     N18100   1.183   5.299  11.208 -0.1539 -0.4881 -0.5442
  162SOPE   HN118101   1.160   5.220  11.144  0.8113 -1.3051  0.1044
  162SOPE   HN218102   1.256   5.272  11.277 -0.4676 -0.3188 -0.1414
  162SOPE   HN318103   1.099   5.311  11.270 -2.1632  0.4521 -3.3630
  162SOPE   C1218104   1.233   5.434  11.150  0.8507 -0.8082 -0.1339
  162SOPE  H12A18105   1.215   5.519  11.219  3.0337  1.2642 -2.0293
  162SOPE  H12B18106   1.168   5.462  11.065  1.2046  1.8357  0.4421
  162SOPE   C1118107   1.384   5.430  11.114  0.2130 -0.4242 -0.2349
  162SOPE  H11A18108   1.437   5.410  11.209 -0.0490 -0.3641 -0.0751
  162SOPE  H11B18109   1.414   5.525  11.065  0.0317 -0.5234 -0.5424
  162SOPE     P18110   1.554   5.296  10.949  0.3321  0.2118  0.1512
  162SOPE   O1318111   1.641   5.243  11.054  0.2968  0.3523 -0.0990
  162SOPE   O1418112   1.606   5.407  10.863 -0.2052  0.1316 -0.4112
  162SOPE   O1218113   1.407   5.327  11.015  0.2164 -0.2823  0.3855
  162SOPE   O1118114   1.518   5.173  10.857 -0.4337 -0.5830  0.2506
  162SOPE    C118115   1.404   5.160  10.770 -0.2737  0.0499 -0.0123
  162SOPE    HA18116   1.326   5.229  10.808 -0.1451  1.2810 -1.9262
  162SOPE    HB18117   1.367   5.055  10.779 -2.1759  0.6254 -0.9738
  162SOPE    C218118   1.442   5.194  10.621 -0.8519 -0.0147 -0.3494
  162SOPE    HS18119   1.538   5.140  10.602 -0.4273  0.7839 -0.5013
  162SOPE   O2118120   1.484   5.336  10.615 -0.3840  0.4587 -0.0944
  162SOPE   C2118121   1.573   5.364  10.517  0.1757  0.6387 -0.3335
  162SOPE   O2218122   1.606   5.286  10.427 -0.7595  0.6621  0.1584
  162SOPE   C2218123   1.604   5.515  10.519  0.1328 -0.5465  0.3037
  162SOPE   H2R18124   1.631   5.529  10.625 -2.9451 -3.5747  1.5859
  162SOPE   H2S18125   1.514   5.573  10.489  0.6856 -0.7417 -1.8870
  162SOPE    C318126   1.323   5.152  10.535 -0.1468  0.0227  0.1533
  162SOPE    HX18127   1.249   5.234  10.555 -1.0503 -0.0678 -2.6396
  162SOPE    HY18128   1.271   5.057  10.561  1.1314 -0.0004  2.7774
  162SOPE   O3118129   1.351   5.142  10.397  0.1027 -0.3921  0.1384
  162SOPE   C3118130   1.415   5.036  10.352  0.1288  0.9574  0.4807
  162SOPE   O3218131   1.453   4.937  10.417  0.2124 -0.6671  0.1372
  162SOPE   C3218132   1.454   5.057  10.207 -0.6723  1.1582 -0.7562
  162SOPE   H2X18133   1.564   5.041  10.200 -0.7132  0.9976 -1.0294
  162SOPE   H2Y18134   1.446   5.163  10.175  0.2131  1.4167 -0.1263
  162SOPE   C2318135   1.717   5.566  10.421 -0.1327  0.8823 -0.5424
  162SOPE   H3R18136   1.779   5.481  10.384 -2.6688 -1.6812  0.9517
  162SOPE   H3S18137   1.782   5.636  10.479  0.5425 -0.3778  0.2354
  162SOPE   C2418138   1.673   5.648  10.300 -0.4720 -0.3419 -0.9617
  162SOPE   H4R18139   1.602   5.727  10.332 -0.7977 -0.0411 -2.3873
  162SOPE   H4S18140   1.763   5.703  10.264 -0.6298 -0.5445 -1.6874
  162SOPE   C2518141   1.606   5.562  10.195 -0.3379  0.7812 -0.1313
  162SOPE   H5R18142   1.674   5.477  10.170 -0.0665  0.8120  0.4938
  162SOPE   H5S18143   1.513   5.516  10.234 -0.2733 -0.7723 -1.7183
  162SOPE   C2618144   1.594   5.626  10.056  0.2935 -0.6719  0.5457
  162SOPE   H6R18145   1.506   5.592   9.997  0.3429 -2.6805  1.5955
  162SOPE   H6S18146   1.587   5.736  10.070 -0.6909 -0.6957  0.2886
  162SOPE   C2718147   1.706   5.580   9.967 -0.0596 -0.3456 -0.5814
  162SOPE   H7R18148   1.798   5.625  10.011 -0.4986  1.3362 -1.3256
  162SOPE   H7S18149   1.721   5.471   9.951  1.2943 -0.1514 -0.6613
  162SOPE   C2818150   1.675   5.633   9.825  0.2445  0.1923  0.7860
  162SOPE   H8R18151   1.584   5.582   9.787 -0.4571  0.5935  1.9081
  162SOPE   H8S18152   1.662   5.742   9.842 -1.8094  0.6347 -3.0356
  162SOPE   C2918153   1.793   5.598   9.728 -0.0844 -0.3520 -0.0990
  162SOPE   H9118154   1.890   5.592   9.779 -1.8393 -0.3179  3.4070
  162SOPE  C21018155   1.787   5.590   9.597 -0.2777  0.3362 -0.0016
  162SOPE  H10118156   1.874   5.559   9.538 -0.7406 -1.5175  0.2702
  162SOPE  C21118157   1.670   5.608   9.510  0.1110  0.6238 -1.1036
  162SOPE  H11R18158   1.685   5.671   9.420  0.4514 -0.1067 -1.5580
  162SOPE  H11S18159   1.589   5.659   9.568  0.3322 -0.2787  0.0169
  162SOPE  C21218160   1.621   5.467   9.467 -0.2085 -0.9733  0.3512
  162SOPE  H12R18161   1.523   5.477   9.416  0.5025 -1.5104 -1.1443
  162SOPE  H12S18162   1.607   5.391   9.547 -2.3757 -1.0753 -0.0934
  162SOPE  C21318163   1.707   5.397   9.365 -0.1736 -0.1017 -0.6255
  162SOPE  H13R18164   1.652   5.315   9.315 -1.0757 -0.5221  1.0136
  162SOPE  H13S18165   1.802   5.361   9.410 -0.6890 -1.4977 -0.6381
  162SOPE  C21418166   1.733   5.489   9.238  0.4423 -0.0629 -0.3595
  162SOPE  H14R18167   1.800   5.424   9.179 -0.2756 -1.0023 -0.1508
  162SOPE  H14S18168   1.784   5.576   9.285 -0.4441 -0.2033  0.8927
  162SOPE  C21518169   1.610   5.532   9.167  0.5331 -0.1769  1.2230
  162SOPE  H15R18170   1.545   5.602   9.224 -2.1637  0.6223 -2.6238
  162SOPE  H15S18171   1.553   5.445   9.127  1.4043 -0.1309 -0.1367
  162SOPE  C21618172   1.657   5.627   9.055 -0.1488 -0.0350  0.3365
  162SOPE  H16R18173   1.721   5.580   8.977  0.9496 -0.1849  1.3165
  162SOPE  H16S18174   1.728   5.700   9.098  3.1417 -4.0641  2.1549
  162SOPE  C21718175   1.538   5.682   8.983  0.1869  0.2107 -0.1434
  162SOPE  H17R18176   1.465   5.730   9.052 -0.6581 -1.0545 -0.1511
  162SOPE  H17S18177   1.480   5.601   8.934 -0.2126  0.0731  0.5511
  162SOPE  C21818178   1.586   5.777   8.876 -0.0019 -0.0330  0.2510
  162SOPE  H18R18179   1.641   5.728   8.793  0.6847  0.5055  0.3843
  162SOPE  H18S18180   1.658   5.850   8.918  1.2945 -0.7253 -0.7168
  162SOPE  H18T18181   1.510   5.845   8.832 -1.1734 -1.7730 -0.4810
  162SOPE   C3318182   1.388   4.955  10.118 -0.3250 -0.9956 -0.2186
  162SOPE   H3X18183   1.279   4.946  10.141 -0.2635 -0.7596  0.1600
  162SOPE   H3Y18184   1.421   4.850  10.132  0.8933 -0.7694 -1.2720
  162SOPE   C3418185   1.404   4.992   9.971  0.8769  1.2656 -0.0480
  162SOPE   H4X18186   1.385   5.099   9.947 -2.1824  0.9699  0.7921
  162SOPE   H4Y18187   1.329   4.934   9.913 -1.1701  3.7432  0.0299
  162SOPE   C3518188   1.532   4.924   9.903  0.1501  0.2505 -0.2790
  162SOPE   H5X18189   1.515   4.815   9.895 -0.1230  0.2041  0.8206
  162SOPE   H5Y18190   1.622   4.938   9.968  1.9071 -0.7260 -2.4533
  162SOPE   C3618191   1.557   4.968   9.755 -0.2693  0.3846  0.0276
  162SOPE   H6X18192   1.582   5.076   9.760 -0.4957  0.4009  0.8950
  162SOPE   H6Y18193   1.465   4.947   9.697  0.4763 -0.9088 -0.7364
  162SOPE   C3718194   1.673   4.884   9.704  0.7748  0.2283  0.6527
  162SOPE   H7X18195   1.750   4.889   9.784  0.8838  0.1281  0.5570
  162SOPE   H7Y18196   1.704   4.938   9.612 -0.9622  2.5340  1.3852
  162SOPE   C3818197   1.640   4.736   9.678  0.2191 -1.1221  0.1736
  162SOPE   H8X18198   1.553   4.741   9.609 -0.9845  1.0831  1.8154
  162SOPE   H8Y18199   1.601   4.684   9.768  0.2782 -1.2175  0.1443
  162SOPE   C3918200   1.759   4.659   9.614 -0.0842  0.6434  0.1700
  162SOPE   H9X18201   1.728   4.552   9.611 -0.0445  0.5919  1.3883
  162SOPE   H9Y18202   1.846   4.671   9.683  0.1630  1.9682 -0.3551
  162SOPE  C31018203   1.790   4.705   9.476 -0.2131 -0.7150 -0.3870
  162SOPE  H10X18204   1.819   4.813   9.472  1.0244 -1.0641 -1.0223
  162SOPE  H10Y18205   1.701   4.683   9.412  0.9098 -3.0193 -1.2065
  162SOPE  C31118206   1.908   4.624   9.422  0.2454  0.7651  0.0583
  162SOPE  H11X18207   1.880   4.518   9.405  1.5307  0.4508 -0.1910
  162SOPE  H11Y18208   1.991   4.618   9.496 -0.4033  0.3717  0.7547
  162SOPE  C31218209   1.971   4.689   9.297  0.4766 -0.2524  0.4041
  162SOPE  H12X18210   2.005   4.794   9.307 -1.5679  0.4398  0.1283
  162SOPE  H12Y18211   1.902   4.682   9.211  4.1024 -0.1171 -2.6694
  162SOPE  C31318212   2.090   4.612   9.251  1.1906  0.1127  0.5937
  162SOPE  H13X18213   2.072   4.503   9.244  0.3444  0.2868 -0.0447
  162SOPE  H13Y18214   2.162   4.631   9.334  1.2034  1.2314  0.3366
  162SOPE  C31418215   2.148   4.656   9.116 -0.4344  0.0651 -0.2045
  162SOPE  H14X18216   2.176   4.763   9.125  0.1843  0.0575 -1.8095
  162SOPE  H14Y18217   2.074   4.640   9.035  0.1566  1.5999 -1.0773
  162SOPE  C31518218   2.273   4.584   9.069 -0.4244  0.4314 -0.2278
  162SOPE  H15X18219   2.234   4.490   9.024 -0.2760  0.4049 -0.3004
  162SOPE  H15Y18220   2.340   4.566   9.156  0.6550 -2.4207 -1.5796
  162SOPE  C31618221   2.356   4.663   8.964  0.7556  0.3720  0.1595
  162SOPE  H16X18222   2.400   4.759   8.999  0.7055  1.2080 -2.0255
  162SOPE  H16Y18223   2.289   4.686   8.879  0.9316  1.6010  0.3497
  162SOPE  C31718224   2.465   4.579   8.897  0.5922 -0.0711  0.0855
  162SOPE  H17X18225   2.405   4.497   8.851  0.5965  0.1490 -0.3159
  162SOPE  H17Y18226   2.530   4.524   8.968  0.6809 -2.9150 -2.1077
  162SOPE  C31818227   2.537   4.677   8.793  0.2250  0.3118 -0.6861
  162SOPE  H18X18228   2.579   4.614   8.712 -1.7538  0.2591 -1.7002
  162SOPE  H18Y18229   2.617   4.732   8.848  1.9390  0.6071 -3.3484
  162SOPE  H18Z18230   2.462   4.745   8.747  1.0941 -0.0945 -2.7707
  163SOPE     N18231   1.567   2.411  10.812 -0.1228 -0.2737  1.2192
  163SOPE   HN118232   1.586   2.402  10.710  1.2183  1.8222  1.2431
  163SOPE   HN218233   1.526   2.318  10.835 -1.8976  0.0846 -0.3673
  163SOPE   HN318234   1.494   2.485  10.807  0.8502  0.6082 -0.4198
  163SOPE   C1218235   1.698   2.445  10.877 -0.4198 -0.2623  0.3873
  163SOPE  H12A18236   1.775   2.375  10.839  1.3024  1.4564  0.6424
  163SOPE  H12B18237   1.681   2.425  10.985 -0.9406  1.8021  0.7172
  163SOPE   C1118238   1.745   2.593  10.861 -0.6827  0.1740 -0.3073
  163SOPE  H11A18239   1.777   2.606  10.756  0.5575 -2.3908 -0.2720
  163SOPE  H11B18240   1.832   2.605  10.930  0.2904  1.5630 -1.7386
  163SOPE     P18241   1.656   2.825  10.858  0.0251  0.4868 -0.1283
  163SOPE   O1318242   1.798   2.851  10.901 -0.4051 -0.6576  0.5346
  163SOPE   O1418243   1.546   2.916  10.897  1.0127  0.2155 -0.3935
  163SOPE   O1218244   1.624   2.675  10.897 -0.0240 -0.4285 -0.1460
  163SOPE   O1118245   1.652   2.830  10.703  0.0075  0.0853 -0.3387
  163SOPE    C118246   1.546   2.760  10.631  0.0087  0.6610 -0.8084
  163SOPE    HA18247   1.450   2.806  10.663 -0.4263 -0.5297 -0.4083
  163SOPE    HB18248   1.545   2.654  10.662 -1.3950  1.4650  2.0738
  163SOPE    C218249   1.556   2.780  10.481 -0.4198  0.0827  0.2909
  163SOPE    HS18250   1.621   2.704  10.432 -1.1394 -1.7182  2.0524
  163SOPE   O2118251   1.597   2.909  10.448  0.2652 -0.2783  0.2126
  163SOPE   C2118252   1.655   2.921  10.327 -0.5265 -0.1500  0.2455
  163SOPE   O2218253   1.688   2.830  10.256 -0.2042 -0.0969  0.4046
  163SOPE   C2218254   1.671   3.062  10.299  0.7012  0.1441 -0.2518
  163SOPE   H2R18255   1.722   3.111  10.385 -2.6488  1.8782  0.8151
  163SOPE   H2S18256   1.567   3.099  10.291 -0.4680 -2.8539  0.4686
  163SOPE    C318257   1.414   2.770  10.424  0.3661 -0.3069 -0.1050
  163SOPE    HX18258   1.360   2.865  10.441  1.6255  0.4320 -0.1589
  163SOPE    HY18259   1.368   2.686  10.480  0.1388 -0.3851 -0.4088
  163SOPE   O3118260   1.402   2.742  10.278  1.0417  0.2772  0.0648
  163SOPE   C3118261   1.439   2.623  10.249 -0.5789  0.1283 -0.1803
  163SOPE   O3218262   1.472   2.526  10.314  0.4683  0.1935 -0.3320
  163SOPE   C3218263   1.440   2.621  10.096  0.1718  0.1592  0.0729
  163SOPE   H2X18264   1.473   2.717  10.050 -2.8179  1.2706  0.1938
  163SOPE   H2Y18265   1.338   2.599  10.060 -0.5919  2.9841  0.3500
  163SOPE   C2318266   1.765   3.099  10.179 -0.1919 -0.1146 -0.2237
  163SOPE   H3R18267   1.868   3.060  10.196 -0.7998 -0.5240  2.7629
  163SOPE   H3S18268   1.785   3.208  10.176  0.9507 -0.2993  0.5416
  163SOPE   C2418269   1.694   3.063  10.048 -0.6727  0.4739 -0.3165
  163SOPE   H4R18270   1.714   2.957  10.019 -1.5139 -0.2192  1.5888
  163SOPE   H4S18271   1.583   3.059  10.054 -0.7696 -1.2178 -2.4815
  163SOPE   C2518272   1.725   3.161   9.927  0.1464 -0.8242  0.1630
  163SOPE   H5R18273   1.681   3.259   9.953 -0.7500 -1.3727  0.7375
  163SOPE   H5S18274   1.834   3.164   9.904  0.2285  3.8419  0.7265
  163SOPE   C2618275   1.662   3.108   9.794 -0.7466 -0.1667  0.5697
  163SOPE   H6R18276   1.707   3.009   9.771  1.3444  0.4822  1.7306
  163SOPE   H6S18277   1.555   3.084   9.808 -1.0957  0.8915 -0.2171
  163SOPE   C2718278   1.666   3.208   9.683  0.0587 -0.2797 -0.0907
  163SOPE   H7R18279   1.609   3.293   9.726  2.5580  0.9493  0.9067
  163SOPE   H7S18280   1.766   3.258   9.681 -0.1976  0.2360  0.0451
  163SOPE   C2818281   1.597   3.156   9.557  0.5883 -0.6292  0.0805
  163SOPE   H8R18282   1.506   3.101   9.589  1.8588 -3.0208 -0.3450
  163SOPE   H8S18283   1.582   3.245   9.492  1.9504 -0.7716 -0.4518
  163SOPE   C2918284   1.686   3.054   9.487  0.4179 -0.3513  0.0709
  163SOPE   H9118285   1.794   3.064   9.508  0.9942 -0.8066 -2.4578
  163SOPE  C21018286   1.644   2.967   9.392 -0.2686  0.4238 -0.0509
  163SOPE  H10118287   1.725   2.915   9.340 -1.8808 -0.4422 -1.7257
  163SOPE  C21118288   1.502   2.964   9.341  0.1231  0.2779  0.3831
  163SOPE  H11R18289   1.445   3.041   9.396 -0.9637  0.6008 -1.1824
  163SOPE  H11S18290   1.442   2.871   9.353  1.3878 -0.9389 -2.3477
  163SOPE  C21218291   1.497   3.002   9.192  0.0975 -0.4921 -1.3135
  163SOPE  H12R18292   1.539   2.920   9.130  1.5370 -1.0146  0.2841
  163SOPE  H12S18293   1.564   3.091   9.190 -0.1755 -0.2464 -0.1554
  163SOPE  C21318294   1.359   3.026   9.140  0.6946 -1.0722 -0.4967
  163SOPE  H13R18295   1.314   3.106   9.203 -0.8249 -1.2283 -1.3458
  163SOPE  H13S18296   1.283   2.946   9.154 -1.7675  0.9341 -2.0197
  163SOPE  C21418297   1.370   3.093   9.005  0.5004 -0.3237  0.4001
  163SOPE  H14R18298   1.446   3.173   9.004  0.4025 -0.2218  0.9947
  163SOPE  H14S18299   1.271   3.140   8.987 -0.7037 -2.5208  1.1031
  163SOPE  C21518300   1.405   2.990   8.892  0.9582  0.1786 -0.3730
  163SOPE  H15R18301   1.490   2.925   8.923  0.0364 -1.1826 -0.6513
  163SOPE  H15S18302   1.449   3.043   8.805  1.0305 -2.8888 -2.2614
  163SOPE  C21618303   1.276   2.917   8.843 -0.0188 -0.4433  0.2630
  163SOPE  H16R18304   1.205   2.890   8.924  0.4801  0.5876  1.0578
  163SOPE  H16S18305   1.324   2.822   8.811  4.9459  1.8122  0.5766
  163SOPE  C21718306   1.200   2.978   8.725  0.2263 -0.3320  0.0954
  163SOPE  H17R18307   1.270   3.009   8.644 -1.4732  0.4893 -1.0954
  163SOPE  H17S18308   1.145   3.070   8.752 -1.1140 -0.2385 -2.7557
  163SOPE  C21818309   1.095   2.880   8.681 -0.3636  0.0390 -0.2691
  163SOPE  H18R18310   1.145   2.785   8.652  1.8134  1.3698 -0.9712
  163SOPE  H18S18311   1.041   2.920   8.592  1.2322  2.2849 -0.2718
  163SOPE  H18T18312   1.021   2.866   8.763 -1.3222  3.9573 -0.3826
  163SOPE   C3318313   1.531   2.510  10.037 -0.0044  0.2938 -0.5172
  163SOPE   H3X18314   1.505   2.508   9.929 -0.5139 -4.6784 -0.3957
  163SOPE   H3Y18315   1.499   2.413  10.081 -0.7389  0.7473 -0.0414
  163SOPE   C3418316   1.682   2.536  10.048 -0.0579 -0.1240 -0.5667
  163SOPE   H4X18317   1.703   2.544  10.157  1.3872 -2.4082 -0.6500
  163SOPE   H4Y18318   1.697   2.635  10.000 -3.7178  0.5939 -0.3552
  163SOPE   C3518319   1.760   2.426   9.980 -0.7176  0.5599 -0.2656
  163SOPE   H5X18320   1.709   2.330  10.006 -0.8869  1.2525  2.0851
  163SOPE   H5Y18321   1.865   2.421  10.017 -0.9225  3.2658  0.7375
  163SOPE   C3618322   1.769   2.464   9.831  0.6093 -0.6666  0.5011
  163SOPE   H6X18323   1.815   2.566   9.829 -0.0928 -0.3341  1.2798
  163SOPE   H6Y18324   1.673   2.462   9.776  1.1658  0.5735 -0.5656
  163SOPE   C3718325   1.851   2.354   9.760  0.5108 -0.6925 -1.0827
  163SOPE   H7X18326   1.800   2.257   9.776 -0.5369  0.4552  3.0692
  163SOPE   H7Y18327   1.953   2.339   9.801  0.6361 -0.0555 -1.1596
  163SOPE   C3818328   1.858   2.376   9.608  0.0411 -0.1201  0.0658
  163SOPE   H8X18329   1.869   2.485   9.589 -1.2090  0.1017  0.5836
  163SOPE   H8Y18330   1.757   2.356   9.565  0.4124 -1.8036 -0.0626
  163SOPE   C3918331   1.960   2.293   9.540  0.0139  0.4376 -0.0491
  163SOPE   H9X18332   1.935   2.191   9.577  0.1650  1.1211  1.9876
  163SOPE   H9Y18333   2.062   2.316   9.579  0.1884  0.0173 -0.2522
  163SOPE  C31018334   1.963   2.303   9.390 -0.2857 -0.0117  1.0575
  163SOPE  H10X18335   2.039   2.376   9.355  0.7699 -1.3130  0.5696
  163SOPE  H10Y18336   1.865   2.338   9.353  0.7281  0.3499 -1.3370
  163SOPE  C31118337   1.985   2.171   9.315 -0.4689 -0.0228  0.2167
  163SOPE  H11X18338   1.896   2.105   9.307  0.6979 -1.6319  0.1290
  163SOPE  H11Y18339   2.063   2.120   9.376  0.3079  0.0676 -0.7030
  163SOPE  C31218340   2.021   2.191   9.165  0.5724  0.0317 -0.6476
  163SOPE  H12X18341   2.041   2.088   9.127  0.2730 -0.2460 -0.0491
  163SOPE  H12Y18342   2.114   2.251   9.162  2.3967 -2.7209 -1.4825
  163SOPE  C31318343   1.915   2.261   9.084 -0.0757 -0.3965 -0.3727
  163SOPE  H13X18344   1.908   2.367   9.117  0.1824 -0.5515  0.1846
  163SOPE  H13Y18345   1.817   2.209   9.091 -0.0950 -0.3964 -0.6714
  163SOPE  C31418346   1.947   2.266   8.937 -0.2921  0.1722 -0.0909
  163SOPE  H14X18347   1.974   2.161   8.915 -2.3737 -1.0594  2.7675
  163SOPE  H14Y18348   2.031   2.338   8.925 -0.1364 -0.0491 -0.3254
  163SOPE  C31518349   1.825   2.323   8.861  0.2996 -0.2251  0.0717
  163SOPE  H15X18350   1.824   2.434   8.863  1.8130 -0.1820 -0.7079
  163SOPE  H15Y18351   1.737   2.271   8.905  0.6096 -1.0260 -0.2381
  163SOPE  C31618352   1.827   2.290   8.715  0.3995  0.4416 -0.4896
  163SOPE  H16X18353   1.922   2.336   8.679  1.1061  1.6326  2.7142
  163SOPE  H16Y18354   1.740   2.343   8.669  0.4000  0.7232 -0.1720
  163SOPE  C31718355   1.835   2.145   8.679 -0.5172  0.5009  0.6300
  163SOPE  H17X18356   1.929   2.096   8.714 -0.2187  0.1258 -0.6703
  163SOPE  H17Y18357   1.836   2.132   8.569 -3.8116 -1.2096  0.7555
  163SOPE  C31818358   1.727   2.048   8.734  0.0490 -0.0946 -0.0973
  163SOPE  H18X18359   1.751   1.944   8.705  1.3782 -0.5320  2.4942
  163SOPE  H18Y18360   1.627   2.075   8.693  0.3454  1.8824  0.4362
  163SOPE  H18Z18361   1.718   2.053   8.844 -2.4369 -1.3075 -0.2031
  164SOPE     N18362   5.324   0.916  10.979  0.4801 -0.7381  0.6036
  164SOPE   HN118363   5.297   0.819  10.953 -1.7040 -0.6978  2.5374
  164SOPE   HN218364   5.380   0.912  11.066 -1.7522  1.7793  2.2390
  164SOPE   HN318365   5.233   0.966  10.993  0.3828 -0.1831 -1.7791
  164SOPE   C1218366   5.405   0.975  10.872  0.5472  0.3169 -0.0657
  164SOPE  H12A18367   5.465   0.894  10.826  0.8221  0.6037 -0.2132
  164SOPE  H12B18368   5.475   1.050  10.916 -0.2615  1.5799 -0.9048
  164SOPE   C1118369   5.318   1.035  10.764  0.2264 -0.2652  0.0699
  164SOPE  H11A18370   5.278   0.958  10.694 -2.7086  1.3539 -0.1425
  164SOPE  H11B18371   5.385   1.107  10.713  0.9730  0.3307  1.8332
  164SOPE     P18372   5.088   1.145  10.735  0.0739 -0.0204  0.2654
  164SOPE   O1318373   4.990   1.218  10.823 -0.6608  0.2025  0.3556
  164SOPE   O1418374   5.044   1.020  10.666  0.1175  0.2597 -0.1081
  164SOPE   O1218375   5.209   1.104  10.825 -0.2558  0.6426 -0.3463
  164SOPE   O1118376   5.159   1.239  10.625 -0.6119  0.1265  0.8286
  164SOPE    C118377   5.069   1.340  10.563  0.1623 -0.0569 -0.0944
  164SOPE    HA18378   5.099   1.440  10.599 -0.5525  0.6649 -1.4802
  164SOPE    HB18379   4.962   1.320  10.581 -0.1851 -0.3845 -2.3996
  164SOPE    C218380   5.082   1.324  10.406  0.2289  0.5907 -0.7191
  164SOPE    HS18381   5.048   1.222  10.378 -1.6525  0.9569  0.1178
  164SOPE   O2118382   5.214   1.342  10.371 -0.6230 -0.0843  0.5125
  164SOPE   C2118383   5.262   1.268  10.273 -0.1679 -0.7660 -0.3437
  164SOPE   O2218384   5.201   1.184  10.205  0.3100  0.7383 -0.2755
  164SOPE   C2218385   5.411   1.307  10.258  0.5014 -0.1450 -0.6160
  164SOPE   H2R18386   5.474   1.274  10.344 -2.3077  0.3985  1.7345
  164SOPE   H2S18387   5.408   1.417  10.245 -1.0135 -0.1303 -0.1669
  164SOPE    C318388   4.999   1.423  10.328 -0.3819  0.9628 -0.2460
  164SOPE    HX18389   5.053   1.520  10.327  0.4994  0.4791 -0.3742
  164SOPE    HY18390   4.904   1.427  10.385  0.6469 -1.1364  1.7037
  164SOPE   O3118391   4.972   1.368  10.192 -0.0450  0.5490  0.3129
  164SOPE   C3118392   5.048   1.418  10.093  0.0840  0.5913  0.5142
  164SOPE   O3218393   5.126   1.512  10.104 -0.7269  1.2138 -0.0652
  164SOPE   C3218394   5.024   1.348   9.961  0.1494  0.4337 -0.4657
  164SOPE   H2X18395   4.914   1.348   9.947  0.1449  3.5209 -0.8110
  164SOPE   H2Y18396   5.062   1.244   9.961 -0.6584  0.1321 -0.7388
  164SOPE   C2318397   5.477   1.247  10.129 -0.0887 -0.7073 -0.9935
  164SOPE   H3R18398   5.473   1.137  10.136 -0.6144 -0.5171  2.7754
  164SOPE   H3S18399   5.583   1.282  10.129 -0.0574 -0.6558  1.7478
  164SOPE   C2418400   5.414   1.296   9.993 -0.6244 -0.1283  0.5879
  164SOPE   H4R18401   5.319   1.242   9.973  0.0297 -1.2116  0.3579
  164SOPE   H4S18402   5.389   1.404   9.991  2.0366  0.5129 -0.2210
  164SOPE   C2518403   5.501   1.271   9.865  0.2672 -0.4854  0.5655
  164SOPE   H5R18404   5.435   1.322   9.791 -0.0370 -1.7786 -0.0651
  164SOPE   H5S18405   5.595   1.331   9.862 -0.7826  1.2074  0.4059
  164SOPE   C2618406   5.503   1.121   9.835  0.2170  0.2043 -0.5933
  164SOPE   H6R18407   5.536   1.065   9.925 -1.1781 -0.6385 -0.5815
  164SOPE   H6S18408   5.401   1.085   9.810  0.8112 -1.7463 -0.3506
  164SOPE   C2718409   5.591   1.088   9.712 -0.6441  0.4897 -0.0092
  164SOPE   H7R18410   5.693   1.126   9.736  0.5957 -2.0852 -1.0461
  164SOPE   H7S18411   5.612   0.980   9.695  0.0894  0.5752  0.3086
  164SOPE   C2818412   5.569   1.160   9.580  0.2855  0.9760  0.1595
  164SOPE   H8R18413   5.588   1.265   9.610 -0.4546  0.8268  1.1907
  164SOPE   H8S18414   5.637   1.117   9.504 -2.3780 -0.3662 -1.5425
  164SOPE   C2918415   5.423   1.149   9.543 -0.2877  0.3823  0.4105
  164SOPE   H9118416   5.374   1.214   9.617 -0.1357 -0.5900  1.3670
  164SOPE  C21018417   5.364   1.074   9.451  0.3163  0.4775  0.0079
  164SOPE  H10118418   5.254   1.083   9.443  0.0729 -1.1431  1.1970
  164SOPE  C21118419   5.423   0.987   9.348  0.2672  0.1776 -0.3094
  164SOPE  H11R18420   5.392   0.881   9.352 -0.1871  0.3735  1.9014
  164SOPE  H11S18421   5.534   0.988   9.358  0.2041 -0.1894  0.4442
  164SOPE  C21218422   5.394   1.037   9.202  0.2252 -0.2837 -0.6488
  164SOPE  H12R18423   5.283   1.048   9.199  0.2252 -0.1005 -0.1614
  164SOPE  H12S18424   5.428   0.968   9.123  0.4585  0.2329 -1.0023
  164SOPE  C21318425   5.461   1.174   9.160 -0.0182 -0.3754 -0.2980
  164SOPE  H13R18426   5.570   1.160   9.175 -0.0035 -2.1353 -1.7524
  164SOPE  H13S18427   5.418   1.254   9.223 -2.4451 -3.7855  2.5945
  164SOPE  C21418428   5.430   1.227   9.012  0.0634 -0.8053 -0.5466
  164SOPE  H14R18429   5.458   1.335   9.013 -2.1742 -0.1978 -0.1882
  164SOPE  H14S18430   5.321   1.228   8.987 -0.0277 -1.1849 -0.1648
  164SOPE  C21518431   5.503   1.152   8.894 -0.2534  0.1080  0.1721
  164SOPE  H15R18432   5.489   1.045   8.921 -0.7669  0.4443  1.2713
  164SOPE  H15S18433   5.611   1.177   8.890  0.0479 -1.3492 -1.8766
  164SOPE  C21618434   5.432   1.204   8.761 -0.5639  0.3853 -0.3921
  164SOPE  H16R18435   5.431   1.315   8.768 -1.4921  0.2299  2.7738
  164SOPE  H16S18436   5.326   1.173   8.760 -0.1720 -1.1382  2.0818
  164SOPE  C21718437   5.511   1.154   8.643 -0.1502 -0.3972 -0.7512
  164SOPE  H17R18438   5.534   1.048   8.667 -0.2166 -0.3527 -0.4877
  164SOPE  H17S18439   5.611   1.201   8.634 -0.2494 -0.1102 -0.3798
  164SOPE  C21818440   5.437   1.172   8.520 -0.5421  0.1906  0.3373
  164SOPE  H18R18441   5.501   1.141   8.434 -0.1340  1.1380  0.2916
  164SOPE  H18S18442   5.408   1.277   8.498 -1.6521 -0.2471 -0.3369
  164SOPE  H18T18443   5.346   1.108   8.516 -1.5649  1.6522 -0.1849
  164SOPE   C3318444   5.079   1.435   9.850  0.3306 -0.0229  0.2948
  164SOPE   H3X18445   5.190   1.442   9.851  0.2898  0.6711  0.2991
  164SOPE   H3Y18446   5.042   1.540   9.853  0.5187  0.1319 -1.6212
  164SOPE   C3418447   5.037   1.383   9.704 -0.7562 -0.0933 -0.6339
  164SOPE   H4X18448   4.930   1.410   9.694 -0.8537 -0.9124 -1.8393
  164SOPE   H4Y18449   5.034   1.272   9.701  1.6329 -0.1986 -0.4719
  164SOPE   C3518450   5.120   1.438   9.591 -0.2872  0.8240 -0.3490
  164SOPE   H5X18451   5.222   1.394   9.586 -1.3992 -1.8995 -0.0999
  164SOPE   H5Y18452   5.131   1.548   9.597 -0.7817  0.8197  0.7593
  164SOPE   C3618453   5.056   1.409   9.456 -0.5299  0.4461 -0.2027
  164SOPE   H6X18454   4.961   1.466   9.458  1.0071  3.1741 -1.3858
  164SOPE   H6Y18455   5.034   1.302   9.439  0.1393  0.1872  0.5098
  164SOPE   C3718456   5.141   1.454   9.340 -0.6008  0.0432 -0.3469
  164SOPE   H7X18457   5.207   1.370   9.308  0.6093  1.9833 -3.1732
  164SOPE   H7Y18458   5.200   1.543   9.371  1.7664 -1.7523  0.5265
  164SOPE   C3818459   5.070   1.488   9.209 -0.6598 -0.2962 -0.2284
  164SOPE   H8X18460   4.985   1.559   9.222  1.8757  2.9540 -0.7070
  164SOPE   H8Y18461   5.027   1.393   9.170 -0.0823 -0.9875  0.8163
  164SOPE   C3918462   5.162   1.564   9.109  0.8324  0.4897 -0.6834
  164SOPE   H9X18463   5.255   1.513   9.075  1.5213  1.2108  0.0991
  164SOPE   H9Y18464   5.190   1.661   9.154 -0.8071 -0.1740  1.8431
  164SOPE  C31018465   5.079   1.585   8.983 -0.7723 -0.3629  0.3507
  164SOPE  H10X18466   4.995   1.655   9.006 -1.6534 -1.1083 -0.5212
  164SOPE  H10Y18467   5.033   1.497   8.932 -2.1888  1.9704 -2.5859
  164SOPE  C31118468   5.156   1.666   8.874 -0.8101 -0.4699 -0.3234
  164SOPE  H11X18469   5.198   1.764   8.905  1.4764 -1.5225 -0.0003
  164SOPE  H11Y18470   5.081   1.698   8.798 -1.0648 -1.5971 -0.5632
  164SOPE  C31218471   5.265   1.597   8.800 -0.1874  0.1745 -0.5495
  164SOPE  H12X18472   5.229   1.501   8.758 -3.2364 -0.0278  2.2733
  164SOPE  H12Y18473   5.352   1.569   8.863  1.3234  0.0656 -2.6484
  164SOPE  C31318474   5.317   1.688   8.689  0.2168 -0.3732 -0.7094
  164SOPE  H13X18475   5.381   1.757   8.748  3.0092 -3.8088  0.4472
  164SOPE  H13Y18476   5.232   1.729   8.631 -0.6620 -1.5929 -0.3055
  164SOPE  C31418477   5.422   1.624   8.602  0.7118 -0.2812 -0.4033
  164SOPE  H14X18478   5.444   1.700   8.524 -0.6135 -0.0540 -0.5732
  164SOPE  H14Y18479   5.381   1.535   8.550  0.1892 -0.6765  0.6673
  164SOPE  C31518480   5.547   1.591   8.675 -0.1101  0.3941 -0.2018
  164SOPE  H15X18481   5.525   1.535   8.769 -0.8810 -2.6082 -2.0993
  164SOPE  H15Y18482   5.588   1.692   8.697  0.6090  0.3590 -1.3174
  164SOPE  C31618483   5.646   1.508   8.593  0.4364 -0.0447 -0.1709
  164SOPE  H16X18484   5.650   1.542   8.487  0.9647  1.0135  0.1911
  164SOPE  H16Y18485   5.607   1.404   8.589 -0.6521  0.3796 -0.7924
  164SOPE  C31718486   5.786   1.502   8.644  0.6606 -0.2475 -0.1512
  164SOPE  H17X18487   5.857   1.432   8.596  2.0287  1.3159 -0.4496
  164SOPE  H17Y18488   5.773   1.477   8.751 -1.3657 -1.0220 -0.5407
  164SOPE  C31818489   5.866   1.639   8.639  0.6023 -0.3107 -0.4181
  164SOPE  H18X18490   5.880   1.687   8.540  1.3420 -0.3091 -0.3093
  164SOPE  H18Y18491   5.974   1.630   8.663  0.7303 -0.5220 -1.0726
  164SOPE  H18Z18492   5.814   1.716   8.700 -0.0457  0.7431 -2.2731
  165SOPE     N18493   3.822   1.619  11.186  0.4443  0.0081  0.3161
  165SOPE   HN118494   3.886   1.644  11.263  1.1467 -1.3845  0.1938
  165SOPE   HN218495   3.865   1.536  11.141  0.4163 -0.0670  0.4303
  165SOPE   HN318496   3.831   1.692  11.112  0.0686  0.6892  0.9328
  165SOPE   C1218497   3.686   1.583  11.226 -0.3133  0.4741  0.9166
  165SOPE  H12A18498   3.689   1.516  11.314 -1.9265 -2.0199 -0.8549
  165SOPE  H12B18499   3.640   1.525  11.143  2.6015  0.1666 -0.5416
  165SOPE   C1118500   3.602   1.707  11.254  0.6355 -0.0353  0.4867
  165SOPE  H11A18501   3.647   1.767  11.336 -0.6710 -0.0181  1.1915
  165SOPE  H11B18502   3.510   1.663  11.297  0.6397 -1.4516 -0.9117
  165SOPE     P18503   3.469   1.806  11.052 -0.0158 -0.4445  0.2215
  165SOPE   O1318504   3.412   1.940  11.078 -0.2605 -0.6424 -0.4901
  165SOPE   O1418505   3.378   1.694  11.073 -0.3549  0.0480  0.2911
  165SOPE   O1218506   3.598   1.797  11.138  0.8457  0.2629 -0.3457
  165SOPE   O1118507   3.518   1.804  10.905 -0.0520  0.3316 -0.0650
  165SOPE    C118508   3.565   1.922  10.847 -0.1117 -0.4651  0.4968
  165SOPE    HA18509   3.657   1.971  10.885  1.5812  0.4305 -4.4140
  165SOPE    HB18510   3.486   1.997  10.866 -1.4755 -1.2506 -1.8047
  165SOPE    C218511   3.594   1.898  10.689 -0.2896 -0.8959  0.2039
  165SOPE    HS18512   3.590   1.996  10.637  2.0796 -0.5623  0.5998
  165SOPE   O2118513   3.504   1.797  10.640  0.4493 -0.3195 -0.2040
  165SOPE   C2118514   3.394   1.841  10.588  0.3347  0.3287 -0.3060
  165SOPE   O2218515   3.354   1.955  10.578  0.0102  0.0927 -0.2757
  165SOPE   C2218516   3.313   1.723  10.534  0.4959  0.0572 -0.3035
  165SOPE   H2R18517   3.269   1.667  10.619  0.3562 -0.3031 -0.6098
  165SOPE   H2S18518   3.389   1.654  10.490  1.0893  0.8163 -0.4700
  165SOPE    C318519   3.734   1.843  10.674  0.0695 -0.1299  0.3788
  165SOPE    HX18520   3.723   1.745  10.725 -0.7338  0.1170  0.6932
  165SOPE    HY18521   3.809   1.898  10.735  1.7381 -0.6457 -1.1594
  165SOPE   O3118522   3.766   1.823  10.533 -0.1572  0.1013  0.0038
  165SOPE   C3118523   3.822   1.939  10.498 -0.6433  0.1145 -0.1081
  165SOPE   O3218524   3.826   2.047  10.554 -0.1259  0.4077 -0.1244
  165SOPE   C3218525   3.891   1.929  10.357  0.5874  0.3963  0.1101
  165SOPE   H2X18526   3.917   1.822  10.340  1.1109  0.3174  1.3721
  165SOPE   H2Y18527   3.982   1.992  10.361  0.9529 -0.0278 -1.3476
  165SOPE   C2318528   3.199   1.746  10.441 -0.1530  0.1025  0.2951
  165SOPE   H3R18529   3.136   1.827  10.484  0.9077  0.3536  1.4180
  165SOPE   H3S18530   3.140   1.653  10.453 -0.2659  0.1376  0.0078
  165SOPE   C2418531   3.242   1.777  10.291  0.4318 -0.3876 -0.9616
  165SOPE   H4R18532   3.285   1.880  10.283 -0.6961  0.0718 -1.2443
  165SOPE   H4S18533   3.332   1.716  10.268  1.9445  1.2672  0.3367
  165SOPE   C2518534   3.118   1.773  10.201  0.4202  0.1267  0.9512
  165SOPE   H5R18535   3.077   1.670  10.190 -3.9028  1.9328 -1.0996
  165SOPE   H5S18536   3.041   1.838  10.247  0.5915  0.3188  0.9677
  165SOPE   C2618537   3.150   1.804  10.048 -0.4619 -0.1671 -0.1930
  165SOPE   H6R18538   3.190   1.908  10.047 -0.4926 -0.1644 -1.6895
  165SOPE   H6S18539   3.238   1.746  10.015 -0.3523  0.5208 -1.1247
  165SOPE   C2718540   3.038   1.775   9.950  0.3402  0.3405  0.3299
  165SOPE   H7R18541   3.031   1.664   9.944  0.0438  0.3949 -0.4331
  165SOPE   H7S18542   2.936   1.817   9.966 -0.7587 -1.8772 -0.6004
  165SOPE   C2818543   3.083   1.820   9.812 -0.0211 -0.1949  0.3672
  165SOPE   H8R18544   3.189   1.790   9.801 -0.0217 -0.6114  1.4410
  165SOPE   H8S18545   3.023   1.765   9.736 -0.9944  2.5226 -0.9214
  165SOPE   C2918546   3.063   1.970   9.781 -0.4235 -0.4089  0.6657
  165SOPE   H9118547   3.085   2.037   9.866  2.6082 -0.7696  0.2284
  165SOPE  C21018548   3.030   2.010   9.654 -0.5186 -0.3446  0.7161
  165SOPE  H10118549   3.015   2.117   9.633 -3.5287 -0.7206  0.7864
  165SOPE  C21118550   3.004   1.927   9.529 -0.1427  0.5827  0.2004
  165SOPE  H11R18551   2.897   1.918   9.501 -0.4319  3.3679  0.2264
  165SOPE  H11S18552   3.042   1.823   9.537  0.1318  0.6102 -0.6684
  165SOPE  C21218553   3.080   1.981   9.405  0.0053 -0.5630 -0.3063
  165SOPE  H12R18554   3.090   2.089   9.426  1.6007 -0.6565 -0.5674
  165SOPE  H12S18555   3.017   1.980   9.314 -0.7751 -0.2729  0.2243
  165SOPE  C21318556   3.216   1.918   9.361 -0.3013  0.1329  0.2523
  165SOPE  H13R18557   3.211   1.808   9.374  0.3144 -0.0538 -0.9645
  165SOPE  H13S18558   3.304   1.955   9.419  0.8205  0.4366 -1.5805
  165SOPE  C21418559   3.256   1.949   9.220  0.1022 -0.2842 -1.0070
  165SOPE  H14R18560   3.192   1.896   9.146 -0.6676 -0.4527 -0.2244
  165SOPE  H14S18561   3.364   1.925   9.209  0.3205  0.3045 -0.1944
  165SOPE  C21518562   3.245   2.103   9.184 -0.5567  0.0369  0.6072
  165SOPE  H15R18563   3.287   2.156   9.272 -0.9662 -0.1124  0.8951
  165SOPE  H15S18564   3.140   2.136   9.179 -0.5894 -0.2711 -0.9967
  165SOPE  C21618565   3.316   2.144   9.059  0.4796  0.2689  0.1900
  165SOPE  H16R18566   3.416   2.097   9.067  1.3888  2.3899  2.0233
  165SOPE  H16S18567   3.345   2.251   9.044 -1.1972  0.8960  1.3090
  165SOPE  C21718568   3.248   2.099   8.929  0.2181 -0.4082 -0.1672
  165SOPE  H17R18569   3.153   2.155   8.930 -0.8604 -2.1462 -1.9320
  165SOPE  H17S18570   3.203   1.997   8.924  1.5745 -0.9910 -0.7543
  165SOPE  C21818571   3.320   2.118   8.794  0.0196 -0.5170  0.2733
  165SOPE  H18R18572   3.258   2.105   8.703  0.3460  2.4622 -0.4211
  165SOPE  H18S18573   3.408   2.050   8.793  1.5429  1.3405  2.6806
  165SOPE  H18T18574   3.365   2.219   8.784 -0.6248 -0.1992  0.5650
  165SOPE   C3318575   3.798   1.979  10.244 -0.1575  0.0179  0.2404
  165SOPE   H3X18576   3.789   2.089  10.247 -0.7578  0.0112 -1.2523
  165SOPE   H3Y18577   3.694   1.940  10.245 -0.8377  1.8176  1.0938
  165SOPE   C3418578   3.866   1.943  10.110 -0.1787  0.0184 -0.3743
  165SOPE   H4X18579   3.871   1.832  10.102 -1.6286 -0.1301  0.6908
  165SOPE   H4Y18580   3.971   1.977  10.122  0.7022 -2.3106 -1.0272
  165SOPE   C3518581   3.793   2.008   9.991  0.3211 -0.3655  0.3786
  165SOPE   H5X18582   3.780   2.116  10.014 -0.3035 -0.7550  1.9264
  165SOPE   H5Y18583   3.696   1.963   9.961  2.0432 -3.2297 -1.0167
  165SOPE   C3618584   3.884   2.007   9.865  0.0222  0.4179 -0.9120
  165SOPE   H6X18585   3.928   1.905   9.861 -1.3794 -0.1205 -3.0703
  165SOPE   H6Y18586   3.963   2.083   9.882  0.0729 -0.0492  1.0574
  165SOPE   C3718587   3.815   2.031   9.733 -0.4865 -0.0849  0.7269
  165SOPE   H7X18588   3.771   2.133   9.727 -1.0392 -0.2290  2.0963
  165SOPE   H7Y18589   3.736   1.954   9.720 -1.4837  1.1372 -0.7280
  165SOPE   C3818590   3.915   2.011   9.622 -0.5857  0.1300 -0.5732
  165SOPE   H8X18591   3.933   1.908   9.586 -1.0771  0.4486 -1.7668
  165SOPE   H8Y18592   4.015   2.036   9.665  0.1611 -1.2851 -1.4668
  165SOPE   C3918593   3.903   2.100   9.503 -0.4946 -0.1201 -0.3565
  165SOPE   H9X18594   3.989   2.097   9.433 -1.1188 -1.4226 -1.0860
  165SOPE   H9Y18595   3.900   2.206   9.535 -2.4877  0.4420 -2.2679
  165SOPE  C31018596   3.776   2.064   9.417 -0.0791 -0.9761  0.3464
  165SOPE  H10X18597   3.756   2.162   9.368  0.1600 -0.3001  1.5715
  165SOPE  H10Y18598   3.683   2.044   9.475 -0.2959  2.7501  1.4283
  165SOPE  C31118599   3.806   1.952   9.310  0.5534 -0.3377  0.4962
  165SOPE  H11X18600   3.823   1.852   9.356  0.2685 -0.6333 -0.0255
  165SOPE  H11Y18601   3.902   1.984   9.265 -0.0680  0.6778 -0.1448
  165SOPE  C31218602   3.703   1.947   9.194  0.5006  0.3108 -0.0229
  165SOPE  H12X18603   3.694   2.049   9.150  0.4434  0.5668  0.5741
  165SOPE  H12Y18604   3.605   1.925   9.240  1.4217 -3.0375  0.4498
  165SOPE  C31318605   3.735   1.851   9.084 -0.4913 -0.2821 -0.0868
  165SOPE  H13X18606   3.726   1.745   9.118 -0.1294 -0.3668 -0.2459
  165SOPE  H13Y18607   3.835   1.883   9.047 -1.6484  3.9077  0.1957
  165SOPE  C31418608   3.646   1.868   8.963 -0.6034  0.1939 -0.5562
  165SOPE  H14X18609   3.659   1.973   8.930 -0.5652 -0.3986 -2.4587
  165SOPE  H14Y18610   3.541   1.865   8.999 -0.8859 -0.7821 -1.4541
  165SOPE  C31518611   3.662   1.753   8.853 -0.1181  0.4221  0.0393
  165SOPE  H15X18612   3.642   1.650   8.889 -2.0825  0.9788  0.6158
  165SOPE  H15Y18613   3.768   1.756   8.819 -0.6411  3.8192 -1.5393
  165SOPE  C31618614   3.562   1.773   8.738  0.7667 -0.3934 -0.5189
  165SOPE  H16X18615   3.607   1.743   8.642  0.2087  0.4707 -1.0604
  165SOPE  H16Y18616   3.542   1.882   8.725  0.6933 -0.2183  0.9687
  165SOPE  C31718617   3.431   1.702   8.775 -0.0089  0.1763  0.9732
  165SOPE  H17X18618   3.407   1.740   8.877 -1.3086 -1.1555  1.1858
  165SOPE  H17Y18619   3.442   1.592   8.783 -2.1024 -0.2604 -1.6875
  165SOPE  C31818620   3.322   1.730   8.665  0.0765 -0.2997 -0.3083
  165SOPE  H18X18621   3.220   1.711   8.706  0.3133  0.5330  0.6839
  165SOPE  H18Y18622   3.334   1.671   8.572 -0.1719 -2.7435  1.1655
  165SOPE  H18Z18623   3.322   1.840   8.649 -0.6956 -0.1791  0.4364
  166SOPE     N18624   6.555   1.729  10.723 -0.2259  0.3129 -0.4419
  166SOPE   HN118625   6.621   1.673  10.665  0.9103  2.2634 -1.1276
  166SOPE   HN218626   6.591   1.719  10.820 -0.3028 -0.0527 -0.4530
  166SOPE   HN318627   6.458   1.694  10.719 -1.0560  2.2031  1.8198
  166SOPE   C1218628   6.562   1.878  10.694 -0.6722 -0.7074  1.4426
  166SOPE  H12A18629   6.512   1.890  10.596  1.8887  0.6821  0.2278
  166SOPE  H12B18630   6.669   1.906  10.685 -1.2881  0.8241 -1.8314
  166SOPE   C1118631   6.488   1.964  10.793  0.3807 -0.6714 -0.0228
  166SOPE  H11A18632   6.494   2.074  10.780 -1.1518 -0.2100  2.7740
  166SOPE  H11B18633   6.527   1.940  10.894  2.6758  2.6538 -0.0646
  166SOPE     P18634   6.237   1.985  10.882  0.2915  0.2859 -0.3124
  166SOPE   O1318635   6.293   2.034  11.009 -0.0545  0.3049 -0.2781
  166SOPE   O1418636   6.120   1.894  10.884  0.8109 -0.4366  0.0626
  166SOPE   O1218637   6.352   1.920  10.792 -0.4060 -0.3572  0.3966
  166SOPE   O1118638   6.196   2.103  10.796 -0.5335 -0.2166  0.0408
  166SOPE    C118639   6.186   2.096  10.646 -0.4570  0.7660  0.0172
  166SOPE    HA18640   6.091   2.145  10.613 -0.7393  2.4413  3.1406
  166SOPE    HB18641   6.188   1.990  10.616  1.7729 -0.2042  3.3246
  166SOPE    C218642   6.305   2.169  10.574  0.2973  0.3181 -0.4933
  166SOPE    HS18643   6.397   2.111  10.596 -0.9737 -1.7708 -0.5033
  166SOPE   O2118644   6.310   2.310  10.603  0.1859 -0.2403  0.3026
  166SOPE   C2118645   6.435   2.362  10.600 -0.0103  0.2916 -0.4482
  166SOPE   O2218646   6.540   2.303  10.581  0.1646 -0.2304 -0.2897
  166SOPE   C2218647   6.424   2.517  10.616 -0.2890 -0.3327  0.0875
  166SOPE   H2R18648   6.450   2.534  10.722 -1.4555 -0.7973  0.4595
  166SOPE   H2S18649   6.320   2.544  10.587  0.1076 -0.9491 -2.0208
  166SOPE    C318650   6.286   2.163  10.422 -0.9289 -0.1519  1.0410
  166SOPE    HX18651   6.371   2.223  10.383 -0.0675 -0.6846  2.0622
  166SOPE    HY18652   6.200   2.221  10.384 -1.9042 -0.8782  2.0873
  166SOPE   O3118653   6.274   2.032  10.373 -0.0001  0.5934 -0.2753
  166SOPE   C3118654   6.392   1.989  10.313  0.2120  0.0115 -0.2720
  166SOPE   O3218655   6.498   2.043  10.319 -0.3473  0.3493  0.4575
  166SOPE   C3218656   6.374   1.851  10.251  0.2612  0.0990 -0.3560
  166SOPE   H2X18657   6.270   1.815  10.271  0.8608 -1.9982 -0.9003
  166SOPE   H2Y18658   6.440   1.781  10.307 -1.4922  0.2143  1.9510
  166SOPE   C2318659   6.524   2.598  10.528 -1.0154  0.5318  0.1833
  166SOPE   H3R18660   6.616   2.539  10.545  0.3775  2.4380 -0.4456
  166SOPE   H3S18661   6.531   2.699  10.573 -2.0044  0.3826  0.6569
  166SOPE   C2418662   6.490   2.623  10.377  0.1427  0.3091 -0.3405
  166SOPE   H4R18663   6.401   2.689  10.367 -0.3874 -0.6564 -2.4079
  166SOPE   H4S18664   6.573   2.665  10.317  0.4709 -0.1843 -0.2311
  166SOPE   C2518665   6.446   2.492  10.307  0.4848  0.1562 -0.2577
  166SOPE   H5R18666   6.521   2.410  10.318  0.1185 -0.3273 -1.2737
  166SOPE   H5S18667   6.352   2.452  10.351  0.1112  0.1298 -1.0795
  166SOPE   C2618668   6.426   2.508  10.157  0.3747 -0.2641 -0.1484
  166SOPE   H6R18669   6.347   2.585  10.144  0.5123 -0.2920 -1.2240
  166SOPE   H6S18670   6.518   2.545  10.107 -0.4824  2.2188  0.0797
  166SOPE   C2718671   6.378   2.379  10.090  0.0106  0.7309  0.2292
  166SOPE   H7R18672   6.463   2.308  10.096 -0.3991  0.1498 -0.7800
  166SOPE   H7S18673   6.287   2.338  10.139 -1.6158  2.9427 -0.8554
  166SOPE   C2818674   6.347   2.405   9.939  0.1303 -0.1118  0.1877
  166SOPE   H8R18675   6.250   2.455   9.919  0.1239 -1.0136 -2.1937
  166SOPE   H8S18676   6.434   2.467   9.909 -1.3047  1.1129 -1.4822
  166SOPE   C2918677   6.356   2.267   9.873 -0.1713  0.3516  0.8372
  166SOPE   H9118678   6.300   2.190   9.928  1.9810 -0.9728  1.2663
  166SOPE  C21018679   6.404   2.228   9.754  0.1121 -0.2649  0.6490
  166SOPE  H10118680   6.388   2.121   9.731 -3.7086  0.5159 -0.8424
  166SOPE  C21118681   6.466   2.313   9.646  0.7714  0.0157  0.1440
  166SOPE  H11R18682   6.568   2.275   9.627  0.1994 -0.7822 -1.4608
  166SOPE  H11S18683   6.490   2.418   9.671 -1.1034  1.0291 -2.0918
  166SOPE  C21218684   6.376   2.324   9.515  0.2196 -0.6217 -0.8334
  166SOPE  H12R18685   6.274   2.355   9.546 -0.3010 -0.3594 -2.7473
  166SOPE  H12S18686   6.369   2.222   9.470  1.8707  0.2321 -3.1239
  166SOPE  C21318687   6.424   2.428   9.411 -0.5020 -0.4733 -0.4093
  166SOPE  H13R18688   6.524   2.400   9.373 -0.3383  0.0499 -0.3797
  166SOPE  H13S18689   6.441   2.530   9.453 -2.8108  0.5426 -1.8092
  166SOPE  C21418690   6.323   2.449   9.296  0.0703  0.6008 -0.1264
  166SOPE  H14R18691   6.228   2.493   9.334  0.9746  0.6015  2.1597
  166SOPE  H14S18692   6.296   2.348   9.257 -0.6252  1.1911 -1.2248
  166SOPE  C21518693   6.371   2.535   9.175 -0.2681  0.5905  0.6919
  166SOPE  H15R18694   6.459   2.490   9.126 -0.9994  0.0628 -0.1561
  166SOPE  H15S18695   6.393   2.633   9.222 -1.2715  0.9508  0.4200
  166SOPE  C21618696   6.254   2.568   9.079 -0.7003  0.2934  0.4559
  166SOPE  H16R18697   6.289   2.629   8.993 -0.8723  0.0041  0.1761
  166SOPE  H16S18698   6.181   2.632   9.133  1.0706  1.6685  1.2554
  166SOPE  C21718699   6.174   2.445   9.020 -0.4338  0.1925 -0.8909
  166SOPE  H17R18700   6.148   2.390   9.112  1.8309  0.0079 -0.3330
  166SOPE  H17S18701   6.243   2.383   8.959 -1.1519 -1.1613 -0.3476
  166SOPE  C21818702   6.053   2.504   8.949 -0.9289  0.1064 -0.5254
  166SOPE  H18R18703   5.989   2.428   8.901  0.9231 -0.3852 -2.2746
  166SOPE  H18S18704   6.075   2.578   8.869 -1.3810  0.5323 -0.2598
  166SOPE  H18T18705   5.987   2.554   9.024 -1.4096 -1.1292 -0.1046
  166SOPE   C3318706   6.386   1.859  10.093 -0.0651  0.5398  0.4775
  166SOPE   H3X18707   6.495   1.856  10.071 -0.1522  2.2485 -0.2705
  166SOPE   H3Y18708   6.339   1.955  10.062 -0.8707  0.0030  0.0358
  166SOPE   C3418709   6.312   1.742  10.038  0.3318 -0.6095  0.3727
  166SOPE   H4X18710   6.204   1.749  10.061  0.1310 -1.4596 -0.3113
  166SOPE   H4Y18711   6.351   1.658  10.098  1.1128  0.6684  1.6888
  166SOPE   C3518712   6.352   1.726   9.895 -0.7512 -0.0352 -0.5541
  166SOPE   H5X18713   6.462   1.729   9.889 -0.7276  2.3628  0.6038
  166SOPE   H5Y18714   6.321   1.815   9.836  0.5225  0.5778 -0.3115
  166SOPE   C3618715   6.295   1.597   9.836 -0.4119 -0.2887  0.1405
  166SOPE   H6X18716   6.185   1.595   9.850 -0.8693  0.3273 -2.9938
  166SOPE   H6Y18717   6.343   1.514   9.893  1.2055  0.5066 -0.0156
  166SOPE   C3718718   6.310   1.572   9.689 -0.3598  0.7965  0.5116
  166SOPE   H7X18719   6.241   1.494   9.650 -0.5265  1.3030 -0.2281
  166SOPE   H7Y18720   6.410   1.538   9.657 -1.5045 -2.6025  0.4025
  166SOPE   C3818721   6.272   1.695   9.600  0.4856 -0.0289 -0.6398
  166SOPE   H8X18722   6.348   1.771   9.628  1.1415 -0.7772 -0.3789
  166SOPE   H8Y18723   6.173   1.738   9.628  0.4902  1.0515 -2.2035
  166SOPE   C3918724   6.251   1.665   9.450 -0.5037  0.9362  0.0405
  166SOPE   H9X18725   6.207   1.563   9.446  1.8794 -0.2388  2.3139
  166SOPE   H9Y18726   6.348   1.645   9.398 -1.0891  0.1028 -0.7399
  166SOPE  C31018727   6.181   1.774   9.360  0.8041  0.0009 -1.0061
  166SOPE  H10X18728   6.100   1.819   9.421 -1.1652 -2.7378 -1.5127
  166SOPE  H10Y18729   6.120   1.728   9.280 -1.8189 -0.0381  0.9441
  166SOPE  C31118730   6.265   1.891   9.315  0.2465  0.2026  0.5396
  166SOPE  H11X18731   6.338   1.929   9.390  0.4033  0.0461  0.4670
  166SOPE  H11Y18732   6.198   1.977   9.295 -0.9380 -1.0311 -0.9044
  166SOPE  C31218733   6.334   1.850   9.183 -0.3639  0.0612  0.0468
  166SOPE  H12X18734   6.263   1.803   9.112  2.3627 -1.4650 -1.7736
  166SOPE  H12Y18735   6.413   1.774   9.205 -1.3961 -0.9158  0.4353
  166SOPE  C31318736   6.381   1.981   9.120  0.2994 -0.1104  0.8717
  166SOPE  H13X18737   6.428   2.040   9.202 -0.2787  0.6284  0.6790
  166SOPE  H13Y18738   6.293   2.032   9.075 -1.3589 -2.9472  0.7540
  166SOPE  C31418739   6.480   1.965   9.008  0.2822 -0.4788 -0.3906
  166SOPE  H14X18740   6.435   1.888   8.943  0.8650 -0.7854 -0.4277
  166SOPE  H14Y18741   6.583   1.939   9.039 -0.1081 -0.7490  0.7017
  166SOPE  C31518742   6.502   2.089   8.923  0.0675  0.6338 -0.6002
  166SOPE  H15X18743   6.407   2.097   8.866 -0.2774  1.8608  0.1280
  166SOPE  H15Y18744   6.586   2.072   8.853 -0.0546 -0.1152 -0.5619
  166SOPE  C31618745   6.531   2.218   8.995 -0.4653  0.0788  0.3291
  166SOPE  H16X18746   6.442   2.245   9.056 -1.4031  0.5989 -1.2318
  166SOPE  H16Y18747   6.551   2.284   8.908  1.2789 -1.9014 -0.8396
  166SOPE  C31718748   6.655   2.216   9.080  0.1515  0.8222  0.6262
  166SOPE  H17X18749   6.639   2.143   9.162  0.6516  0.5119  0.4492
  166SOPE  H17Y18750   6.665   2.314   9.130 -0.9805  1.6775 -0.7643
  166SOPE  C31818751   6.784   2.187   9.002 -0.0466  0.3421  0.1311
  166SOPE  H18X18752   6.873   2.191   9.068  0.8768  0.9081 -1.1241
  166SOPE  H18Y18753   6.791   2.259   8.918 -1.4996  1.8071  1.2146
  166SOPE  H18Z18754   6.775   2.082   8.969  2.2282  1.2112 -3.4951
  167SOPE     N18755   1.903   0.280   6.290  0.7833  0.3404 -0.1505
  167SOPE   HN118756   1.907   0.177   6.297 -0.3783  0.2635 -0.5438
  167SOPE   HN218757   1.800   0.294   6.287  0.0006 -4.5022  1.1751
  167SOPE   HN318758   1.953   0.311   6.204  1.2806  1.0471  0.3948
  167SOPE   C1218759   1.943   0.341   6.418  0.4655 -0.8749 -0.3541
  167SOPE  H12A18760   1.858   0.331   6.488 -0.1292 -0.6640 -1.0427
  167SOPE  H12B18761   1.966   0.448   6.401 -0.2473 -0.2311  2.5513
  167SOPE   C1118762   2.076   0.293   6.481 -0.1409 -0.0289 -0.4342
  167SOPE  H11A18763   2.058   0.192   6.524 -0.5273 -0.3162 -1.2426
  167SOPE  H11B18764   2.085   0.364   6.566  0.7023  0.3573 -0.8413
  167SOPE     P18765   2.233   0.184   6.299  0.0367  0.1349  0.5810
  167SOPE   O1318766   2.377   0.215   6.282 -0.2092  0.3148  0.5853
  167SOPE   O1418767   2.143   0.161   6.186 -0.7208  0.5497  0.1660
  167SOPE   O1218768   2.176   0.307   6.381  0.0220 -0.2893  0.5093
  167SOPE   O1118769   2.222   0.053   6.395 -0.2990 -0.6652  0.4046
  167SOPE    C118770   2.310  -0.057   6.364  0.0703 -0.5838 -0.4809
  167SOPE    HA18771   2.368  -0.048   6.269  2.4209 -1.8403  0.7994
  167SOPE    HB18772   2.244  -0.147   6.359  0.2011 -0.6573 -0.9404
  167SOPE    C218773   2.406  -0.093   6.478 -0.6863  0.0278  0.0662
  167SOPE    HS18774   2.454  -0.193   6.470 -0.2008  0.2228  0.5030
  167SOPE   O2118775   2.348  -0.081   6.610  0.3747  0.0186 -0.7135
  167SOPE   C2118776   2.266  -0.184   6.653 -1.5361  0.3173 -0.3514
  167SOPE   O2218777   2.243  -0.284   6.589 -0.4006  0.5558 -0.2552
  167SOPE   C2218778   2.216  -0.158   6.794  0.0970 -0.2327 -0.5175
  167SOPE   H2R18779   2.205  -0.048   6.808  0.2195 -0.2907  0.0555
  167SOPE   H2S18780   2.293  -0.196   6.865  0.3063 -1.0087 -1.1429
  167SOPE    C318781   2.531   0.004   6.461  0.0520 -0.1681  0.3785
  167SOPE    HX18782   2.485   0.103   6.477  0.0725 -0.1481  0.3114
  167SOPE    HY18783   2.577  -0.007   6.361 -1.1603 -0.3793 -0.1654
  167SOPE   O3118784   2.637  -0.026   6.558 -0.1522  0.7148  0.0482
  167SOPE   C3118785   2.707   0.088   6.601  0.8038  0.0128  0.6161
  167SOPE   O3218786   2.691   0.199   6.558  0.3923 -0.3709  0.4415
  167SOPE   C3218787   2.817   0.044   6.695  0.7513  0.3069 -0.4564
  167SOPE   H2X18788   2.919   0.076   6.662  0.2967  2.7559  0.4145
  167SOPE   H2Y18789   2.814  -0.066   6.702 -1.5560  0.4809  2.2952
  167SOPE   C2318790   2.097  -0.251   6.821 -0.6608  0.4334 -0.2504
  167SOPE   H3R18791   2.098  -0.345   6.762  3.5520  0.0999  0.1759
  167SOPE   H3S18792   2.003  -0.196   6.800  0.3320  3.3229  2.4905
  167SOPE   C2418793   2.087  -0.289   6.974  0.4017 -0.2928  0.3557
  167SOPE   H4R18794   2.158  -0.373   6.989  1.0092 -0.1465 -1.5174
  167SOPE   H4S18795   2.124  -0.196   7.024  2.3799 -0.9215  0.1156
  167SOPE   C2518796   1.953  -0.335   7.021 -0.0613 -0.4066 -0.0050
  167SOPE   H5R18797   1.880  -0.278   6.959  0.6795  1.3636  0.7263
  167SOPE   H5S18798   1.922  -0.441   7.007 -1.3302 -0.1045  0.4456
  167SOPE   C2618799   1.929  -0.295   7.168 -0.1467  0.3964  0.0916
  167SOPE   H6R18800   1.944  -0.188   7.191  0.2355 -0.2560  3.0599
  167SOPE   H6S18801   1.825  -0.326   7.189  0.3557 -1.6789 -0.3598
  167SOPE   C2718802   2.020  -0.365   7.275 -0.2535  0.2300  0.6256
  167SOPE   H7R18803   2.023  -0.474   7.257  0.1070  0.3372  0.0043
  167SOPE   H7S18804   2.125  -0.331   7.259  0.1428 -1.1934  0.1289
  167SOPE   C2818805   1.984  -0.336   7.426  0.0675 -0.0365  0.1521
  167SOPE   H8R18806   1.893  -0.397   7.447  0.5719  0.0750  2.7056
  167SOPE   H8S18807   2.064  -0.383   7.487  1.6248  2.8764  0.4391
  167SOPE   C2918808   1.981  -0.187   7.459  0.2323  0.1202 -0.1422
  167SOPE   H9118809   2.051  -0.119   7.409 -1.6478  2.7511  0.7246
  167SOPE  C21018810   1.900  -0.126   7.551  0.1718  1.2343 -0.1293
  167SOPE  H10118811   1.906  -0.016   7.559  0.4650  1.0187  4.2008
  167SOPE  C21118812   1.788  -0.182   7.630  0.4719 -0.0777 -0.3013
  167SOPE  H11R18813   1.803  -0.290   7.610  3.0837  0.4487 -1.4663
  167SOPE  H11S18814   1.687  -0.164   7.588  0.5896  1.0684 -0.1132
  167SOPE  C21218815   1.795  -0.165   7.781 -0.5407  0.5643 -0.2030
  167SOPE  H12R18816   1.900  -0.191   7.809 -0.2456  3.1512  1.1696
  167SOPE  H12S18817   1.742  -0.253   7.825 -0.2322 -0.0629 -1.0555
  167SOPE  C21318818   1.742  -0.028   7.829  0.1936 -0.3054 -0.4096
  167SOPE  H13R18819   1.632  -0.012   7.821 -0.1856 -2.0459  0.9530
  167SOPE  H13S18820   1.787   0.056   7.771  1.2465  0.4977  1.5141
  167SOPE  C21418821   1.786  -0.023   7.972 -1.0736  0.0461  0.1878
  167SOPE  H14R18822   1.896  -0.004   7.974 -1.0989  0.1372  1.1733
  167SOPE  H14S18823   1.778  -0.125   8.016  0.8901 -0.2166 -0.0151
  167SOPE  C21518824   1.751   0.099   8.060  0.7058  0.3695  0.4355
  167SOPE  H15R18825   1.797   0.080   8.159  0.2953  1.4710  0.8468
  167SOPE  H15S18826   1.640   0.095   8.070  0.8059 -0.7839  1.2468
  167SOPE  C21618827   1.799   0.237   8.006  0.3188  0.5696 -0.2200
  167SOPE  H16R18828   1.742   0.263   7.915  1.4434 -0.5345 -1.2704
  167SOPE  H16S18829   1.897   0.211   7.959  0.1246 -0.1689 -0.2282
  167SOPE  C21718830   1.809   0.352   8.103 -0.4979 -0.0137  0.0905
  167SOPE  H17R18831   1.818   0.455   8.061  0.2909  0.0047  0.2941
  167SOPE  H17S18832   1.910   0.347   8.149 -0.0788  1.7526 -0.5783
  167SOPE  C21818833   1.691   0.363   8.203 -0.0558 -0.2188  0.2056
  167SOPE  H18R18834   1.595   0.400   8.160  0.6724 -0.1829 -1.4009
  167SOPE  H18S18835   1.717   0.431   8.288 -0.3993 -0.0648  0.1885
  167SOPE  H18T18836   1.678   0.265   8.254 -1.0165 -0.1310  0.1401
  167SOPE   C3318837   2.798   0.117   6.840 -0.4318  0.4247 -0.2210
  167SOPE   H3X18838   2.791   0.228   6.833 -0.4024  0.4406 -0.0027
  167SOPE   H3Y18839   2.898   0.104   6.888 -1.7120  1.1305  2.7251
  167SOPE   C3418840   2.684   0.045   6.918 -0.0184  0.1029  0.0663
  167SOPE   H4X18841   2.728  -0.053   6.946  0.8430  0.5154  0.1904
  167SOPE   H4Y18842   2.584   0.046   6.871 -0.0215 -2.1365 -0.0012
  167SOPE   C3518843   2.659   0.111   7.058 -0.0013  0.1673 -0.3966
  167SOPE   H5X18844   2.582   0.057   7.115 -0.8735  1.3940 -0.3953
  167SOPE   H5Y18845   2.617   0.212   7.037 -1.5346 -0.1824  0.9513
  167SOPE   C3618846   2.792   0.128   7.125 -0.6164  0.8777 -0.2064
  167SOPE   H6X18847   2.859   0.191   7.063  0.1173  0.9333  0.6305
  167SOPE   H6Y18848   2.838   0.027   7.129 -0.7537  0.8083 -0.3655
  167SOPE   C3718849   2.782   0.188   7.270  0.7674 -1.3258  1.0321
  167SOPE   H7X18850   2.712   0.274   7.260  0.2829 -2.1138 -3.8310
  167SOPE   H7Y18851   2.881   0.227   7.304 -0.2747  0.1918  2.3813
  167SOPE   C3818852   2.710   0.091   7.365 -0.6875 -0.7735 -0.3334
  167SOPE   H8X18853   2.771  -0.002   7.372  1.5868  0.7379  0.3304
  167SOPE   H8Y18854   2.611   0.054   7.333 -0.7756 -0.6099 -0.2474
  167SOPE   C3918855   2.696   0.154   7.501 -0.1990 -0.6060 -0.0011
  167SOPE   H9X18856   2.629   0.243   7.504 -1.9552 -1.9374  0.7902
  167SOPE   H9Y18857   2.795   0.188   7.540  1.1545 -0.5124 -3.3647
  167SOPE  C31018858   2.644   0.055   7.607 -0.3733 -0.0327  0.5625
  167SOPE  H10X18859   2.713  -0.031   7.604 -0.9789 -0.4859 -1.1457
  167SOPE  H10Y18860   2.545   0.019   7.572  0.7783 -2.3304 -0.4161
  167SOPE  C31118861   2.647   0.104   7.751  0.4506 -0.0635  0.3828
  167SOPE  H11X18862   2.556   0.164   7.772  0.8001  0.3666  0.6516
  167SOPE  H11Y18863   2.735   0.169   7.770  0.9736 -1.0209  1.2553
  167SOPE  C31218864   2.632  -0.006   7.862 -0.3312 -0.4629 -0.1187
  167SOPE  H12X18865   2.532  -0.050   7.878  0.7642 -3.2527 -0.6809
  167SOPE  H12Y18866   2.644   0.055   7.953 -0.4375  0.4878 -0.7336
  167SOPE  C31318867   2.726  -0.123   7.847 -0.0993  0.7453 -0.0768
  167SOPE  H13X18868   2.830  -0.084   7.843 -0.0400  0.6591  0.4755
  167SOPE  H13Y18869   2.701  -0.179   7.755 -0.8042  2.3351 -0.8623
  167SOPE  C31418870   2.730  -0.208   7.977 -0.0238 -0.2325 -0.4381
  167SOPE  H14X18871   2.629  -0.241   8.008 -0.1464 -0.0483 -0.6395
  167SOPE  H14Y18872   2.771  -0.145   8.058  1.1898 -2.1680  0.4990
  167SOPE  C31518873   2.813  -0.330   7.956  0.0227  0.6178 -0.1626
  167SOPE  H15X18874   2.915  -0.316   7.914 -0.3392  2.0171 -0.5807
  167SOPE  H15Y18875   2.769  -0.388   7.872  3.1528  1.6117 -2.5747
  167SOPE  C31618876   2.821  -0.417   8.079  0.2247 -0.3202 -1.1707
  167SOPE  H16X18877   2.848  -0.522   8.052  1.2701 -0.0126 -1.3644
  167SOPE  H16Y18878   2.722  -0.423   8.128  1.8462 -3.9796  2.0122
  167SOPE  C31718879   2.930  -0.362   8.175  0.0805  0.9351  0.0711
  167SOPE  H17X18880   2.909  -0.267   8.228  0.6618  1.1488 -0.0729
  167SOPE  H17Y18881   3.021  -0.351   8.111 -0.3670  1.4308 -0.4837
  167SOPE  C31818882   2.975  -0.448   8.286  0.5150 -0.9104  0.5337
  167SOPE  H18X18883   3.032  -0.398   8.367  0.3401 -0.3912  0.3421
  167SOPE  H18Y18884   3.042  -0.528   8.248  1.8253 -0.3814  1.7103
  167SOPE  H18Z18885   2.888  -0.504   8.326  0.3696  0.1755  1.7574
  168SOPE     N18886   1.992   3.815   6.362  0.5196 -0.1493  0.9142
  168SOPE   HN118887   1.896   3.853   6.374  0.0407 -0.4122 -1.9036
  168SOPE   HN218888   1.984   3.712   6.349 -1.5742  0.3831 -2.3896
  168SOPE   HN318889   2.064   3.843   6.432  0.6207 -2.4754  1.7731
  168SOPE   C1218890   2.025   3.870   6.219 -0.1001 -0.4290 -0.5787
  168SOPE  H12A18891   2.033   3.980   6.237  2.3569 -0.4630 -1.2419
  168SOPE  H12B18892   1.943   3.839   6.150 -1.6116  0.8799  0.6076
  168SOPE   C1118893   2.165   3.815   6.185  0.1004 -0.2393  0.5023
  168SOPE  H11A18894   2.185   3.856   6.083  3.1430 -0.8734  0.8091
  168SOPE  H11B18895   2.162   3.704   6.172  1.8277 -0.2221 -0.2004
  168SOPE     P18896   2.372   3.954   6.260 -0.2802  0.0766 -0.0513
  168SOPE   O1318897   2.316   4.088   6.230  0.6568  0.3043  0.4157
  168SOPE   O1418898   2.466   3.893   6.165  0.0032 -0.3739 -0.4710
  168SOPE   O1218899   2.257   3.858   6.289 -0.8071 -0.0663 -0.2558
  168SOPE   O1118900   2.436   3.964   6.410 -0.0410 -0.5977 -0.2408
  168SOPE    C118901   2.459   3.850   6.485  0.3696 -0.1348 -1.0915
  168SOPE    HA18902   2.559   3.807   6.463  1.2246  1.3565 -0.2058
  168SOPE    HB18903   2.375   3.777   6.484  1.0700 -0.9504 -1.2358
  168SOPE    C218904   2.486   3.877   6.641 -0.4999 -0.4231 -0.3335
  168SOPE    HS18905   2.395   3.937   6.662 -0.5311  0.0830 -1.8462
  168SOPE   O2118906   2.609   3.953   6.657 -0.3790  0.0441  0.3232
  168SOPE   C2118907   2.611   4.041   6.747 -0.0180 -0.5774  0.5249
  168SOPE   O2218908   2.513   4.085   6.809 -0.2966  0.3083  0.3891
  168SOPE   C2218909   2.749   4.113   6.748  0.4799 -0.1412 -0.2667
  168SOPE   H2R18910   2.747   4.186   6.664 -0.3672 -0.2815 -0.3782
  168SOPE   H2S18911   2.823   4.036   6.717 -0.7170 -0.7493 -1.6787
  168SOPE    C318912   2.485   3.746   6.727  0.2197 -0.1601 -0.8684
  168SOPE    HX18913   2.569   3.680   6.698  0.8042  0.0551  0.3234
  168SOPE    HY18914   2.390   3.695   6.698 -1.0836  1.6080  0.2212
  168SOPE   O3118915   2.486   3.772   6.867  0.2967  0.1134  0.4249
  168SOPE   C3118916   2.368   3.804   6.917 -0.1791  0.1209  0.2492
  168SOPE   O3218917   2.264   3.824   6.855 -0.1806 -0.7858 -0.0696
  168SOPE   C3218918   2.379   3.817   7.072  0.2815  0.6621 -0.3460
  168SOPE   H2X18919   2.449   3.743   7.115 -0.9260 -1.0572 -1.2725
  168SOPE   H2Y18920   2.283   3.799   7.125  0.1501  2.8579  0.1929
  168SOPE   C2318921   2.776   4.179   6.887  0.0215  0.3082 -0.1577
  168SOPE   H3R18922   2.688   4.235   6.924 -0.9342 -1.6431  0.5769
  168SOPE   H3S18923   2.860   4.252   6.882  1.2019 -1.0444 -0.6765
  168SOPE   C2418924   2.829   4.081   6.987 -0.0109 -0.5614 -0.2253
  168SOPE   H4R18925   2.762   3.994   7.004 -0.0819 -0.4188  0.2235
  168SOPE   H4S18926   2.922   4.035   6.949  0.8195  0.7649  0.1725
  168SOPE   C2518927   2.849   4.145   7.134 -0.0479  0.2119 -0.9119
  168SOPE   H5R18928   2.934   4.214   7.114  0.3745 -0.7555 -2.4958
  168SOPE   H5S18929   2.760   4.204   7.167  0.3348 -0.1575  0.8241
  168SOPE   C2618930   2.866   4.043   7.248  0.1476 -0.7789 -0.5865
  168SOPE   H6R18931   2.794   3.958   7.255 -0.8419 -0.0964 -2.1022
  168SOPE   H6S18932   2.962   3.986   7.244  0.4069 -0.4496  0.7954
  168SOPE   C2718933   2.867   4.106   7.388 -0.0484  0.0683  0.3416
  168SOPE   H7R18934   2.948   4.182   7.384 -0.9036  0.9790 -0.1510
  168SOPE   H7S18935   2.772   4.160   7.410 -1.7733 -3.2666  1.4427
  168SOPE   C2818936   2.892   4.011   7.507 -0.2086 -0.0139 -0.2763
  168SOPE   H8R18937   2.967   3.934   7.480  1.7498  1.3181  1.2193
  168SOPE   H8S18938   2.937   4.063   7.594 -0.8212 -1.0237  0.6488
  168SOPE   C2918939   2.765   3.949   7.568  0.3773  0.2972 -0.2263
  168SOPE   H9118940   2.683   3.933   7.497 -1.2996 -3.6738  2.4378
  168SOPE  C21018941   2.750   3.898   7.693  0.3711  0.2740 -0.0141
  168SOPE  H10118942   2.658   3.856   7.736  1.7251 -0.4687  2.2207
  168SOPE  C21118943   2.854   3.887   7.803 -0.4725 -0.7414 -0.0629
  168SOPE  H11R18944   2.959   3.902   7.770 -1.1496  2.6858 -0.8545
  168SOPE  H11S18945   2.849   3.785   7.846 -1.2112 -0.3193  0.8664
  168SOPE  C21218946   2.838   3.985   7.916  0.2400  1.1378  0.0079
  168SOPE  H12R18947   2.851   4.090   7.882  2.4590  1.3017  1.3005
  168SOPE  H12S18948   2.923   3.965   7.984 -0.7071 -0.4470  0.7708
  168SOPE  C21318949   2.706   3.969   8.001  0.0740  0.1763  0.0621
  168SOPE  H13R18950   2.698   3.859   8.019 -0.6525  0.0765 -0.8756
  168SOPE  H13S18951   2.616   3.989   7.941  0.3431  0.9313 -0.0920
  168SOPE  C21418952   2.707   4.050   8.122  0.4491  0.0554 -0.5650
  168SOPE  H14R18953   2.681   4.157   8.105  1.4103  0.2002 -1.1483
  168SOPE  H14S18954   2.810   4.053   8.161 -0.1810 -1.1801  1.2738
  168SOPE  C21518955   2.620   3.991   8.240 -0.1664  0.4520  0.0102
  168SOPE  H15R18956   2.639   3.882   8.247  0.0569  0.4748 -0.2528
  168SOPE  H15S18957   2.511   4.010   8.232 -0.1580  0.8293  0.7176
  168SOPE  C21618958   2.670   4.046   8.373  0.6549  0.3073 -0.5605
  168SOPE  H16R18959   2.671   4.157   8.363 -2.6895  0.4903  0.5393
  168SOPE  H16S18960   2.774   4.012   8.389  1.1740  2.3709  0.5214
  168SOPE  C21718961   2.580   4.011   8.495 -0.5138  0.4058 -0.7870
  168SOPE  H17R18962   2.636   4.002   8.590  0.5056  2.1591 -1.2083
  168SOPE  H17S18963   2.524   3.916   8.483 -1.9382  0.8968  1.5673
  168SOPE  C21818964   2.470   4.121   8.519 -0.6282 -0.4884 -0.2473
  168SOPE  H18R18965   2.406   4.119   8.428  1.3958 -2.2867 -1.6848
  168SOPE  H18S18966   2.514   4.221   8.539 -0.1079 -0.9120  0.7458
  168SOPE  H18T18967   2.407   4.096   8.608 -0.8164 -1.1131 -0.5522
  168SOPE   C3318968   2.442   3.966   7.100 -0.5840 -0.1917  0.1294
  168SOPE   H3X18969   2.375   4.044   7.059 -2.6750 -2.1791 -0.3519
  168SOPE   H3Y18970   2.536   3.972   7.041  0.7935  0.1889  2.3123
  168SOPE   C3418971   2.482   3.978   7.249 -0.6949  0.4821  0.3360
  168SOPE   H4X18972   2.538   4.073   7.260  0.0782 -0.0006  0.6365
  168SOPE   H4Y18973   2.538   3.889   7.284 -1.7068 -0.2534  0.1278
  168SOPE   C3518974   2.358   3.989   7.337 -0.2694 -0.4321 -0.6606
  168SOPE   H5X18975   2.316   3.886   7.328  0.8007 -0.7261 -2.3544
  168SOPE   H5Y18976   2.289   4.062   7.291  0.1877  0.1574 -0.4125
  168SOPE   C3618977   2.380   4.033   7.484 -0.4716  0.3970  1.2588
  168SOPE   H6X18978   2.325   4.127   7.506 -1.5964 -0.0310  0.3860
  168SOPE   H6Y18979   2.488   4.045   7.503  0.2692 -1.9511 -1.1280
  168SOPE   C3718980   2.338   3.937   7.599  0.9303 -0.9327 -0.1190
  168SOPE   H7X18981   2.402   3.846   7.590  0.9833 -0.9212  0.1114
  168SOPE   H7Y18982   2.230   3.917   7.583  0.9761 -0.5008 -0.9565
  168SOPE   C3818983   2.377   4.000   7.735 -0.0106 -0.6011  0.0820
  168SOPE   H8X18984   2.354   4.109   7.733  0.1167 -0.5689  0.3243
  168SOPE   H8Y18985   2.487   4.008   7.751 -0.0473 -1.0919  0.5743
  168SOPE   C3918986   2.323   3.927   7.854 -0.1400  0.7301  0.5251
  168SOPE   H9X18987   2.390   3.839   7.870  1.8503  2.6578  3.0599
  168SOPE   H9Y18988   2.222   3.890   7.823 -0.3306  1.8092 -0.1579
  168SOPE  C31018989   2.313   4.005   7.985 -0.4700 -0.3505 -0.1322
  168SOPE  H10X18990   2.266   4.105   7.973 -0.5015 -0.5329 -1.5941
  168SOPE  H10Y18991   2.416   4.036   8.013 -0.2905 -0.0867 -1.0798
  168SOPE  C31118992   2.254   3.940   8.113 -0.6348  0.3178  0.0832
  168SOPE  H11X18993   2.144   3.928   8.106 -0.5475 -0.5290  0.1676
  168SOPE  H11Y18994   2.275   4.010   8.197 -1.0323  1.9304 -1.1316
  168SOPE  C31218995   2.324   3.809   8.133 -0.3222  0.5390 -0.4613
  168SOPE  H12X18996   2.434   3.826   8.131 -0.5168  1.9384 -0.0789
  168SOPE  H12Y18997   2.307   3.734   8.053  3.6178  0.5202 -1.4119
  168SOPE  C31318998   2.288   3.738   8.268 -0.3421 -0.4591 -0.5781
  168SOPE  H13X18999   2.178   3.750   8.258 -0.4984 -1.6013 -0.2416
  168SOPE  H13Y19000   2.311   3.795   8.360  0.4264 -1.9742  0.1601
  168SOPE  C31419001   2.329   3.590   8.284 -0.7975 -0.0830  1.2484
  168SOPE  H14X19002   2.437   3.577   8.259 -1.0810  2.0997 -1.4560
  168SOPE  H14Y19003   2.268   3.530   8.213  2.2712 -0.4986 -1.1549
  168SOPE  C31519004   2.317   3.534   8.424  0.0721  0.6006 -0.6601
  168SOPE  H15X19005   2.325   3.425   8.440 -4.5514  0.3322  0.5166
  168SOPE  H15Y19006   2.215   3.561   8.458  0.8505 -0.6180  2.8100
  168SOPE  C31619007   2.421   3.601   8.525 -0.0351  0.1334  0.5983
  168SOPE  H16X19008   2.400   3.705   8.558 -0.5202 -0.1544  1.2089
  168SOPE  H16Y19009   2.514   3.605   8.465 -1.0419 -0.1868 -1.0282
  168SOPE  C31719010   2.444   3.518   8.654  1.1921 -0.6703 -0.1489
  168SOPE  H17X19011   2.541   3.533   8.706 -0.5676  0.0719  3.0690
  168SOPE  H17Y19012   2.446   3.408   8.634  0.2275 -0.5013 -1.2379
  168SOPE  C31819013   2.330   3.536   8.758  0.2305 -0.1136 -0.4592
  168SOPE  H18X19014   2.344   3.468   8.845 -2.1381  0.5526  0.5000
  168SOPE  H18Y19015   2.239   3.488   8.715  0.8713 -1.6466 -0.1298
  168SOPE  H18Z19016   2.300   3.636   8.795 -0.4543 -0.0200 -1.2502
  169SOPE     N19017   4.554   6.759   6.747  0.4423 -0.1861 -0.8249
  169SOPE   HN119018   4.582   6.858   6.756  2.9431 -1.1279  2.5418
  169SOPE   HN219019   4.517   6.741   6.651  2.4106 -1.0533 -1.4583
  169SOPE   HN319020   4.485   6.738   6.822  1.3187  1.3105  0.3973
  169SOPE   C1219021   4.686   6.691   6.758  0.1105 -0.0911 -0.4773
  169SOPE  H12A19022   4.728   6.707   6.860  0.6283 -2.4221 -0.2962
  169SOPE  H12B19023   4.746   6.753   6.689 -0.3553  0.0405 -0.7666
  169SOPE   C1119024   4.709   6.536   6.722 -0.5012  0.8616 -0.3380
  169SOPE  H11A19025   4.685   6.480   6.814  1.1400  0.3031 -0.2357
  169SOPE  H11B19026   4.814   6.515   6.692 -0.0719  1.9348  0.4034
  169SOPE     P19027   4.612   6.362   6.536 -0.1924  0.0885 -0.0479
  169SOPE   O1319028   4.722   6.276   6.566  0.3432 -0.4842 -0.0308
  169SOPE   O1419029   4.588   6.384   6.393 -0.4672 -0.3211  0.2130
  169SOPE   O1219030   4.628   6.497   6.609 -0.0857 -0.0419  0.9827
  169SOPE   O1119031   4.491   6.290   6.606  0.2725  0.1122  0.1133
  169SOPE    C119032   4.389   6.364   6.681  0.2031  0.2091 -0.5260
  169SOPE    HA19033   4.292   6.322   6.646 -1.1610  2.2449  0.7440
  169SOPE    HB19034   4.385   6.472   6.657 -1.8213  0.0080 -1.1957
  169SOPE    C219035   4.407   6.350   6.836 -0.9079 -0.3841  0.1560
  169SOPE    HS19036   4.511   6.383   6.858 -0.4302 -0.0646 -2.4390
  169SOPE   O2119037   4.368   6.217   6.875  0.4858 -0.4773  0.0960
  169SOPE   C2119038   4.457   6.149   6.951 -0.1228  0.5975  0.1183
  169SOPE   O2219039   4.570   6.182   6.970 -0.0095 -0.0031 -0.4892
  169SOPE   C2219040   4.389   6.020   7.004 -0.6673  0.1880 -0.2472
  169SOPE   H2R19041   4.365   5.958   6.914  0.7513  1.1294 -1.2840
  169SOPE   H2S19042   4.287   6.045   7.042 -0.8922  1.4225 -1.6209
  169SOPE    C319043   4.317   6.464   6.900 -0.5504 -0.4581  0.1363
  169SOPE    HX19044   4.212   6.451   6.866 -0.6301 -0.5530  0.4124
  169SOPE    HY19045   4.332   6.564   6.854 -2.4401  0.1440  0.7342
  169SOPE   O3119046   4.317   6.467   7.042 -0.1189  0.1719  0.7382
  169SOPE   C3119047   4.394   6.558   7.094 -0.7791  0.4831 -0.2156
  169SOPE   O3219048   4.468   6.636   7.029  0.1760  0.0948 -0.4856
  169SOPE   C3219049   4.372   6.555   7.244  0.1436 -0.5199 -0.7796
  169SOPE   H2X19050   4.262   6.540   7.258  0.5229 -1.0050  1.9289
  169SOPE   H2Y19051   4.411   6.652   7.282  2.4402 -2.3290  1.6967
  169SOPE   C2319052   4.484   5.943   7.098  0.5196 -0.1361 -0.2661
  169SOPE   H3R19053   4.582   5.936   7.047 -0.1407  1.7585 -1.8357
  169SOPE   H3S19054   4.449   5.838   7.112  2.3258 -0.8339 -0.8514
  169SOPE   C2419055   4.506   6.008   7.234  0.6866 -0.8933 -0.8449
  169SOPE   H4R19056   4.587   5.951   7.283  0.3358  0.2015  1.0543
  169SOPE   H4S19057   4.532   6.115   7.221  1.3209 -0.9125  0.1822
  169SOPE   C2519058   4.392   5.986   7.330  0.0582 -0.8185 -0.3514
  169SOPE   H5R19059   4.293   6.013   7.286  0.2808 -1.3726 -1.2158
  169SOPE   H5S19060   4.384   5.876   7.341  1.1328 -0.7334  1.4957
  169SOPE   C2619061   4.411   6.057   7.462  0.1601 -0.9532 -0.0001
  169SOPE   H6R19062   4.447   6.161   7.447  1.1272 -1.5246 -1.8525
  169SOPE   H6S19063   4.316   6.061   7.519 -0.3089  1.1404 -0.8900
  169SOPE   C2719064   4.523   5.995   7.549  0.4931 -0.2755 -0.0329
  169SOPE   H7R19065   4.504   5.888   7.569 -1.0905 -0.2739 -1.4054
  169SOPE   H7S19066   4.620   5.992   7.495 -0.2047  0.0810 -1.3062
  169SOPE   C2819067   4.548   6.076   7.680  1.2898 -0.8373 -0.3052
  169SOPE   H8R19068   4.642   6.033   7.719  0.0438 -2.9116  0.4977
  169SOPE   H8S19069   4.568   6.181   7.647  0.3913 -0.8279 -0.8438
  169SOPE   C2919070   4.443   6.065   7.789 -0.0621 -0.3468 -0.1889
  169SOPE   H9119071   4.338   6.083   7.762 -0.5591 -1.3483  1.0044
  169SOPE  C21019072   4.459   6.012   7.912 -0.1416  0.7072 -0.0886
  169SOPE  H10119073   4.377   6.001   7.985 -0.2696 -0.7424 -0.4388
  169SOPE  C21119074   4.577   5.941   7.966  0.8913 -0.5461 -0.2646
  169SOPE  H11R19075   4.656   6.014   7.994 -1.4391  1.5011  1.2253
  169SOPE  H11S19076   4.616   5.877   7.884 -0.4162  0.0199 -1.3499
  169SOPE  C21219077   4.548   5.845   8.081 -0.0194  0.3679 -0.5655
  169SOPE  H12R19078   4.479   5.761   8.055  1.3358 -1.2224  0.8238
  169SOPE  H12S19079   4.501   5.898   8.167  2.1618  1.9779 -0.3403
  169SOPE  C21319080   4.674   5.767   8.126 -0.0799 -0.4824 -0.1664
  169SOPE  H13R19081   4.763   5.830   8.145  2.2613 -3.0592 -2.1437
  169SOPE  H13S19082   4.709   5.699   8.045 -0.1698 -1.6269  0.7418
  169SOPE  C21419083   4.633   5.680   8.251  0.0127  0.8091 -0.2686
  169SOPE  H14R19084   4.587   5.740   8.332  2.0518  1.8122  0.1901
  169SOPE  H14S19085   4.723   5.639   8.302  0.0881  2.6188  1.0848
  169SOPE  C21519086   4.544   5.559   8.216  0.1604  0.3775 -0.2955
  169SOPE  H15R19087   4.584   5.499   8.131  0.6493  2.3924 -1.5231
  169SOPE  H15S19088   4.452   5.616   8.189 -1.5767 -1.3591  1.7443
  169SOPE  C21619089   4.520   5.460   8.325  0.4131 -0.2417 -0.0858
  169SOPE  H16R19090   4.476   5.511   8.414  0.6762  0.7278 -0.5007
  169SOPE  H16S19091   4.611   5.400   8.345  1.0568  0.2631 -1.4418
  169SOPE  C21719092   4.417   5.346   8.290 -0.2603  0.7239 -0.3542
  169SOPE  H17R19093   4.464   5.296   8.203  0.2708  2.4813 -1.1064
  169SOPE  H17S19094   4.324   5.378   8.238 -1.1109 -1.5839 -0.3121
  169SOPE  C21819095   4.379   5.256   8.408  0.4227  0.1427 -0.4335
  169SOPE  H18R19096   4.311   5.306   8.481  0.4767 -0.8727  0.3151
  169SOPE  H18S19097   4.475   5.232   8.457  1.5007  2.3178 -1.3753
  169SOPE  H18T19098   4.320   5.170   8.371 -0.9497  1.4994 -1.4904
  169SOPE   C3319099   4.444   6.439   7.310 -0.8930 -0.3124 -0.1976
  169SOPE   H3X19100   4.540   6.412   7.261 -1.6711 -3.0983 -0.2607
  169SOPE   H3Y19101   4.383   6.346   7.304  0.5391 -1.3700  1.1704
  169SOPE   C3419102   4.474   6.464   7.462  0.1855  0.8486 -0.3016
  169SOPE   H4X19103   4.533   6.557   7.468  0.4668  0.5335  2.0285
  169SOPE   H4Y19104   4.520   6.368   7.493 -1.3482  1.0787  2.8544
  169SOPE   C3519105   4.358   6.491   7.559 -0.1819  0.1237 -0.6439
  169SOPE   H5X19106   4.281   6.413   7.541 -0.0359 -0.6059  1.7377
  169SOPE   H5Y19107   4.319   6.593   7.537  2.7746  1.0253 -1.9906
  169SOPE   C3619108   4.408   6.478   7.702 -0.5313  0.0887  1.0147
  169SOPE   H6X19109   4.488   6.553   7.718 -0.7606  0.5719 -0.0270
  169SOPE   H6Y19110   4.467   6.384   7.703  0.0731  0.4223 -0.6790
  169SOPE   C3719111   4.293   6.488   7.800  0.1147 -0.2046 -0.3318
  169SOPE   H7X19112   4.220   6.411   7.766  1.8605 -2.1958  0.3186
  169SOPE   H7Y19113   4.256   6.593   7.800  0.6422 -0.0055  1.2842
  169SOPE   C3819114   4.346   6.437   7.938  0.2480 -0.7129  0.2743
  169SOPE   H8X19115   4.380   6.333   7.919  1.2109 -0.2136 -0.8446
  169SOPE   H8Y19116   4.437   6.492   7.973  0.0067  0.8133 -1.4076
  169SOPE   C3919117   4.251   6.426   8.056 -0.4576  0.2118 -0.0914
  169SOPE   H9X19118   4.152   6.410   8.009  1.1030 -0.6012 -3.3202
  169SOPE   H9Y19119   4.258   6.514   8.123  0.2537 -0.3109  0.5356
  169SOPE  C31019120   4.284   6.308   8.146 -0.0772  0.1956  0.1049
  169SOPE  H10X19121   4.392   6.305   8.170  0.1880  1.4998 -0.8473
  169SOPE  H10Y19122   4.263   6.214   8.090  2.4892  0.6489 -1.6915
  169SOPE  C31119123   4.209   6.303   8.283 -0.3486 -0.8787  0.2610
  169SOPE  H11X19124   4.104   6.287   8.250  1.1753  0.8642 -6.0499
  169SOPE  H11Y19125   4.218   6.397   8.342 -1.5377 -0.7139  0.1994
  169SOPE  C31219126   4.238   6.191   8.379  0.5684  0.2464 -0.1956
  169SOPE  H12X19127   4.199   6.222   8.478 -0.3624 -0.6856 -0.2640
  169SOPE  H12Y19128   4.348   6.178   8.388  0.6716  1.5584  0.5347
  169SOPE  C31319129   4.179   6.054   8.324  0.2729  0.1514  1.0431
  169SOPE  H13X19130   4.238   6.034   8.232 -1.6734 -0.6579 -0.0575
  169SOPE  H13Y19131   4.073   6.077   8.299  0.0075 -1.3983  0.6714
  169SOPE  C31419132   4.196   5.950   8.443  0.3241 -0.4035 -0.5767
  169SOPE  H14X19133   4.152   5.987   8.538 -2.2115 -1.0874 -1.4262
  169SOPE  H14Y19134   4.305   5.949   8.459  0.2863  1.8345 -0.0277
  169SOPE  C31519135   4.134   5.809   8.423 -0.1369  0.5189 -0.2194
  169SOPE  H15X19136   4.023   5.812   8.420 -0.3550 -3.9547 -1.0832
  169SOPE  H15Y19137   4.165   5.761   8.519 -2.6258 -1.4713 -0.3392
  169SOPE  C31619138   4.183   5.723   8.302 -0.7082  0.6937  0.1766
  169SOPE  H16X19139   4.293   5.714   8.316 -0.8117 -1.5122 -0.3861
  169SOPE  H16Y19140   4.160   5.779   8.209 -0.5453  0.2220 -0.1457
  169SOPE  C31719141   4.119   5.581   8.289 -0.3702  1.2496  1.0133
  169SOPE  H17X19142   4.163   5.516   8.367  0.1845  1.3968  0.8209
  169SOPE  H17Y19143   4.150   5.544   8.189 -2.1153 -0.5840  1.1195
  169SOPE  C31819144   3.973   5.584   8.299  0.1705 -0.1841  0.3257
  169SOPE  H18X19145   3.940   5.479   8.314 -2.1115  0.3991 -0.4313
  169SOPE  H18Y19146   3.939   5.615   8.198  2.5158  1.0956 -0.1139
  169SOPE  H18Z19147   3.934   5.652   8.378  0.3688  1.1420 -0.7035
  170SOPE     N19148   5.761   4.274   6.146  0.0729 -0.3785  0.2274
  170SOPE   HN119149   5.832   4.280   6.222  0.9657  1.5463 -0.7391
  170SOPE   HN219150   5.683   4.210   6.172  1.7736 -2.6799 -0.2161
  170SOPE   HN319151   5.821   4.244   6.067 -1.1287 -0.0472 -0.8175
  170SOPE   C1219152   5.705   4.410   6.118 -0.7048 -0.4743 -0.1641
  170SOPE  H12A19153   5.639   4.416   6.029  1.9738  0.3899 -2.1720
  170SOPE  H12B19154   5.799   4.469   6.113 -0.4545 -0.5648  2.7124
  170SOPE   C1119155   5.617   4.467   6.235  0.5337  0.0822 -0.3656
  170SOPE  H11A19156   5.585   4.572   6.214  1.6886  0.6777  0.7282
  170SOPE  H11B19157   5.676   4.462   6.329  0.6378 -1.6364 -0.5153
  170SOPE     P19158   5.474   4.279   6.340 -0.2419  0.3748  0.1247
  170SOPE   O1319159   5.574   4.178   6.305 -0.6629 -0.0641  0.3358
  170SOPE   O1419160   5.336   4.231   6.349 -0.1729  0.0698 -0.0820
  170SOPE   O1219161   5.493   4.391   6.237 -0.5965  0.4816 -0.0065
  170SOPE   O1119162   5.524   4.352   6.467  0.8051  0.3882  0.0985
  170SOPE    C119163   5.440   4.449   6.533 -0.3000 -0.5290  0.7778
  170SOPE    HA19164   5.337   4.414   6.552  0.1190 -2.7676 -0.7787
  170SOPE    HB19165   5.437   4.543   6.475  0.5061 -0.3177  1.0655
  170SOPE    C219166   5.502   4.475   6.673  0.2493 -0.1101 -0.1587
  170SOPE    HS19167   5.604   4.514   6.653  0.2658 -0.5678 -0.9774
  170SOPE   O2119168   5.490   4.348   6.750  0.0904  0.7500  0.2537
  170SOPE   C2119169   5.600   4.320   6.814 -0.3021  0.2472 -0.4428
  170SOPE   O2219170   5.693   4.398   6.830 -0.4681 -1.0730 -0.0327
  170SOPE   C2219171   5.581   4.183   6.882  0.4171 -0.3794  0.6338
  170SOPE   H2R19172   5.605   4.108   6.803 -1.0287  0.3792 -0.5612
  170SOPE   H2S19173   5.475   4.173   6.914  0.0595 -0.7166 -0.6300
  170SOPE    C319174   5.425   4.588   6.743 -0.2449  0.3547 -0.2461
  170SOPE    HX19175   5.328   4.540   6.765 -0.4013  1.0080  0.4912
  170SOPE    HY19176   5.425   4.675   6.674 -1.8154 -0.1762 -0.9189
  170SOPE   O3119177   5.476   4.612   6.883 -0.3690  0.7569 -0.0516
  170SOPE   C3119178   5.400   4.699   6.939 -0.3526  0.7049 -0.3391
  170SOPE   O3219179   5.300   4.755   6.890  0.0326  0.1871 -0.5642
  170SOPE   C3219180   5.440   4.718   7.088  0.4688  0.0353 -0.1578
  170SOPE   H2X19181   5.509   4.803   7.105  2.2154 -1.1786 -0.9936
  170SOPE   H2Y19182   5.490   4.623   7.116 -0.3691 -1.1202 -2.4139
  170SOPE   C2319183   5.670   4.157   6.998  0.4660 -0.3650 -0.4206
  170SOPE   H3R19184   5.697   4.240   7.068 -1.1867 -0.2466  0.1127
  170SOPE   H3S19185   5.768   4.123   6.960  1.5050  2.5158 -0.4530
  170SOPE   C2419186   5.628   4.035   7.086 -0.4358 -0.1869  0.3582
  170SOPE   H4R19187   5.526   4.055   7.126  0.0331  0.8232  1.0817
  170SOPE   H4S19188   5.616   3.948   7.018 -2.0703 -0.9372  1.5707
  170SOPE   C2519189   5.712   4.001   7.205 -0.4892  0.5110 -0.2399
  170SOPE   H5R19190   5.815   3.995   7.164 -0.7978 -1.5849 -0.8029
  170SOPE   H5S19191   5.704   4.089   7.273  4.8808 -0.2885  1.7028
  170SOPE   C2619192   5.663   3.877   7.283 -0.0205 -0.0462 -0.6823
  170SOPE   H6R19193   5.652   3.795   7.209  2.2499 -0.4980 -0.5786
  170SOPE   H6S19194   5.730   3.845   7.366 -1.7972 -0.3208  0.6720
  170SOPE   C2719195   5.526   3.891   7.353 -0.4115  0.4908 -0.0709
  170SOPE   H7R19196   5.533   3.982   7.416  1.2378  0.9372 -0.8810
  170SOPE   H7S19197   5.459   3.914   7.267  1.6773  0.0097 -1.8522
  170SOPE   C2819198   5.481   3.766   7.432 -0.3077 -0.5065 -0.9018
  170SOPE   H8R19199   5.376   3.792   7.459 -0.9672 -0.4985 -3.3475
  170SOPE   H8S19200   5.483   3.683   7.358 -0.0159 -0.7755 -0.5925
  170SOPE   C2919201   5.568   3.731   7.546 -0.4595  0.8615  0.6998
  170SOPE   H9119202   5.671   3.713   7.511 -0.8099 -1.9361  1.0159
  170SOPE  C21019203   5.522   3.699   7.673  0.2775 -0.0317  0.5995
  170SOPE  H10119204   5.589   3.664   7.752  0.6626  0.3282  0.4330
  170SOPE  C21119205   5.380   3.712   7.733 -0.7626  0.0418 -0.1703
  170SOPE  H11R19206   5.298   3.748   7.667  0.8460  2.8545 -0.7029
  170SOPE  H11S19207   5.378   3.789   7.813  0.1678 -0.6499  0.5317
  170SOPE  C21219208   5.325   3.576   7.772  0.4556 -0.2213  0.6106
  170SOPE  H12R19209   5.387   3.531   7.852  1.2821  0.7474  0.5303
  170SOPE  H12S19210   5.330   3.512   7.682  0.2291  0.7945 -0.1363
  170SOPE  C21319211   5.185   3.585   7.829  0.7250  0.6608  0.2167
  170SOPE  H13R19212   5.136   3.486   7.843  0.4323  1.1177  2.6046
  170SOPE  H13S19213   5.117   3.637   7.759 -0.2392 -1.8729 -0.7891
  170SOPE  C21419214   5.170   3.649   7.972  0.8131  0.3964  0.3972
  170SOPE  H14R19215   5.211   3.752   7.980  1.6107  0.1224 -0.0977
  170SOPE  H14S19216   5.226   3.588   8.046  2.6610  0.9292 -0.5222
  170SOPE  C21519217   5.025   3.641   8.020  0.1354  0.1926 -0.6516
  170SOPE  H15R19218   5.008   3.532   8.033 -3.3658  0.4120 -2.6802
  170SOPE  H15S19219   4.969   3.683   7.933 -2.1417 -0.1769  0.5842
  170SOPE  C21619220   4.994   3.707   8.153 -0.2229  0.6607 -0.1006
  170SOPE  H16R19221   4.988   3.815   8.129  0.2566  0.3592 -1.5760
  170SOPE  H16S19222   5.081   3.687   8.220 -0.1222 -0.4229 -0.5439
  170SOPE  C21719223   4.852   3.661   8.222  0.1756  0.5720 -0.8399
  170SOPE  H17R19224   4.861   3.660   8.333 -3.5881 -0.3731 -0.4740
  170SOPE  H17S19225   4.829   3.556   8.196  2.4927  0.1830 -1.4930
  170SOPE  C21819226   4.735   3.753   8.185 -0.3488  0.0907  0.3491
  170SOPE  H18R19227   4.640   3.705   8.215 -0.5325  1.3039  1.7562
  170SOPE  H18S19228   4.741   3.767   8.075  1.6234  0.5588  0.4978
  170SOPE  H18T19229   4.749   3.853   8.230 -2.5843 -0.4749  2.4436
  170SOPE   C3319230   5.310   4.742   7.165  0.8671 -0.6864  0.3367
  170SOPE   H3X19231   5.250   4.651   7.145 -2.0329  0.2052  4.2935
  170SOPE   H3Y19232   5.264   4.835   7.127 -2.1965 -2.2141  0.1617
  170SOPE   C3419233   5.330   4.754   7.324 -0.1701 -0.0926 -0.3988
  170SOPE   H4X19234   5.379   4.852   7.341  0.1196  0.2253 -2.9404
  170SOPE   H4Y19235   5.393   4.673   7.369  1.8715  1.6562 -0.0227
  170SOPE   C3519236   5.194   4.733   7.398  0.0717 -0.9607  0.0131
  170SOPE   H5X19237   5.148   4.640   7.359 -3.9416  0.3736  1.3509
  170SOPE   H5Y19238   5.109   4.801   7.378  2.4257  2.3041  0.6375
  170SOPE   C3619239   5.207   4.700   7.544  0.1652 -0.5412  0.1448
  170SOPE   H6X19240   5.258   4.787   7.588 -0.2350  1.4946 -3.2023
  170SOPE   H6Y19241   5.274   4.612   7.556  2.1246  0.9324  0.0615
  170SOPE   C3719242   5.080   4.678   7.612 -0.5376  0.2633  0.2130
  170SOPE   H7X19243   5.056   4.572   7.591  1.6025 -0.0385 -0.8267
  170SOPE   H7Y19244   4.998   4.745   7.579 -0.7590 -1.2183 -2.3104
  170SOPE   C3819245   5.086   4.702   7.768 -0.0992  1.0054  0.2960
  170SOPE   H8X19246   5.124   4.804   7.788  0.7940  0.6613  0.4092
  170SOPE   H8Y19247   5.166   4.632   7.802 -2.3889 -0.4299  2.9241
  170SOPE   C3919248   4.962   4.674   7.861  0.1541  0.0900  0.8235
  170SOPE   H9X19249   4.909   4.580   7.834 -0.9536  0.5019  1.5080
  170SOPE   H9Y19250   4.886   4.754   7.851 -0.3011 -0.5804 -1.4220
  170SOPE  C31019251   5.009   4.669   8.005 -0.6506 -0.3970 -0.5730
  170SOPE  H10X19252   5.057   4.765   8.033  4.0889 -2.4593 -1.0655
  170SOPE  H10Y19253   5.079   4.583   8.001 -0.0948  0.0452 -0.5266
  170SOPE  C31119254   4.892   4.648   8.100  0.3114  0.4789 -0.0052
  170SOPE  H11X19255   4.836   4.561   8.059  0.4495  0.4770 -0.1878
  170SOPE  H11Y19256   4.818   4.730   8.098 -2.2503 -1.7295  1.2068
  170SOPE  C31219257   4.951   4.617   8.241  0.1948  0.1016  0.3013
  170SOPE  H12X19258   5.016   4.698   8.281  0.0322  0.5956 -0.4298
  170SOPE  H12Y19259   5.008   4.522   8.233 -1.4649 -0.9818  0.9554
  170SOPE  C31319260   4.832   4.605   8.332  0.8509  0.1734  0.5732
  170SOPE  H13X19261   4.764   4.521   8.306 -1.6945  3.0205 -2.3884
  170SOPE  H13Y19262   4.764   4.692   8.325  0.9093  0.0942 -1.2457
  170SOPE  C31419263   4.859   4.592   8.479  0.2040 -0.3462  1.1644
  170SOPE  H14X19264   4.917   4.683   8.507 -0.3793  0.4881 -0.2910
  170SOPE  H14Y19265   4.920   4.502   8.502  0.4701 -0.7829 -1.1199
  170SOPE  C31519266   4.725   4.576   8.557 -0.8373 -0.0267  0.5074
  170SOPE  H15X19267   4.656   4.655   8.522 -0.0999  1.4294  2.2396
  170SOPE  H15Y19268   4.740   4.601   8.665 -0.8884  3.9870 -0.3430
  170SOPE  C31619269   4.662   4.439   8.555 -0.0715 -0.0711 -0.3148
  170SOPE  H16X19270   4.626   4.414   8.453 -0.5617  0.0725 -0.1813
  170SOPE  H16Y19271   4.570   4.459   8.614 -0.0820 -1.8588  0.2811
  170SOPE  C31719272   4.749   4.324   8.608 -0.3233 -0.2501 -0.7707
  170SOPE  H17X19273   4.821   4.295   8.528  1.2410 -1.0173  0.9028
  170SOPE  H17Y19274   4.672   4.245   8.617 -1.5420  0.0501 -6.4924
  170SOPE  C31819275   4.835   4.348   8.732  0.6133 -0.6043 -0.6008
  170SOPE  H18X19276   4.774   4.397   8.810  0.1174 -1.8295 -0.1981
  170SOPE  H18Y19277   4.922   4.412   8.705  0.3742  0.1505  0.3850
  170SOPE  H18Z19278   4.868   4.252   8.777 -0.0726  1.0907  3.7368
  171SOPE     N19279   5.232   0.660   6.748 -0.3653 -0.0199  0.4098
  171SOPE   HN119280   5.245   0.676   6.645  0.2756  1.8572  0.7463
  171SOPE   HN219281   5.282   0.571   6.763  0.6781  0.7708  1.7194
  171SOPE   HN319282   5.133   0.637   6.767 -0.8887  2.5026  0.9304
  171SOPE   C1219283   5.283   0.781   6.818 -0.2220  0.0187 -0.1405
  171SOPE  H12A19284   5.394   0.777   6.825 -0.1393 -1.0719 -1.6161
  171SOPE  H12B19285   5.240   0.780   6.920  2.0754  0.3005  0.8417
  171SOPE   C1119286   5.246   0.915   6.752 -0.2335  0.0851 -0.7636
  171SOPE  H11A19287   5.306   0.999   6.793 -2.0831  0.5927  0.9730
  171SOPE  H11B19288   5.145   0.943   6.787 -0.0662  1.3893 -1.2766
  171SOPE     P19289   5.367   0.981   6.518 -0.0770  0.4122 -0.6256
  171SOPE   O1319290   5.302   1.024   6.391  0.4232 -0.1114  0.5399
  171SOPE   O1419291   5.493   0.898   6.505 -0.0172 -0.6803  0.2918
  171SOPE   O1219292   5.256   0.902   6.609  1.0465  0.2829 -0.5379
  171SOPE   O1119293   5.393   1.115   6.598 -0.1264 -0.1224  0.4449
  171SOPE    C119294   5.509   1.193   6.561 -0.0421 -0.1362  0.0693
  171SOPE    HA19295   5.485   1.301   6.560 -2.0233 -0.5650 -0.4080
  171SOPE    HB19296   5.541   1.170   6.457 -0.3493  0.5220 -0.1729
  171SOPE    C219297   5.633   1.164   6.651  0.2831  0.6188 -0.2478
  171SOPE    HS19298   5.650   1.054   6.659 -1.1576  0.3834 -0.2340
  171SOPE   O2119299   5.618   1.221   6.779  0.3162  0.1948  0.0575
  171SOPE   C2119300   5.558   1.142   6.866 -0.1131 -0.0698  0.1798
  171SOPE   O2219301   5.553   1.022   6.851  0.1492  0.3459  0.5960
  171SOPE   C2219302   5.512   1.214   6.986 -0.7966  0.2365  0.0699
  171SOPE   H2R19303   5.483   1.320   6.970 -0.4176  0.1798 -1.0652
  171SOPE   H2S19304   5.597   1.210   7.057  0.4840 -0.2583 -1.4541
  171SOPE    C319305   5.755   1.229   6.579 -0.4551 -1.0531 -0.9718
  171SOPE    HX19306   5.735   1.335   6.551 -2.2637 -1.0665  0.2146
  171SOPE    HY19307   5.771   1.181   6.480  0.7761 -1.7800 -0.4419
  171SOPE   O3119308   5.876   1.242   6.659  0.0631  0.9963  0.0286
  171SOPE   C3119309   5.953   1.128   6.654 -0.1446  0.7626  0.6721
  171SOPE   O3219310   5.937   1.037   6.575  0.2090  0.5418 -0.3774
  171SOPE   C3219311   6.070   1.133   6.760  0.1264  0.8317 -0.8317
  171SOPE   H2X19312   6.134   1.223   6.744  2.0181  0.1077  2.2119
  171SOPE   H2Y19313   6.123   1.036   6.754  0.6859  0.7989  2.9090
  171SOPE   C2319314   5.388   1.146   7.052  0.0166  0.0012  0.1088
  171SOPE   H3R19315   5.401   1.036   7.065  1.2302  0.2711  1.2448
  171SOPE   H3S19316   5.308   1.168   6.977 -0.0555 -1.6342 -0.3162
  171SOPE   C2419317   5.361   1.209   7.186  0.0711  0.5380 -0.3887
  171SOPE   H4R19318   5.447   1.186   7.252  0.7763 -0.9499 -1.7784
  171SOPE   H4S19319   5.347   1.319   7.182 -0.0795  0.5407  0.1719
  171SOPE   C2519320   5.233   1.161   7.256  0.1609 -1.0245 -0.0038
  171SOPE   H5R19321   5.147   1.167   7.187 -0.3334 -0.9516  0.6149
  171SOPE   H5S19322   5.238   1.057   7.295  0.8673 -0.3452  1.7812
  171SOPE   C2619323   5.201   1.248   7.379 -0.0200 -0.6235 -0.0034
  171SOPE   H6R19324   5.224   1.356   7.363  0.7982 -0.6888  0.7270
  171SOPE   H6S19325   5.092   1.235   7.395 -0.3708  1.3371 -0.6734
  171SOPE   C2719326   5.282   1.210   7.513 -0.5030  0.0987 -0.4549
  171SOPE   H7R19327   5.304   1.101   7.514  1.5212  0.4815 -0.1051
  171SOPE   H7S19328   5.379   1.263   7.509 -0.6220  0.3806  0.2121
  171SOPE   C2819329   5.219   1.249   7.651 -0.1566 -0.1950  0.4454
  171SOPE   H8R19330   5.119   1.201   7.649 -0.3583  0.2517 -0.3033
  171SOPE   H8S19331   5.273   1.195   7.731 -1.2246 -0.1751  1.1956
  171SOPE   C2919332   5.225   1.399   7.665  0.2880 -0.1771 -1.0130
  171SOPE   H9119333   5.200   1.451   7.572 -2.6856 -0.0056 -0.1848
  171SOPE  C21019334   5.291   1.472   7.765  0.2151  0.4116 -0.1891
  171SOPE  H10119335   5.287   1.581   7.767 -0.7435  0.3968  3.3151
  171SOPE  C21119336   5.358   1.415   7.889  0.4215  0.2998  0.0780
  171SOPE  H11R19337   5.461   1.455   7.904  1.1063 -1.2466 -0.4401
  171SOPE  H11S19338   5.371   1.305   7.880 -1.3914 -0.0738  1.7153
  171SOPE  C21219339   5.276   1.436   8.016  0.1035  0.5361  0.5933
  171SOPE  H12R19340   5.303   1.365   8.097  1.9795 -0.8074 -1.1478
  171SOPE  H12S19341   5.170   1.434   7.985  0.0163  2.0803  0.7822
  171SOPE  C21319342   5.302   1.576   8.075  0.5074 -0.5502  0.1936
  171SOPE  H13R19343   5.328   1.642   7.989 -1.7053 -0.1277 -0.1809
  171SOPE  H13S19344   5.387   1.562   8.145 -0.3767 -1.1190  1.1612
  171SOPE  C21419345   5.182   1.633   8.154 -0.9230 -0.4032  0.1321
  171SOPE  H14R19346   5.094   1.665   8.094 -0.4295 -0.2455 -0.5178
  171SOPE  H14S19347   5.214   1.730   8.197 -1.5677 -0.7658  1.4487
  171SOPE  C21519348   5.143   1.543   8.270 -0.7604  0.2052 -0.1214
  171SOPE  H15R19349   5.233   1.491   8.310 -0.1515  0.6493 -0.8886
  171SOPE  H15S19350   5.085   1.460   8.223  2.1492 -2.1613  0.3061
  171SOPE  C21619351   5.067   1.614   8.378 -0.2635 -0.3545  0.6422
  171SOPE  H16R19352   4.980   1.667   8.334 -0.1435 -0.1320  0.6709
  171SOPE  H16S19353   5.134   1.696   8.412 -1.5143  1.1914 -0.5610
  171SOPE  C21719354   5.023   1.535   8.507  0.3250 -0.1412 -0.1920
  171SOPE  H17R19355   4.992   1.613   8.580  1.1179  0.5564 -0.5842
  171SOPE  H17S19356   5.108   1.476   8.549 -0.9087 -0.6623  1.5968
  171SOPE  C21819357   4.903   1.446   8.470 -0.6372 -0.2222  0.1897
  171SOPE  H18R19358   4.864   1.401   8.564  2.6487 -3.3122  0.1844
  171SOPE  H18S19359   4.922   1.370   8.391 -2.4355  0.3840 -0.8581
  171SOPE  H18T19360   4.824   1.509   8.423  1.2399  0.7322 -1.7844
  171SOPE   C3319361   6.017   1.142   6.902 -0.9579 -0.4425 -0.2122
  171SOPE   H3X19362   5.950   1.230   6.908  1.3761  1.3014  0.7887
  171SOPE   H3Y19363   6.099   1.159   6.974 -0.4303  3.0908 -1.5464
  171SOPE   C3419364   5.941   1.019   6.946  0.2206 -0.5485  0.3268
  171SOPE   H4X19365   6.000   0.928   6.927  1.7116  0.0994  1.6746
  171SOPE   H4Y19366   5.843   1.006   6.895  0.0925  0.3345  0.3254
  171SOPE   C3519367   5.916   1.010   7.096  0.2254 -0.2516  0.3477
  171SOPE   H5X19368   5.895   1.114   7.127  0.5703  0.5210 -1.8919
  171SOPE   H5Y19369   6.011   0.982   7.147 -0.1846 -1.8861  0.2362
  171SOPE   C3619370   5.800   0.919   7.145  0.7334 -0.2663  0.2636
  171SOPE   H6X19371   5.810   0.813   7.113  0.0612 -0.9538  2.1884
  171SOPE   H6Y19372   5.706   0.947   7.092 -0.1774 -2.6105  0.5970
  171SOPE   C3719373   5.781   0.945   7.291  0.4988  0.5953 -0.1528
  171SOPE   H7X19374   5.874   0.928   7.348 -2.1680 -2.0323  3.6902
  171SOPE   H7Y19375   5.712   0.861   7.315  1.3920 -1.1879 -3.6309
  171SOPE   C3819376   5.707   1.080   7.322  0.0771  0.4548 -0.6761
  171SOPE   H8X19377   5.643   1.097   7.233 -1.8137 -1.0890  0.3445
  171SOPE   H8Y19378   5.790   1.153   7.328  1.4782 -1.1445 -0.0663
  171SOPE   C3919379   5.625   1.084   7.446 -0.0336 -0.1866 -0.1348
  171SOPE   H9X19380   5.574   0.985   7.446  1.9685 -1.2468 -1.5507
  171SOPE   H9Y19381   5.551   1.167   7.438 -0.9149 -1.0794 -1.4003
  171SOPE  C31019382   5.693   1.107   7.581  0.1644  0.0466  0.1013
  171SOPE  H10X19383   5.741   1.206   7.568 -1.9903  0.7878 -2.5847
  171SOPE  H10Y19384   5.771   1.030   7.597 -0.1779  0.1153  2.2925
  171SOPE  C31119385   5.593   1.097   7.696 -0.0041  0.5861  0.5269
  171SOPE  H11X19386   5.557   0.993   7.709 -0.7183  0.9368  1.4123
  171SOPE  H11Y19387   5.521   1.175   7.665  0.9327  1.3486  0.2283
  171SOPE  C31219388   5.651   1.162   7.824  0.5393  0.0748 -0.1381
  171SOPE  H12X19389   5.562   1.139   7.888  1.9294 -1.1407  1.4073
  171SOPE  H12Y19390   5.660   1.271   7.803 -0.4858  0.0623 -0.6668
  171SOPE  C31319391   5.777   1.098   7.879  0.2552 -0.4127  0.1197
  171SOPE  H13X19392   5.872   1.129   7.829 -0.2868  0.4488 -0.3911
  171SOPE  H13Y19393   5.759   0.989   7.882 -2.5556 -0.0081 -0.8194
  171SOPE  C31419394   5.794   1.144   8.026  0.3081  0.1881  0.5603
  171SOPE  H14X19395   5.697   1.151   8.079  0.0284 -0.0417  0.0727
  171SOPE  H14Y19396   5.844   1.243   8.025  0.3808  0.1396 -2.5065
  171SOPE  C31519397   5.891   1.056   8.108  0.1569 -0.2250  0.0576
  171SOPE  H15X19398   5.995   1.072   8.072  1.2050 -1.7267  2.2596
  171SOPE  H15Y19399   5.860   0.950   8.102 -0.1713 -0.0729 -0.9773
  171SOPE  C31619400   5.888   1.087   8.263  0.1312  0.6873  0.5739
  171SOPE  H16X19401   5.783   1.062   8.292  0.4938 -0.1807  1.1270
  171SOPE  H16Y19402   5.907   1.191   8.297  0.8594  1.0238 -0.8371
  171SOPE  C31719403   5.980   0.998   8.352 -0.5780  0.3338  0.0451
  171SOPE  H17X19404   5.949   0.894   8.331  2.1688 -0.2030 -1.6365
  171SOPE  H17Y19405   5.963   1.023   8.459  1.4294 -3.1652  1.2722
  171SOPE  C31819406   6.126   1.016   8.329 -0.3416 -0.3493  0.1106
  171SOPE  H18X19407   6.156   1.112   8.374 -3.7066  1.7333 -1.8825
  171SOPE  H18Y19408   6.146   1.017   8.219  0.5628  1.8552  0.2722
  171SOPE  H18Z19409   6.184   0.928   8.367  0.8487  0.5256  0.3632
  172SOPE     N19410   5.709   3.208   6.669  0.0649 -0.3291 -0.1672
  172SOPE   HN119411   5.621   3.160   6.699 -0.1311 -0.0364 -0.2616
  172SOPE   HN219412   5.788   3.179   6.730 -2.2443 -4.0269  1.2024
  172SOPE   HN319413   5.700   3.310   6.687 -0.5073  0.0219 -2.3357
  172SOPE   C1219414   5.731   3.192   6.525  0.8051 -0.2907 -0.3937
  172SOPE  H12A19415   5.653   3.249   6.472  1.6625  1.8512  0.5652
  172SOPE  H12B19416   5.715   3.085   6.501 -1.3900  0.1075 -0.7879
  172SOPE   C1119417   5.871   3.232   6.477 -0.1189  0.5731  0.5218
  172SOPE  H11A19418   5.885   3.342   6.479  1.4484  0.4067 -0.2585
  172SOPE  H11B19419   5.887   3.198   6.372 -1.3978  1.2358  0.1154
  172SOPE     P19420   6.117   3.174   6.569  0.1519 -0.1273 -0.4602
  172SOPE   O1319421   6.146   3.279   6.474 -0.1158  0.6092 -0.1477
  172SOPE   O1419422   6.188   3.049   6.561  0.3370  0.3909 -0.0999
  172SOPE   O1219423   5.960   3.159   6.566  0.0179  0.0184  0.3274
  172SOPE   O1119424   6.148   3.234   6.711  0.1634  0.1779  0.5607
  172SOPE    C119425   6.082   3.351   6.760 -0.0869  0.6574 -0.5170
  172SOPE    HA19426   5.973   3.355   6.737 -0.6040  1.1798  1.8189
  172SOPE    HB19427   6.134   3.441   6.723  1.0520  0.3741  0.3698
  172SOPE    C219428   6.077   3.368   6.916 -0.1969  0.6471  0.4792
  172SOPE    HS19429   6.182   3.396   6.941 -0.3018  2.0915 -0.6323
  172SOPE   O2119430   6.052   3.239   6.990 -0.5686  0.2747 -0.4289
  172SOPE   C2119431   5.965   3.157   6.946  0.2084 -0.4982 -0.0231
  172SOPE   O2219432   5.884   3.169   6.853  0.1997 -0.1704  0.5772
  172SOPE   C2219433   5.985   3.030   7.032 -0.1766  0.0112 -0.0690
  172SOPE   H2R19434   6.058   3.051   7.112  0.9003  1.7992 -1.4652
  172SOPE   H2S19435   6.039   2.953   6.973  0.7323  0.8422 -0.3414
  172SOPE    C319436   5.975   3.478   6.961  0.6011 -0.5154 -0.2990
  172SOPE    HX19437   5.872   3.442   6.937  0.7046 -0.6899 -0.4799
  172SOPE    HY19438   5.992   3.575   6.909 -2.2766 -1.3056 -2.9235
  172SOPE   O3119439   5.993   3.497   7.104  0.3952 -0.3107  0.2814
  172SOPE   C3119440   5.913   3.426   7.189  0.2354  0.3833 -0.0301
  172SOPE   O3219441   5.824   3.352   7.159  0.0984  0.8441 -0.7641
  172SOPE   C3219442   5.951   3.449   7.342 -0.1115  0.2520 -0.2386
  172SOPE   H2X19443   5.975   3.554   7.371 -2.5991  0.6114  0.6873
  172SOPE   H2Y19444   6.040   3.385   7.360 -1.4776 -2.1384 -1.7313
  172SOPE   C2319445   5.856   2.971   7.081  0.7132  0.3792  0.4766
  172SOPE   H3R19446   5.879   2.875   7.133  2.5419  0.6242  0.1572
  172SOPE   H3S19447   5.782   2.953   7.001  1.2425 -0.1665  0.1019
  172SOPE   C2419448   5.780   3.060   7.189  0.6039 -0.1080  0.0360
  172SOPE   H4R19449   5.845   3.088   7.274  0.6862  0.8829 -0.3509
  172SOPE   H4S19450   5.738   3.146   7.134  2.3903  0.3007 -0.7433
  172SOPE   C2519451   5.671   2.985   7.270 -0.4167  0.0929  0.1293
  172SOPE   H5R19452   5.590   3.048   7.313  1.2699  2.4786 -0.1313
  172SOPE   H5S19453   5.613   2.921   7.200 -1.8404 -0.8596  2.1056
  172SOPE   C2619454   5.721   2.886   7.377 -0.3523  0.1281 -0.5034
  172SOPE   H6R19455   5.671   2.787   7.378  0.5255 -0.3202  0.9581
  172SOPE   H6S19456   5.827   2.863   7.352 -0.5428 -1.4734  0.1079
  172SOPE   C2719457   5.722   2.950   7.516 -0.4454  0.2447  0.9535
  172SOPE   H7R19458   5.751   2.871   7.589  0.3937 -0.3823 -0.0569
  172SOPE   H7S19459   5.793   3.035   7.517  0.6972 -0.6583 -0.3676
  172SOPE   C2819460   5.585   3.014   7.573 -0.0258  0.3896 -0.4546
  172SOPE   H8R19461   5.629   3.072   7.656  1.7420  0.4576 -1.4118
  172SOPE   H8S19462   5.539   3.088   7.504  1.2395  1.4801 -0.1343
  172SOPE   C2919463   5.481   2.919   7.625 -1.0280 -0.1270 -0.3889
  172SOPE   H9119464   5.408   2.903   7.545  0.0486  1.0710 -1.6254
  172SOPE  C21019465   5.467   2.865   7.743  0.3723  0.0406  0.5114
  172SOPE  H10119466   5.380   2.799   7.761 -1.9138  2.2581 -1.8849
  172SOPE  C21119467   5.547   2.883   7.871  0.1298  0.0763 -0.0242
  172SOPE  H11R19468   5.641   2.942   7.861 -1.7290  3.1214 -0.0692
  172SOPE  H11S19469   5.583   2.788   7.917  0.2820  0.3779  0.4889
  172SOPE  C21219470   5.465   2.966   7.974 -0.3474 -0.5078  0.1843
  172SOPE  H12R19471   5.415   3.053   7.925 -0.6313 -0.5933  0.3238
  172SOPE  H12S19472   5.533   3.001   8.054  3.0652 -2.0098 -1.9320
  172SOPE  C21319473   5.357   2.883   8.045  0.4095 -0.3068  0.3868
  172SOPE  H13R19474   5.384   2.777   8.062 -1.4624 -0.8539  0.0812
  172SOPE  H13S19475   5.268   2.883   7.979  1.9215  1.5622 -1.7257
  172SOPE  C21419476   5.307   2.942   8.179 -0.3388  0.2505  0.1396
  172SOPE  H14R19477   5.401   2.984   8.221 -0.0776 -0.0725 -0.1201
  172SOPE  H14S19478   5.268   2.860   8.243 -0.9574  0.7670  0.4342
  172SOPE  C21519479   5.205   3.049   8.146  0.6140 -0.5893  0.0602
  172SOPE  H15R19480   5.125   2.996   8.089  0.5313  1.3678 -1.6936
  172SOPE  H15S19481   5.264   3.113   8.077 -2.2452  0.5267 -1.4554
  172SOPE  C21619482   5.165   3.130   8.267 -0.0522  0.1147  0.2141
  172SOPE  H16R19483   5.256   3.181   8.304 -0.4614  0.4322  0.8006
  172SOPE  H16S19484   5.121   3.069   8.349  0.2646  0.1197  0.3875
  172SOPE  C21719485   5.055   3.229   8.236 -0.0707 -0.6711 -0.6025
  172SOPE  H17R19486   4.957   3.185   8.206 -1.5292  1.6369  0.6176
  172SOPE  H17S19487   5.087   3.300   8.158 -1.2840 -0.9779 -1.3991
  172SOPE  C21819488   5.010   3.304   8.363 -0.0978 -0.6885 -0.2058
  172SOPE  H18R19489   5.085   3.375   8.401 -1.4859  0.3418  0.6577
  172SOPE  H18S19490   4.963   3.234   8.435 -1.9447  1.2128  0.5070
  172SOPE  H18T19491   4.922   3.370   8.343  0.5052  0.0004 -0.6121
  172SOPE   C3319492   5.833   3.405   7.434 -0.6391  0.6310 -0.6955
  172SOPE   H3X19493   5.806   3.299   7.412 -1.3096  0.9359 -1.3672
  172SOPE   H3Y19494   5.740   3.457   7.404 -1.8982 -0.5248  1.0738
  172SOPE   C3419495   5.871   3.417   7.587  0.3421 -0.0130  0.9691
  172SOPE   H4X19496   5.866   3.525   7.613 -0.6004 -0.4701  2.7602
  172SOPE   H4Y19497   5.976   3.390   7.610  0.1090  0.6656  2.9380
  172SOPE   C3519498   5.774   3.338   7.670  0.1034  0.3094 -0.2277
  172SOPE   H5X19499   5.804   3.231   7.661 -1.6991 -0.2110 -0.3373
  172SOPE   H5Y19500   5.671   3.345   7.629 -0.0770 -0.7222  0.0243
  172SOPE   C3619501   5.784   3.380   7.821 -0.1115  0.8125  0.1766
  172SOPE   H6X19502   5.742   3.483   7.831 -0.3995  0.7992 -0.8787
  172SOPE   H6Y19503   5.893   3.393   7.837  0.2220 -0.7489 -0.7323
  172SOPE   C3719504   5.736   3.268   7.919 -0.0881  0.0002  0.3036
  172SOPE   H7X19505   5.792   3.177   7.888  0.2986  0.2305  0.3252
  172SOPE   H7Y19506   5.631   3.245   7.894 -0.1397 -0.2486  0.7314
  172SOPE   C3819507   5.757   3.307   8.067 -0.3328 -0.1081  0.0773
  172SOPE   H8X19508   5.860   3.344   8.086  0.8876 -0.9627 -4.3599
  172SOPE   H8Y19509   5.759   3.214   8.129  1.0679 -1.6681 -2.2304
  172SOPE   C3919510   5.659   3.414   8.126  0.3935  0.7514  0.0743
  172SOPE   H9X19511   5.558   3.372   8.107  1.4257 -0.5703 -2.8725
  172SOPE   H9Y19512   5.668   3.514   8.080 -2.1411  0.8751 -0.2488
  172SOPE  C31019513   5.685   3.435   8.277  0.2221 -0.4950  0.3389
  172SOPE  H10X19514   5.788   3.476   8.288 -0.3406  0.6542  1.4126
  172SOPE  H10Y19515   5.694   3.339   8.332  0.5354 -2.1533 -2.4965
  172SOPE  C31119516   5.590   3.542   8.338 -0.5397 -0.1927 -0.3730
  172SOPE  H11X19517   5.593   3.629   8.268  1.2299 -0.4045 -0.5710
  172SOPE  H11Y19518   5.625   3.584   8.434  1.3615 -1.2604 -0.5813
  172SOPE  C31219519   5.436   3.496   8.341 -0.0877 -0.4086 -0.3852
  172SOPE  H12X19520   5.418   3.430   8.429 -1.5033 -1.7433 -1.6527
  172SOPE  H12Y19521   5.417   3.426   8.256 -3.9323 -2.0506  1.6816
  172SOPE  C31319522   5.341   3.616   8.332 -0.2393  0.3185 -0.1120
  172SOPE  H13X19523   5.241   3.575   8.307  0.3670 -1.8649  0.8785
  172SOPE  H13Y19524   5.380   3.684   8.253  0.1135 -0.4510 -0.6158
  172SOPE  C31419525   5.330   3.690   8.465 -0.8435 -0.5910 -0.0678
  172SOPE  H14X19526   5.395   3.780   8.469 -0.3603 -0.8538 -1.6412
  172SOPE  H14Y19527   5.357   3.627   8.552 -0.4262 -0.6585 -0.2492
  172SOPE  C31519528   5.182   3.729   8.495 -0.1279  0.4153  0.4265
  172SOPE  H15X19529   5.118   3.639   8.490  1.7599 -0.8796 -1.0212
  172SOPE  H15Y19530   5.155   3.789   8.406 -0.0720  1.5003  1.1205
  172SOPE  C31619531   5.170   3.803   8.627 -0.0283 -0.2150 -0.5571
  172SOPE  H16X19532   5.231   3.896   8.632 -0.1241 -0.1858  0.0955
  172SOPE  H16Y19533   5.217   3.752   8.715 -1.5992  0.3833  0.6576
  172SOPE  C31719534   5.029   3.846   8.665 -0.2741 -0.7156  0.4234
  172SOPE  H17X19535   5.037   3.907   8.757 -1.4327 -0.1182  0.1357
  172SOPE  H17Y19536   4.963   3.762   8.697 -0.4806 -0.3690  0.9120
  172SOPE  C31819537   4.962   3.937   8.565 -1.5061  0.7478  0.3681
  172SOPE  H18X19538   5.001   4.041   8.571  2.1648 -0.3527 -2.9793
  172SOPE  H18Y19539   4.851   3.933   8.574 -1.3833 -0.5310  1.5133
  172SOPE  H18Z19540   4.987   3.907   8.461 -2.0940  0.5479  0.2819
  173SAPI   C1219541   6.737   6.560  10.600 -0.2692 -0.2695  0.2389
  173SAPI    H219542   6.793   6.576  10.506  0.9272  2.8690  1.4223
  173SAPI    O219543   6.613   6.617  10.578 -0.1136 -0.1076 -0.3867
  173SAPI   HO219544   6.630   6.711  10.570  1.2373 -0.4165 -1.2551
  173SAPI   C1319545   6.718   6.417  10.637  0.1561  0.2947  0.1092
  173SAPI    H319546   6.821   6.379  10.654  0.2669  0.4649 -0.1747
  173SAPI    O319547   6.649   6.349  10.539 -0.1101 -0.0502 -0.6557
  173SAPI   HO319548   6.577   6.410  10.521  0.1413 -0.0025 -1.5448
  173SAPI   C1419549   6.656   6.396  10.782 -0.0786 -0.0117 -0.3058
  173SAPI    H419550   6.556   6.445  10.778 -0.3461 -0.5349  0.0012
  173SAPI    O419551   6.624   6.264  10.820 -0.3781  0.5816 -0.7371
  173SAPI   HO419552   6.537   6.265  10.860 -0.4292  0.6047 -0.8490
  173SAPI   C1519553   6.734   6.469  10.884  0.3259 -0.4114  0.2263
  173SAPI    H519554   6.829   6.412  10.895  0.3844 -0.0339  1.7541
  173SAPI    O519555   6.668   6.465  11.011 -0.3979  0.7401 -0.0486
  173SAPI   HO519556   6.590   6.520  11.008 -0.2782  1.0060  1.5704
  173SAPI   C1619557   6.758   6.623  10.845 -0.0887 -0.5529 -0.5613
  173SAPI    H619558   6.656   6.667  10.846  0.2882  0.4873  3.5118
  173SAPI    O619559   6.821   6.695  10.946  0.2653  0.2516 -0.1510
  173SAPI   HO619560   6.902   6.721  10.901 -0.9506  0.5131 -2.2124
  173SAPI   C1119561   6.815   6.636  10.711 -0.0179 -0.3738 -0.1592
  173SAPI    H119562   6.916   6.589  10.714 -0.2632 -0.9656 -1.1428
  173SAPI     P19563   6.948   6.861  10.710  0.5131 -0.4546 -0.4696
  173SAPI   O1319564   7.015   6.805  10.830 -0.3330 -0.3677  0.7579
  173SAPI   O1419565   6.900   6.997  10.721  1.0327  0.5350  0.4097
  173SAPI   O1219566   6.816   6.769  10.678  0.1288  0.1764 -0.0817
  173SAPI   O1119567   7.044   6.854  10.587 -0.1087 -0.1158  0.1536
  173SAPI    C119568   7.021   6.950  10.485 -0.5882  0.0567 -0.6795
  173SAPI    HA19569   6.912   6.966  10.466 -0.8783 -1.6858 -0.5617
  173SAPI    HB19570   7.070   7.045  10.516  0.1941 -0.7447  0.5830
  173SAPI    C219571   7.068   6.898  10.349 -0.7459  0.0862  0.6216
  173SAPI    HS19572   7.177   6.882  10.359 -1.1713 -2.4086  1.6874
  173SAPI   O2119573   7.035   6.987  10.244  0.5900 -0.6697  0.5377
  173SAPI   C2119574   7.107   7.101  10.241 -0.1540 -0.5795 -0.9382
  173SAPI   O2219575   7.208   7.115  10.309 -0.3580  0.2934 -0.3907
  173SAPI   C2219576   7.061   7.190  10.135 -0.0478 -0.8964 -0.0531
  173SAPI   H2R19577   6.994   7.143  10.060 -0.4026  1.3816 -1.2044
  173SAPI   H2S19578   7.004   7.270  10.188  0.4897 -0.9867  0.6699
  173SAPI    C319579   7.015   6.757  10.306  0.3794 -0.1945  0.2652
  173SAPI    HX19580   6.914   6.755  10.351 -0.0887  0.5251 -0.7310
  173SAPI    HY19581   7.073   6.678  10.358  3.7258  2.0371  0.0476
  173SAPI   O3119582   7.012   6.738  10.163 -0.5637  0.2491  0.6719
  173SAPI   C3119583   7.125   6.714  10.099 -1.0996 -0.6640  0.4017
  173SAPI   O3219584   7.230   6.683  10.156  0.3819  0.0425  0.7930
  173SAPI   C3219585   7.098   6.743   9.954  0.3968 -0.0164  0.3100
  173SAPI   H2X19586   7.026   6.825   9.937  0.5736  0.8104  3.2012
  173SAPI   H2Y19587   7.058   6.645   9.919 -0.7345  0.9737 -1.1939
  173SAPI   C2319588   7.175   7.271  10.065 -0.1243  0.5284 -0.3749
  173SAPI   H3R19589   7.242   7.315  10.142 -0.4565 -0.4629  0.4898
  173SAPI   H3S19590   7.125   7.357  10.015 -1.7247 -0.5334 -0.6419
  173SAPI   C2419591   7.266   7.184   9.969  0.5772 -0.0816  0.0732
  173SAPI   H4R19592   7.330   7.110  10.023  1.8819 -0.5623 -2.0388
  173SAPI   H4S19593   7.332   7.256   9.917 -3.2399  1.5663 -2.7037
  173SAPI   C2519594   7.187   7.116   9.864 -0.3815 -0.2900  0.7189
  173SAPI   H5R19595   7.122   7.035   9.901 -1.0832  0.1049  0.3572
  173SAPI   C2619596   7.195   7.141   9.729  0.5994 -0.5015  0.5581
  173SAPI   H6R19597   7.131   7.091   9.655  0.1539 -1.6077  1.6665
  173SAPI   C2719598   7.279   7.248   9.667 -0.3362  0.3581  0.1220
  173SAPI   H7R19599   7.281   7.339   9.731 -0.7841 -1.2105  2.4484
  173SAPI   H7S19600   7.226   7.294   9.581  0.5615  1.7099  0.2759
  173SAPI   C2819601   7.427   7.216   9.623 -0.4055 -0.1199 -1.0207
  173SAPI   H8R19602   7.454   7.109   9.617 -0.2399 -0.1504  0.1285
  173SAPI   C2919603   7.516   7.316   9.599  0.3901 -0.6114  0.8019
  173SAPI   H9R19604   7.622   7.296   9.577  0.8058  0.5482  1.7483
  173SAPI  C21019605   7.471   7.460   9.609 -0.8586 -0.5129 -0.5247
  173SAPI  H10R19606   7.450   7.495   9.712  1.0788 -2.3007  0.5153
  173SAPI  H10S19607   7.374   7.467   9.555  0.2463  0.6930 -2.4223
  173SAPI  C21119608   7.561   7.562   9.543  0.3625  0.2590  0.4566
  173SAPI  H11R19609   7.631   7.607   9.615 -1.5398  0.3419  2.3102
  173SAPI  C21219610   7.562   7.604   9.417 -0.7896  0.2331  0.2892
  173SAPI  H12R19611   7.640   7.674   9.382 -0.0560 -0.4891  0.4772
  173SAPI  C21319612   7.475   7.556   9.309  0.0495 -0.4975 -0.4115
  173SAPI  H13R19613   7.426   7.645   9.265  1.3158  0.0260 -0.7828
  173SAPI  H13S19614   7.391   7.489   9.335  1.1939 -1.9178 -0.2727
  173SAPI  C21419615   7.547   7.477   9.208  0.1296 -0.0063 -0.2831
  173SAPI  H14R19616   7.585   7.378   9.236  1.9429  0.2203 -1.8009
  173SAPI  C21519617   7.571   7.514   9.079  0.4827 -0.5714 -0.1307
  173SAPI  H15R19618   7.632   7.445   9.019  3.3987  1.0139  0.8956
  173SAPI  C21619619   7.530   7.641   9.007  0.4930  0.3353  0.9588
  173SAPI  H16R19620   7.625   7.696   8.987  0.5884 -0.1313  0.0735
  173SAPI  H16S19621   7.452   7.702   9.057  0.1194  1.0966 -0.5054
  173SAPI  C21719622   7.484   7.601   8.862 -0.2322 -0.5403  0.2202
  173SAPI  H17R19623   7.560   7.547   8.803 -1.6480 -0.8857 -1.3247
  173SAPI  H17S19624   7.460   7.694   8.805 -2.7208 -1.3670 -0.1291
  173SAPI  C21819625   7.355   7.513   8.867 -0.5605 -0.0574  0.1461
  173SAPI  H18R19626   7.265   7.571   8.894 -0.7632 -0.1370 -0.3480
  173SAPI  H18S19627   7.366   7.437   8.948  1.4786  0.8433  0.7321
  173SAPI  C21919628   7.332   7.446   8.729 -0.4382  0.2267  0.6054
  173SAPI  H19R19629   7.409   7.376   8.692 -0.6618 -0.2483  1.0426
  173SAPI  H19S19630   7.324   7.523   8.650  1.6980 -2.5641 -2.4424
  173SAPI  C22019631   7.202   7.360   8.734 -0.3193 -0.3413 -0.1277
  173SAPI  H20R19632   7.125   7.390   8.810  1.6972  1.7933  1.1633
  173SAPI  H20S19633   7.244   7.262   8.763 -0.7439 -0.4178  0.2531
  173SAPI  H20T19634   7.158   7.352   8.633 -0.6127 -0.6356  0.0213
  173SAPI   C3319635   7.233   6.772   9.872  0.6129  0.5412 -0.3032
  173SAPI   H3X19636   7.313   6.696   9.885  1.3234  1.2266 -0.6051
  173SAPI   H3Y19637   7.283   6.860   9.917  1.3597  0.4278 -0.8966
  173SAPI   C3419638   7.210   6.792   9.720  0.0200 -0.0624  0.6184
  173SAPI   H4X19639   7.303   6.837   9.678 -0.3637  2.0862  2.0269
  173SAPI   H4Y19640   7.125   6.864   9.717  0.4056  0.4270  1.4291
  173SAPI   C3519641   7.190   6.666   9.637  0.8491 -0.8462 -0.0198
  173SAPI   H5X19642   7.114   6.675   9.557  1.4633  1.4933 -0.3700
  173SAPI   H5Y19643   7.149   6.591   9.709  3.3995 -1.1288  1.2326
  173SAPI   C3619644   7.318   6.626   9.558 -0.8345  0.2670  0.3756
  173SAPI   H6X19645   7.401   6.627   9.631  1.3726  1.2329 -2.0511
  173SAPI   H6Y19646   7.340   6.693   9.472  0.4497 -0.9909 -0.3063
  173SAPI   C3719647   7.312   6.477   9.508 -0.7084  0.5806 -0.2696
  173SAPI   H7X19648   7.228   6.456   9.438  0.3538  2.8536 -2.3259
  173SAPI   H7Y19649   7.290   6.415   9.597  0.3940 -2.3349 -1.9331
  173SAPI   C3819650   7.449   6.427   9.453 -0.5769 -0.2564  0.1423
  173SAPI   H8X19651   7.520   6.400   9.534  0.0875  0.0953 -0.3198
  173SAPI   H8Y19652   7.491   6.513   9.397  0.2135  0.2453  1.4586
  173SAPI   C3919653   7.455   6.309   9.351 -0.3931  0.1932 -0.1894
  173SAPI   H9X19654   7.412   6.341   9.254 -0.0560 -0.5134 -0.5727
  173SAPI   H9Y19655   7.397   6.223   9.391 -2.8147  1.2438 -1.3197
  173SAPI  C31019656   7.594   6.265   9.322  0.3525 -0.0771 -0.2317
  173SAPI  H10X19657   7.636   6.231   9.420 -2.4505 -2.0864  0.3293
  173SAPI  H10Y19658   7.651   6.356   9.296 -1.0461  1.0773  0.6973
  173SAPI  C31119659   7.622   6.154   9.228 -0.0999  0.6155 -0.2560
  173SAPI  H11X19660   7.533   6.150   9.161 -0.6706  0.4455  0.5097
  173SAPI  H11Y19661   7.629   6.066   9.295  0.5633  2.4425  2.1387
  173SAPI  C31219662   7.748   6.160   9.151 -0.3178 -0.2261  0.4313
  173SAPI  H12X19663   7.831   6.171   9.224  1.4613  3.6713 -2.0487
  173SAPI  H12Y19664   7.753   6.253   9.090 -0.2904 -0.9769 -0.7233
  173SAPI  C31319665   7.774   6.028   9.082 -0.8246  0.7395  0.0556
  173SAPI  H13X19666   7.777   5.951   9.161  1.1849  0.5451 -0.1626
  173SAPI  H13Y19667   7.870   6.040   9.027 -0.7850 -0.3023 -0.1149
  173SAPI  C31419668   7.666   5.993   8.989 -0.5590 -0.1136 -0.1417
  173SAPI  H14X19669   7.680   6.073   8.913 -0.1838  0.3695  0.4354
  173SAPI  H14Y19670   7.566   5.998   9.035 -0.3038 -2.7489  0.7955
  173SAPI  C31519671   7.693   5.854   8.929  0.2354  0.5777 -0.1966
  173SAPI  H15X19672   7.691   5.786   9.017 -0.7702 -0.7639 -1.2322
  173SAPI  H15Y19673   7.787   5.827   8.878 -0.5349 -0.0934 -1.2697
  173SAPI  C31619674   7.578   5.822   8.842  0.5361  0.3677 -0.5040
  173SAPI  H16X19675   7.482   5.814   8.896  0.7804 -1.3959 -0.3014
  173SAPI  H16Y19676   7.595   5.715   8.816 -0.9970 -0.2715  1.0383
  173SAPI  C31719677   7.561   5.923   8.720 -1.4065  0.4709  0.0390
  173SAPI  H17X19678   7.663   5.942   8.680  0.4457  2.4210  5.2130
  173SAPI  H17Y19679   7.538   6.026   8.754  1.6089  0.7613  1.4150
  173SAPI  C31819680   7.468   5.886   8.612  0.6877  1.1255  0.1715
  173SAPI  H18X19681   7.498   5.947   8.524  1.9580  1.9360  1.1479
  173SAPI  H18Y19682   7.359   5.888   8.636  0.6390 -1.8363  0.3511
  173SAPI  H18Z19683   7.491   5.780   8.586 -1.5525  0.4579  0.7794
  174SAPI   C1219684   3.849   1.233  10.701  0.1766  0.7523  0.5291
  174SAPI    H219685   3.830   1.248  10.592  0.7310  0.0944  0.3416
  174SAPI    O219686   3.963   1.155  10.721 -0.2037 -0.2590  0.4845
  174SAPI   HO219687   3.944   1.063  10.699  1.2884 -0.3062 -0.6972
  174SAPI   C1319688   3.874   1.372  10.748  0.4691  0.9765  0.3023
  174SAPI    H319689   3.790   1.441  10.722 -0.0217 -1.1963 -4.4349
  174SAPI    O319690   3.993   1.434  10.692  0.0302  0.1175  0.2483
  174SAPI   HO319691   4.067   1.374  10.701 -0.2368 -0.0312  1.4970
  174SAPI   C1419692   3.879   1.374  10.898 -0.0538  0.2787  0.3512
  174SAPI    H419693   3.967   1.316  10.931  0.9601  0.2895 -2.2842
  174SAPI    O419694   3.899   1.507  10.931  0.3050 -0.2999 -0.4224
  174SAPI   HO419695   3.960   1.549  10.870 -0.3753  0.0432 -0.8619
  174SAPI   C1519696   3.767   1.308  10.971  0.0071 -0.4358 -0.4800
  174SAPI    H519697   3.670   1.360  10.958  0.1484 -0.4260 -1.5305
  174SAPI    O519698   3.789   1.313  11.114  0.0413  0.0204  0.2340
  174SAPI   HO519699   3.864   1.255  11.127 -1.0996 -1.0569  2.3051
  174SAPI   C1619700   3.742   1.167  10.921 -0.6930  0.1541  0.8401
  174SAPI    H619701   3.829   1.100  10.940  0.5660  1.1206 -1.2708
  174SAPI    O619702   3.625   1.111  10.978 -0.2155  0.1708 -0.3207
  174SAPI   HO619703   3.565   1.085  10.907 -0.9793 -1.1603  0.8049
  174SAPI   C1119704   3.724   1.177  10.768 -0.2920  0.2514  0.7522
  174SAPI    H119705   3.637   1.243  10.744 -1.6641 -1.1537  1.7397
  174SAPI     P19706   3.552   0.993  10.675 -0.0277  0.2055 -0.0139
  174SAPI   O1319707   3.463   1.029  10.784  0.2624 -0.4870  0.1890
  174SAPI   O1419708   3.562   0.850  10.641 -0.0116 -0.5483 -0.4296
  174SAPI   O1219709   3.703   1.046  10.715 -0.3843  0.4774 -0.4231
  174SAPI   O1119710   3.516   1.080  10.548  0.3473  0.0632  0.1231
  174SAPI    C119711   3.532   1.011  10.419  0.2339  1.0841  0.1390
  174SAPI    HA19712   3.633   0.966  10.412 -0.4543 -0.1932 -1.8320
  174SAPI    HB19713   3.454   0.934  10.404 -0.3305  2.0185 -1.9019
  174SAPI    C219714   3.539   1.105  10.292  0.3309 -0.1530  0.0240
  174SAPI    HS19715   3.447   1.167  10.286  1.4394  1.3869 -1.9581
  174SAPI   O2119716   3.566   1.027  10.176 -0.0700  0.6997 -0.2539
  174SAPI   C2119717   3.531   1.078  10.057 -0.2163  0.0052  0.6603
  174SAPI   O2219718   3.445   1.164  10.043 -0.4440  0.6602 -0.1104
  174SAPI   C2219719   3.618   1.019   9.956  0.2009  0.3548 -0.3123
  174SAPI   H2R19720   3.719   1.003   9.998 -0.7149 -2.0027  1.1009
  174SAPI   H2S19721   3.586   0.918   9.921  1.5065 -0.0160 -0.4598
  174SAPI    C319722   3.646   1.215  10.312  0.0829 -0.0801 -0.3873
  174SAPI    HX19723   3.741   1.163  10.334 -0.3670 -0.8498 -0.2488
  174SAPI    HY19724   3.629   1.273  10.405  0.9684  0.6145 -0.6484
  174SAPI   O3119725   3.667   1.303  10.198 -0.5008 -0.2200  0.6520
  174SAPI   C3119726   3.604   1.420  10.189  0.2563  0.0875 -0.4214
  174SAPI   O3219727   3.538   1.475  10.271  0.8153 -0.6490  0.7114
  174SAPI   C3219728   3.632   1.474  10.055  0.0711 -0.4706  0.6304
  174SAPI   H2X19729   3.589   1.411   9.974 -0.3675 -0.3278  0.7511
  174SAPI   H2Y19730   3.740   1.482  10.031 -0.4636  0.2304 -1.6596
  174SAPI   C2319731   3.624   1.095   9.824 -0.1286  0.1279 -0.4147
  174SAPI   H3R19732   3.656   1.197   9.853 -0.5382 -0.2084  1.2817
  174SAPI   H3S19733   3.522   1.088   9.779 -0.4020 -1.6999  0.4090
  174SAPI   C2419734   3.732   1.038   9.727  0.0620  0.4743  0.0804
  174SAPI   H4R19735   3.696   0.936   9.707 -2.6807  0.9730  2.2399
  174SAPI   H4S19736   3.828   1.019   9.780 -0.2871 -0.4530  0.3908
  174SAPI   C2519737   3.758   1.130   9.610  0.8676 -0.1112  0.1425
  174SAPI   H5R19738   3.814   1.223   9.631  0.1510  0.6883 -1.4738
  174SAPI   C2619739   3.697   1.127   9.492  0.6504 -0.5452  0.2402
  174SAPI   H6R19740   3.727   1.197   9.413 -0.5094 -0.5975 -0.2668
  174SAPI   C2719741   3.602   1.017   9.442  0.2034 -0.3059 -1.1703
  174SAPI   H7R19742   3.551   0.967   9.527  2.2863 -0.0026  0.3028
  174SAPI   H7S19743   3.666   0.946   9.386  2.0178  0.6865 -0.4142
  174SAPI   C2819744   3.497   1.070   9.342  0.8527  0.4768 -0.5193
  174SAPI   H8R19745   3.429   1.139   9.393 -0.2015 -2.0715  1.6498
  174SAPI   C2919746   3.488   1.042   9.210 -0.3795  0.0796 -0.1191
  174SAPI   H9R19747   3.404   1.077   9.147 -0.2451 -0.0564 -0.3725
  174SAPI  C21019748   3.579   0.947   9.138 -0.5199 -0.8951 -0.0011
  174SAPI  H10R19749   3.681   0.958   9.182  1.1862 -2.1056 -3.4232
  174SAPI  H10S19750   3.585   0.974   9.030  2.8316 -1.8351 -0.1228
  174SAPI  C21119751   3.526   0.805   9.157 -0.3388 -0.4240  0.2159
  174SAPI  H11R19752   3.523   0.762   9.258 -1.1403  0.0787  0.4146
  174SAPI  C21219753   3.475   0.729   9.059 -0.2619 -0.7047  0.2121
  174SAPI  H12R19754   3.444   0.627   9.086 -1.3972  0.1535  2.3412
  174SAPI  C21319755   3.470   0.750   8.911 -0.4657 -0.2124  0.0033
  174SAPI  H13R19756   3.540   0.675   8.867 -0.8809  0.2556 -1.4686
  174SAPI  H13S19757   3.524   0.843   8.883  1.0132 -0.8857  0.5084
  174SAPI  C21419758   3.333   0.726   8.875  0.3708 -0.0615 -0.7241
  174SAPI  H14R19759   3.266   0.682   8.951  1.4860  0.4434  0.5630
  174SAPI  C21519760   3.286   0.747   8.750  0.6117 -0.1603  0.3246
  174SAPI  H15R19761   3.177   0.739   8.742  0.5715 -0.7342  1.2817
  174SAPI  C21619762   3.359   0.800   8.629 -0.1649 -0.6889  0.1914
  174SAPI  H16R19763   3.326   0.734   8.546  1.7524  0.1933 -1.3087
  174SAPI  H16S19764   3.468   0.785   8.642 -0.1098 -1.4634 -1.0999
  174SAPI  C21719765   3.321   0.949   8.595 -0.0360 -0.4182  0.5333
  174SAPI  H17R19766   3.211   0.953   8.579 -0.0668  2.8111  1.2325
  174SAPI  H17S19767   3.368   0.981   8.500  0.8034  0.7002  1.3205
  174SAPI  C21819768   3.358   1.058   8.697  0.0444 -0.1980  0.3611
  174SAPI  H18R19769   3.464   1.041   8.726 -0.3672  1.2379  2.7758
  174SAPI  H18S19770   3.296   1.042   8.787 -0.9467 -0.0861 -0.2892
  174SAPI  C21919771   3.328   1.204   8.648 -0.5511  0.7131  0.2633
  174SAPI  H19R19772   3.220   1.229   8.646 -0.9117 -0.6162  1.9287
  174SAPI  H19S19773   3.357   1.199   8.541  0.4063  1.1654  0.4934
  174SAPI  C22019774   3.397   1.315   8.727  0.5475  0.7711  0.5164
  174SAPI  H20R19775   3.387   1.410   8.671 -1.3185  0.7911  0.8791
  174SAPI  H20S19776   3.501   1.277   8.740  0.8104  1.5909  0.8388
  174SAPI  H20T19777   3.344   1.336   8.823  0.1070 -1.6989  0.8310
  174SAPI   C3319778   3.581   1.625  10.027 -0.6521  0.4119  0.3605
  174SAPI   H3X19779   3.625   1.697  10.099  1.4780  0.6177 -1.0975
  174SAPI   H3Y19780   3.470   1.631  10.027 -0.6138  1.7890 -1.8585
  174SAPI   C3419781   3.603   1.681   9.883 -0.6984  0.1548  0.4938
  174SAPI   H4X19782   3.712   1.673   9.861 -1.4796 -2.6308 -2.8210
  174SAPI   H4Y19783   3.569   1.787   9.881 -1.6506 -0.1663 -0.4909
  174SAPI   C3519784   3.528   1.596   9.779 -0.3099 -0.0253 -0.3706
  174SAPI   H5X19785   3.420   1.581   9.804 -1.2091  0.9601 -3.4432
  174SAPI   H5Y19786   3.578   1.497   9.776  0.9112  0.5027  1.3848
  174SAPI   C3619787   3.554   1.662   9.642 -0.1789  0.1998 -0.3356
  174SAPI   H6X19788   3.663   1.645   9.626 -0.5773 -0.8298 -2.0865
  174SAPI   H6Y19789   3.543   1.772   9.639  0.8094  0.3399  0.7154
  174SAPI   C3719790   3.468   1.594   9.536 -0.3444 -0.0967  0.3218
  174SAPI   H7X19791   3.368   1.641   9.525 -0.1260  0.6080  1.2454
  174SAPI   H7Y19792   3.462   1.489   9.572  1.9324 -0.5073 -0.3664
  174SAPI   C3819793   3.518   1.582   9.395 -0.7792  0.1645  0.6594
  174SAPI   H8X19794   3.548   1.680   9.354 -1.7204 -0.4799 -1.6456
  174SAPI   H8Y19795   3.428   1.548   9.338 -0.9954  0.4062  0.8546
  174SAPI   C3919796   3.622   1.473   9.362 -0.1208  0.0260  0.5156
  174SAPI   H9X19797   3.590   1.376   9.403 -0.3006  0.5884  1.7148
  174SAPI   H9Y19798   3.707   1.503   9.428  0.8075 -3.9194  1.2080
  174SAPI  C31019799   3.655   1.465   9.216  0.7477 -0.5378 -0.3619
  174SAPI  H10X19800   3.718   1.549   9.180 -1.3834  0.1739 -2.5589
  174SAPI  H10Y19801   3.566   1.479   9.152  1.3745  0.8036 -0.9575
  174SAPI  C31119802   3.744   1.339   9.183 -0.2467  0.4761 -0.8183
  174SAPI  H11X19803   3.691   1.247   9.215  0.1497  0.3014 -0.6589
  174SAPI  H11Y19804   3.835   1.347   9.246 -1.0430  0.8765  0.2971
  174SAPI  C31219805   3.790   1.326   9.036  0.2779 -0.0650  0.2072
  174SAPI  H12X19806   3.861   1.410   9.019  0.7265 -0.7907 -1.6392
  174SAPI  H12Y19807   3.703   1.328   8.967  0.5624  1.8320 -0.1395
  174SAPI  C31319808   3.845   1.184   9.009 -0.2684 -0.3545 -0.0285
  174SAPI  H13X19809   3.777   1.117   9.067 -0.2850  1.0361  1.6050
  174SAPI  H13Y19810   3.947   1.183   9.052 -1.0839 -0.5040  1.9719
  174SAPI  C31419811   3.843   1.155   8.856 -0.6795  0.1423 -0.0440
  174SAPI  H14X19812   3.740   1.190   8.836 -0.8154 -0.9234 -1.3124
  174SAPI  H14Y19813   3.853   1.048   8.829 -1.9965 -0.5006  1.9325
  174SAPI  C31519814   3.950   1.228   8.773 -0.0147 -0.0034 -0.7073
  174SAPI  H15X19815   4.040   1.165   8.758 -0.0790  0.2962 -2.3877
  174SAPI  H15Y19816   3.983   1.318   8.829  0.9787 -0.2174 -0.9338
  174SAPI  C31619817   3.897   1.275   8.638  0.0921 -0.0510  0.5036
  174SAPI  H16X19818   3.867   1.189   8.575 -4.0751  0.8497  1.1520
  174SAPI  H16Y19819   3.987   1.309   8.582 -0.6808 -2.2992 -2.1849
  174SAPI  C31719820   3.807   1.399   8.647 -0.4503  0.1983  0.7023
  174SAPI  H17X19821   3.867   1.475   8.702 -1.5363  0.4470  1.5473
  174SAPI  H17Y19822   3.722   1.368   8.711 -1.7512 -0.8396 -1.4858
  174SAPI  C31819823   3.758   1.442   8.508 -0.1219 -0.0567  0.0954
  174SAPI  H18X19824   3.695   1.533   8.512 -0.8875 -0.6682  2.7543
  174SAPI  H18Y19825   3.715   1.366   8.440 -1.2617  1.8482 -1.3534
  174SAPI  H18Z19826   3.847   1.484   8.457 -2.0227  2.1767 -1.4588
  175SAPI   C1219827   6.629   6.279   6.207 -0.7499  0.7202 -0.0605
  175SAPI    H219828   6.647   6.355   6.286  1.5227 -2.3219  2.5024
  175SAPI    O219829   6.495   6.251   6.227 -0.0975  0.4014  0.1409
  175SAPI   HO219830   6.495   6.171   6.281 -0.3151  1.1219  1.2218
  175SAPI   C1319831   6.634   6.341   6.068  0.0596 -0.1535 -0.5562
  175SAPI    H319832   6.741   6.366   6.050 -0.0026  0.2076 -0.4147
  175SAPI    O319833   6.563   6.465   6.067  0.2919 -0.5690  0.2503
  175SAPI   HO319834   6.482   6.440   6.111 -0.3307  1.7666  0.4723
  175SAPI   C1419835   6.580   6.253   5.961  0.3526 -0.4140 -0.7978
  175SAPI    H419836   6.473   6.236   5.988 -0.1638 -0.1665 -2.6416
  175SAPI    O419837   6.590   6.310   5.834 -0.4245 -0.1391 -0.3848
  175SAPI   HO419838   6.514   6.367   5.824  0.2659  0.5820 -1.7067
  175SAPI   C1519839   6.655   6.123   5.971 -0.6693  0.4123  0.0357
  175SAPI    H519840   6.760   6.138   5.938  0.7647 -0.7221  3.8845
  175SAPI    O519841   6.601   6.032   5.871 -0.2740 -0.1987 -0.1448
  175SAPI   HO519842   6.650   6.051   5.790 -1.3793  1.6246 -0.4187
  175SAPI   C1619843   6.671   6.050   6.106 -0.0180 -0.3577 -0.2149
  175SAPI    H619844   6.573   6.005   6.133  0.0704 -0.8630 -0.7167
  175SAPI    O619845   6.770   5.947   6.107  0.4573  0.0864  0.7660
  175SAPI   HO619846   6.850   5.991   6.136  1.4188 -0.5537 -0.8425
  175SAPI   C1119847   6.723   6.157   6.207  0.8137 -0.4793 -0.3009
  175SAPI    H119848   6.826   6.195   6.187  0.6090  1.1765  1.7073
  175SAPI     P19849   6.826   6.108   6.457 -0.1102 -0.0316 -0.2974
  175SAPI   O1319850   6.827   6.247   6.499 -0.7399  0.3053 -0.6528
  175SAPI   O1419851   6.954   6.054   6.404  0.6398  0.3093  0.2844
  175SAPI   O1219852   6.712   6.096   6.335 -0.0037 -0.9143  0.2112
  175SAPI   O1119853   6.786   6.006   6.573  0.2527  0.3000 -0.0065
  175SAPI    C119854   6.689   6.024   6.673  0.1232  0.3419 -0.3849
  175SAPI    HA19855   6.648   6.127   6.666 -3.2480 -1.0357 -1.7981
  175SAPI    HB19856   6.602   5.957   6.657 -1.4440  2.3536 -0.4305
  175SAPI    C219857   6.742   6.003   6.816 -0.4348 -0.0993 -1.1545
  175SAPI    HS19858   6.788   5.902   6.825  2.3028  1.3799  2.7454
  175SAPI   O2119859   6.648   6.031   6.927 -0.4249  0.5475 -0.2560
  175SAPI   C2119860   6.601   5.926   6.999 -0.8269  0.7577 -0.2428
  175SAPI   O2219861   6.614   5.811   6.958 -0.4909 -0.2454 -0.1649
  175SAPI   C2219862   6.534   5.974   7.125 -0.1534  0.8073 -0.1696
  175SAPI   H2R19863   6.572   6.077   7.142 -1.5090  1.3114 -0.1219
  175SAPI   H2S19864   6.425   5.971   7.104 -0.3903  0.7452  0.9979
  175SAPI    C319865   6.864   6.100   6.836  0.2110 -0.1259 -0.5182
  175SAPI    HX19866   6.824   6.204   6.825  2.4125  0.9028  0.8463
  175SAPI    HY19867   6.941   6.070   6.762  0.5029 -0.2239 -0.1768
  175SAPI   O3119868   6.910   6.080   6.971 -0.5020  0.0004  0.8997
  175SAPI   C3119869   7.042   6.107   6.985 -0.4717 -0.6066 -0.1273
  175SAPI   O3219870   7.122   6.133   6.897  0.1162 -0.0058 -0.5482
  175SAPI   C3219871   7.077   6.097   7.135  0.1733 -0.0299  0.0805
  175SAPI   H2X19872   7.188   6.088   7.135  0.2976  1.3727 -0.3194
  175SAPI   H2Y19873   7.034   6.009   7.187  2.4554 -1.1457  0.1034
  175SAPI   C2319874   6.543   5.885   7.247 -0.6332 -0.3465 -0.2698
  175SAPI   H3R19875   6.492   5.789   7.225  0.8524 -0.8721 -1.4359
  175SAPI   H3S19876   6.490   5.927   7.335 -1.4577  1.9771 -1.8020
  175SAPI   C2419877   6.687   5.863   7.299  0.3243 -0.2469 -0.3935
  175SAPI   H4R19878   6.736   5.798   7.224 -1.0463  0.2908 -1.7916
  175SAPI   H4S19879   6.686   5.803   7.393  0.1226  0.0049 -0.2330
  175SAPI   C2519880   6.758   5.990   7.326  0.4515 -0.1334 -0.3122
  175SAPI   H5R19881   6.775   6.050   7.235 -0.6127  1.7419  0.7003
  175SAPI   C2619882   6.781   6.048   7.444  0.1366  0.6301 -0.6754
  175SAPI   H6R19883   6.823   6.149   7.440 -0.8015  1.0256 -0.6559
  175SAPI   C2719884   6.747   5.991   7.583  0.9762 -0.1386 -0.8190
  175SAPI   H7R19885   6.826   5.929   7.631  2.1326  1.0514 -1.1299
  175SAPI   H7S19886   6.664   5.918   7.580  2.0645 -1.4990  1.1717
  175SAPI   C2819887   6.718   6.108   7.675  0.8469  0.2192 -0.1617
  175SAPI   H8R19888   6.647   6.182   7.635  1.9726  1.2652 -0.2554
  175SAPI   C2919889   6.771   6.124   7.797 -0.0332 -0.5187 -0.4920
  175SAPI   H9R19890   6.735   6.216   7.847  1.2475  0.4549 -1.3329
  175SAPI  C21019891   6.856   6.025   7.868  0.1877 -0.5358  0.8681
  175SAPI  H10R19892   6.946   6.005   7.807  0.1156 -1.3189  1.0111
  175SAPI  H10S19893   6.800   5.930   7.879  1.0219 -1.1778 -0.4489
  175SAPI  C21119894   6.895   6.058   8.008 -0.8999  0.4861 -0.0517
  175SAPI  H11R19895   6.987   6.115   8.029 -0.4592 -0.2232 -0.0349
  175SAPI  C21219896   6.822   6.032   8.120  1.0755 -0.7373  0.2094
  175SAPI  H12R19897   6.861   6.058   8.220 -2.1338  1.1817  1.0298
  175SAPI  C21319898   6.692   5.968   8.129  0.1287  0.1787 -0.5623
  175SAPI  H13R19899   6.715   5.860   8.111 -1.4009 -0.4725  1.1870
  175SAPI  H13S19900   6.623   5.989   8.045 -0.6473  4.6838  1.0875
  175SAPI  C21419901   6.623   5.992   8.259 -0.0766 -0.3853 -0.1768
  175SAPI  H14R19902   6.574   6.091   8.263  0.3199 -0.1058 -1.8518
  175SAPI  C21519903   6.606   5.907   8.363 -0.3547  0.1344  0.3943
  175SAPI  H15R19904   6.541   5.940   8.445 -0.7275 -1.3048  0.6905
  175SAPI  C21619905   6.650   5.763   8.357 -0.1325  1.0078 -0.2163
  175SAPI  H16R19906   6.753   5.744   8.395  0.1741  1.5961 -0.7470
  175SAPI  H16S19907   6.647   5.719   8.255  2.0523  0.9444 -0.2870
  175SAPI  C21719908   6.538   5.696   8.435  0.6797 -0.4135  0.1328
  175SAPI  H17R19909   6.542   5.587   8.414 -0.7261 -0.1362 -1.7322
  175SAPI  H17S19910   6.439   5.725   8.395  1.0794  2.0163  0.8002
  175SAPI  C21819911   6.549   5.699   8.588  0.6560  0.7142 -0.1472
  175SAPI  H18R19912   6.616   5.783   8.615  2.6219 -0.1005 -2.2675
  175SAPI  H18S19913   6.610   5.612   8.622 -1.5870 -0.7851  0.1301
  175SAPI  C21919914   6.423   5.692   8.675  0.9448  0.2259  0.3442
  175SAPI  H19R19915   6.365   5.786   8.664 -3.1541 -2.1421  0.8227
  175SAPI  H19S19916   6.441   5.688   8.785 -0.1875 -0.8345  0.4982
  175SAPI  C22019917   6.337   5.568   8.635 -0.0115  0.7473  0.9393
  175SAPI  H20R19918   6.286   5.530   8.726 -0.5794 -0.2161  0.2253
  175SAPI  H20S19919   6.403   5.488   8.594 -1.0507  0.1415  0.4324
  175SAPI  H20T19920   6.251   5.583   8.566 -0.5269  0.1973  1.4569
  175SAPI   C3319921   7.042   6.228   7.210  0.1814  0.1845  0.0743
  175SAPI   H3X19922   6.932   6.240   7.209  0.3144  1.4774 -0.5345
  175SAPI   H3Y19923   7.086   6.318   7.160  0.4232  0.2624  0.4204
  175SAPI   C3419924   7.091   6.221   7.361 -0.2629  0.2920  0.1106
  175SAPI   H4X19925   7.201   6.204   7.367 -0.2737  0.5947  1.2326
  175SAPI   H4Y19926   7.040   6.133   7.404  1.5641 -1.1668 -0.6205
  175SAPI   C3519927   7.051   6.350   7.435 -0.4248  0.1828  0.0682
  175SAPI   H5X19928   6.946   6.385   7.419  0.3587  3.0811  0.9619
  175SAPI   H5Y19929   7.117   6.435   7.407 -3.3358  2.8095  0.8783
  175SAPI   C3619930   7.056   6.319   7.588  0.7610 -0.5330 -0.3322
  175SAPI   H6X19931   7.160   6.287   7.612  0.0780 -1.7701  1.0326
  175SAPI   H6Y19932   6.986   6.235   7.605 -0.5351  0.4019 -1.0235
  175SAPI   C3719933   7.013   6.438   7.664 -0.2772  0.0015 -0.0837
  175SAPI   H7X19934   6.915   6.480   7.635 -0.7875 -1.1324 -0.0084
  175SAPI   H7Y19935   7.086   6.519   7.641  2.2182 -2.0319  0.4463
  175SAPI   C3819936   7.005   6.417   7.816 -0.4998  0.1622 -0.0721
  175SAPI   H8X19937   6.955   6.319   7.833  1.7725 -0.6820  1.9651
  175SAPI   H8Y19938   6.935   6.497   7.849 -0.0552 -0.1389  1.6310
  175SAPI   C3919939   7.135   6.438   7.895  0.5291  0.0465 -0.5592
  175SAPI   H9X19940   7.181   6.536   7.871 -0.1361  0.2391 -1.0500
  175SAPI   H9Y19941   7.207   6.359   7.864  2.0159  1.8392 -1.8025
  175SAPI  C31019942   7.117   6.423   8.054  0.1250 -0.7292 -0.1158
  175SAPI  H10X19943   7.057   6.331   8.075  2.5181 -2.3976 -0.3716
  175SAPI  H10Y19944   7.055   6.512   8.079  0.5003  0.0044 -1.7683
  175SAPI  C31119945   7.247   6.409   8.133 -0.3554 -0.5756  0.6275
  175SAPI  H11X19946   7.290   6.511   8.146  0.3075 -0.8267  0.4352
  175SAPI  H11Y19947   7.321   6.346   8.079 -0.5270 -0.4001  0.1788
  175SAPI  C31219948   7.218   6.347   8.269  0.0963 -0.2506  0.0128
  175SAPI  H12X19949   7.175   6.244   8.265 -3.7876  1.2007  1.3648
  175SAPI  H12Y19950   7.140   6.398   8.330  1.3340  1.1789  0.4198
  175SAPI  C31319951   7.356   6.347   8.346  0.1510  0.0309 -0.3655
  175SAPI  H13X19952   7.382   6.451   8.377 -2.0565  0.3537  0.4649
  175SAPI  H13Y19953   7.441   6.316   8.281  1.1058 -0.2320  1.0009
  175SAPI  C31419954   7.363   6.261   8.473 -0.0124 -0.1254  0.0792
  175SAPI  H14X19955   7.463   6.266   8.519  0.3288 -3.9954 -0.0956
  175SAPI  H14Y19956   7.352   6.158   8.433  0.1853  0.4561 -1.5141
  175SAPI  C31519957   7.252   6.298   8.582  0.7117  0.4408  0.3502
  175SAPI  H15X19958   7.160   6.250   8.542 -1.4103  1.5808  3.6686
  175SAPI  H15Y19959   7.222   6.405   8.589 -0.6043  0.0124  1.4531
  175SAPI  C31619960   7.270   6.236   8.719 -0.5153 -0.0497  0.1100
  175SAPI  H16X19961   7.268   6.128   8.694  1.9207  0.2731 -1.6658
  175SAPI  H16Y19962   7.174   6.243   8.775 -1.9700 -0.7664 -2.2150
  175SAPI  C31719963   7.388   6.297   8.800  0.0389 -0.3034  0.2907
  175SAPI  H17X19964   7.357   6.401   8.824 -1.8147 -1.0498  1.2267
  175SAPI  H17Y19965   7.477   6.285   8.734 -1.4074 -1.9877 -1.3866
  175SAPI  C31819966   7.418   6.225   8.933 -0.1200  0.2253  0.0666
  175SAPI  H18X19967   7.343   6.266   9.004  0.4030  0.6752  0.3666
  175SAPI  H18Y19968   7.521   6.246   8.969 -0.0005  1.6161 -1.0376
  175SAPI  H18Z19969   7.399   6.117   8.946  2.3348 -0.1544  0.8307
  176SAPI   C1219970   6.580   4.658   6.441 -0.4204  0.9151 -0.5041
  176SAPI    H219971   6.617   4.709   6.532  0.0532 -0.0894 -0.1331
  176SAPI    O219972   6.433   4.638   6.454  0.7197 -0.1037  0.2861
  176SAPI   HO219973   6.418   4.627   6.548 -0.5310  1.6126  0.2968
  176SAPI   C1319974   6.616   4.754   6.329  0.2633 -0.1814 -0.5005
  176SAPI    H319975   6.726   4.768   6.342  0.3131 -2.1696  1.4006
  176SAPI    O319976   6.563   4.887   6.351  0.3362  0.2857  0.2350
  176SAPI   HO319977   6.596   4.918   6.436 -0.0004  0.8045  0.1787
  176SAPI   C1419978   6.580   4.707   6.192  0.1297 -0.1914 -0.1952
  176SAPI    H419979   6.469   4.712   6.180  0.1053  3.5947  1.0683
  176SAPI    O419980   6.638   4.791   6.088  0.3713  0.1787  0.2055
  176SAPI   HO419981   6.733   4.782   6.090  0.5729  1.9824 -0.8337
  176SAPI   C1519982   6.630   4.567   6.172  0.7545  0.6237 -0.3385
  176SAPI    H519983   6.741   4.564   6.163  0.8842  3.1268  0.2403
  176SAPI    O519984   6.584   4.521   6.043 -0.3216  0.0943  0.0398
  176SAPI   HO519985   6.661   4.545   5.990 -0.9967 -1.8550 -1.9055
  176SAPI   C1619986   6.592   4.474   6.288 -1.1550 -0.6289 -0.3317
  176SAPI    H619987   6.481   4.465   6.285 -1.1065 -0.7869 -2.5661
  176SAPI    O619988   6.633   4.339   6.262  0.0684  0.6995  0.5060
  176SAPI   HO619989   6.692   4.328   6.336 -0.9894  1.3300  1.4567
  176SAPI   C1119990   6.648   4.517   6.418  0.5361  0.3321  0.3340
  176SAPI    H119991   6.755   4.541   6.402  0.6216 -0.0600  0.3126
  176SAPI     P19992   6.696   4.439   6.664  0.4448  0.1472 -0.5172
  176SAPI   O1319993   6.847   4.439   6.640  0.3220  0.0858 -0.4530
  176SAPI   O1419994   6.643   4.326   6.750 -0.3449  0.6118  0.5565
  176SAPI   O1219995   6.620   4.436   6.526  0.0907 -0.1016 -0.5590
  176SAPI   O1119996   6.637   4.564   6.735 -0.2231  0.1479 -0.2280
  176SAPI    C119997   6.695   4.612   6.855 -0.3336 -0.8847 -0.5876
  176SAPI    HA19998   6.770   4.544   6.901 -1.1007 -0.1577  1.7564
  176SAPI    HB19999   6.755   4.701   6.827 -0.6173 -0.3773  0.4227
  176SAPI    C220000   6.591   4.659   6.964  0.5885 -0.3524 -0.5237
  176SAPI    HS20001   6.644   4.692   7.056 -0.4508 -1.1594  0.3745
  176SAPI   O2120002   6.500   4.550   6.991  0.1083 -0.1263  0.4929
  176SAPI   C2120003   6.550   4.456   7.064 -0.6496 -0.6169  0.5935
  176SAPI   O2220004   6.660   4.458   7.121  1.0960 -0.1241 -0.0452
  176SAPI   C2220005   6.460   4.334   7.066  0.0639  0.4980  0.3418
  176SAPI   H2R20006   6.351   4.353   7.077 -0.5299 -2.5705  0.1317
  176SAPI   H2S20007   6.464   4.287   6.965  0.0856 -0.0133  0.5807
  176SAPI    C320008   6.504   4.787   6.933 -0.7997  0.9826  0.3520
  176SAPI    HX20009   6.441   4.770   6.843  0.7842  0.9567 -0.7566
  176SAPI    HY20010   6.578   4.861   6.896  1.4382 -0.1454  2.4779
  176SAPI   O3120011   6.438   4.831   7.053  0.5165 -0.1418 -0.1618
  176SAPI   C3120012   6.303   4.832   7.048 -0.6637 -0.3761  0.1092
  176SAPI   O3220013   6.242   4.817   6.942  0.7870  1.1168 -0.2520
  176SAPI   C3220014   6.241   4.837   7.185 -0.5402 -1.0324 -0.1015
  176SAPI   H2X20015   6.145   4.782   7.184  0.2475 -2.4436  0.5456
  176SAPI   H2Y20016   6.230   4.946   7.204 -0.2910 -1.2115  1.1437
  176SAPI   C2320017   6.496   4.221   7.166 -0.2829 -0.5748 -0.5452
  176SAPI   H3R20018   6.599   4.210   7.204 -0.6922  1.2696  1.1959
  176SAPI   H3S20019   6.471   4.125   7.116 -1.3207 -1.9418  2.4791
  176SAPI   C2420020   6.406   4.223   7.292 -0.2322  0.1215  0.3573
  176SAPI   H4R20021   6.419   4.121   7.335  0.4992 -0.1692 -0.5205
  176SAPI   H4S20022   6.300   4.223   7.260 -0.1130 -0.3009 -0.0495
  176SAPI   C2520023   6.441   4.327   7.390  0.0936  0.4196  0.0737
  176SAPI   H5R20024   6.465   4.429   7.356 -1.3173  0.5560 -0.5496
  176SAPI   C2620025   6.447   4.308   7.514 -0.2319 -0.1655  0.2052
  176SAPI   H6R20026   6.504   4.387   7.564 -0.5100 -0.3786  0.8694
  176SAPI   C2720027   6.417   4.190   7.609 -0.2791 -0.0536  0.5947
  176SAPI   H7R20028   6.502   4.199   7.679 -0.1208  2.1749  0.1437
  176SAPI   H7S20029   6.429   4.094   7.554 -0.4481 -0.5745  1.4520
  176SAPI   C2820030   6.275   4.175   7.673 -0.0040 -0.4090  0.0065
  176SAPI   H8R20031   6.189   4.204   7.610 -0.4639  1.2836  1.3736
  176SAPI   C2920032   6.245   4.142   7.800  0.0340 -0.8239 -0.0489
  176SAPI   H9R20033   6.142   4.164   7.833 -0.1212  1.9874 -2.2198
  176SAPI  C21020034   6.339   4.099   7.911 -0.6504  0.3965 -0.2878
  176SAPI  H10R20035   6.359   4.193   7.966 -2.4029 -1.1817  3.1639
  176SAPI  H10S20036   6.433   4.071   7.857 -2.3984 -0.9947 -2.7391
  176SAPI  C21120037   6.283   3.994   8.006 -0.1956  0.0548  0.1103
  176SAPI  H11R20038   6.222   3.917   7.958  1.0160 -0.8090 -0.0429
  176SAPI  C21220039   6.310   3.991   8.143  0.1892  0.0208 -0.1920
  176SAPI  H12R20040   6.264   3.916   8.210 -0.5141  1.8282  1.4118
  176SAPI  C21320041   6.395   4.092   8.216  0.0833 -0.8729  0.6374
  176SAPI  H13R20042   6.335   4.136   8.298 -2.0615 -0.8832 -0.8955
  176SAPI  H13S20043   6.421   4.178   8.151 -0.3005 -1.1413  0.1332
  176SAPI  C21420044   6.518   4.034   8.273  0.3158  0.4159  0.7864
  176SAPI  H14R20045   6.592   4.009   8.196  0.2756  0.1916  0.8220
  176SAPI  C21520046   6.544   4.013   8.406  0.9531 -0.3583  0.1665
  176SAPI  H15R20047   6.637   3.959   8.430  3.1530  3.0280 -0.4886
  176SAPI  C21620048   6.450   4.031   8.522 -0.3701  0.7626 -0.0283
  176SAPI  H16R20049   6.355   4.080   8.492  0.0681  1.2933 -0.5618
  176SAPI  H16S20050   6.499   4.096   8.597  0.8381 -3.0249  2.5691
  176SAPI  C21720051   6.434   3.892   8.594 -0.2612 -0.3875  0.5737
  176SAPI  H17R20052   6.428   3.817   8.513 -1.0227  0.7876 -0.4821
  176SAPI  H17S20053   6.346   3.890   8.661 -0.6684 -3.1413 -0.0047
  176SAPI  C21820054   6.554   3.855   8.677  0.0873 -0.2356 -0.0966
  176SAPI  H18R20055   6.566   3.935   8.754 -0.1264 -0.5441  0.2606
  176SAPI  H18S20056   6.651   3.845   8.623  0.4375 -0.4302  0.5641
  176SAPI  C21920057   6.520   3.726   8.760 -0.3236 -1.0811 -0.2128
  176SAPI  H19R20058   6.436   3.740   8.831 -0.6580 -1.7149 -0.4781
  176SAPI  H19S20059   6.606   3.698   8.824  0.9888  1.8051 -0.6554
  176SAPI  C22020060   6.482   3.597   8.689 -0.4013 -0.1006 -0.0806
  176SAPI  H20R20061   6.427   3.529   8.757 -0.0655  0.6453  0.9702
  176SAPI  H20S20062   6.568   3.536   8.655  0.8168  2.2168 -1.3370
  176SAPI  H20T20063   6.409   3.612   8.608  0.6129 -0.3958 -1.0603
  176SAPI   C3320064   6.314   4.755   7.297  0.0030 -0.3477  0.8740
  176SAPI   H3X20065   6.406   4.816   7.307 -1.0190  1.6968 -1.7197
  176SAPI   H3Y20066   6.335   4.657   7.248 -0.4737 -0.4862  0.9449
  176SAPI   C3420067   6.236   4.746   7.426  0.3725 -0.6902 -0.5874
  176SAPI   H4X20068   6.135   4.700   7.416  0.2155 -0.7736  1.1359
  176SAPI   H4Y20069   6.212   4.844   7.473  1.7560 -0.1654 -0.9780
  176SAPI   C3520070   6.309   4.658   7.525 -0.7055 -0.8602 -0.2024
  176SAPI   H5X20071   6.384   4.718   7.582 -1.1136 -0.0825 -0.4824
  176SAPI   H5Y20072   6.371   4.587   7.466 -0.8819 -0.3612 -0.9838
  176SAPI   C3620073   6.213   4.576   7.616 -0.2795 -0.2206  0.3749
  176SAPI   H6X20074   6.280   4.534   7.694  2.6769  0.3859 -1.7706
  176SAPI   H6Y20075   6.184   4.481   7.566 -0.2514  0.0300 -0.1185
  176SAPI   C3720076   6.087   4.646   7.664  0.2262 -0.6276 -0.5992
  176SAPI   H7X20077   6.026   4.678   7.577  1.5430 -0.1687 -1.3783
  176SAPI   H7Y20078   6.133   4.738   7.708  2.0236 -1.8765  0.1944
  176SAPI   C3820079   6.012   4.552   7.756 -0.9811  0.1406  0.0110
  176SAPI   H8X20080   5.981   4.459   7.705 -1.6248  0.6834 -0.5900
  176SAPI   H8Y20081   5.922   4.600   7.800 -0.4001  0.4934  0.8255
  176SAPI   C3920082   6.092   4.528   7.887 -0.0347 -0.1138 -0.1914
  176SAPI   H9X20083   6.149   4.619   7.914  2.1150 -1.4258 -0.2015
  176SAPI   H9Y20084   6.169   4.449   7.873 -2.5203 -2.7530  0.4880
  176SAPI  C31020085   5.997   4.494   8.003  0.2594  0.2002  0.0779
  176SAPI  H10X20086   5.929   4.418   7.959 -1.0040  2.8373 -2.6973
  176SAPI  H10Y20087   5.937   4.585   8.024  2.8084  1.5718  1.6085
  176SAPI  C31120088   6.062   4.441   8.130 -0.1007 -0.0762  0.2126
  176SAPI  H11X20089   6.104   4.532   8.178 -1.8188  1.2168 -0.6932
  176SAPI  H11Y20090   6.147   4.372   8.114  0.7932  0.5586  2.0432
  176SAPI  C31220091   5.968   4.356   8.224  0.3957 -0.9467  0.1145
  176SAPI  H12X20092   6.029   4.330   8.313  0.0169 -1.6938  0.1630
  176SAPI  H12Y20093   5.945   4.258   8.176 -0.8674 -0.9123  0.6191
  176SAPI  C31320094   5.831   4.414   8.251  0.0344 -0.1991  0.3772
  176SAPI  H13X20095   5.786   4.422   8.150 -0.8184  1.0714  0.8466
  176SAPI  H13Y20096   5.830   4.517   8.293  0.1521 -0.0891  0.1090
  176SAPI  C31420097   5.743   4.307   8.343  0.6385 -0.2541  0.6220
  176SAPI  H14X20098   5.762   4.202   8.314 -3.1069 -0.1281 -2.7611
  176SAPI  H14Y20099   5.638   4.338   8.321  1.0064  0.2346 -0.5149
  176SAPI  C31520100   5.762   4.334   8.490  1.0057 -0.4863  0.2736
  176SAPI  H15X20101   5.771   4.444   8.501  0.6120 -0.5034  0.8331
  176SAPI  H15Y20102   5.863   4.296   8.517  1.1448 -0.6636 -0.4835
  176SAPI  C31620103   5.653   4.270   8.580 -0.6286 -0.6845  0.4369
  176SAPI  H16X20104   5.657   4.159   8.583  0.3091 -0.6435  0.9071
  176SAPI  H16Y20105   5.557   4.298   8.530  0.7935 -0.0177 -2.0194
  176SAPI  C31720106   5.658   4.334   8.719 -0.5383  0.4254  0.5278
  176SAPI  H17X20107   5.760   4.329   8.764 -0.2359 -2.6356 -0.3943
  176SAPI  H17Y20108   5.596   4.269   8.784 -1.4262  0.8193  0.0761
  176SAPI  C31820109   5.607   4.476   8.726 -0.1010 -0.1003 -0.2047
  176SAPI  H18X20110   5.537   4.489   8.641  0.6056  1.9056 -0.5103
  176SAPI  H18Y20111   5.692   4.543   8.699  0.5889  0.1475  2.4152
  176SAPI  H18Z20112   5.557   4.501   8.822 -2.9099 -0.0521 -1.6488
  177SLPC     N20113   5.246   1.678  11.128 -0.1544  0.0612  0.1133
  177SLPC   C1320114   5.139   1.743  11.212 -0.2237 -0.2637  0.0309
  177SLPC  H13A20115   5.176   1.758  11.312 -2.2308 -0.3622  0.8092
  177SLPC  H13B20116   5.112   1.842  11.180 -1.5163 -0.4442  0.5356
  177SLPC  H13C20117   5.049   1.684  11.205 -1.0505  1.1132 -1.2099
  177SLPC   C1420118   5.278   1.548  11.196 -0.2133  0.0827  0.8630
  177SLPC  H14A20119   5.337   1.567  11.284  1.1518  1.4790 -0.3312
  177SLPC  H14B20120   5.191   1.496  11.235 -0.2679 -0.1651  0.4147
  177SLPC  H14C20121   5.332   1.486  11.126 -1.5371  0.3825 -0.4551
  177SLPC   C1520122   5.369   1.759  11.146 -0.1792 -0.6567  0.5113
  177SLPC  H15A20123   5.399   1.773  11.249  0.2965  1.1931  0.1226
  177SLPC  H15B20124   5.458   1.712  11.106  0.0553  0.5833 -0.4392
  177SLPC  H15C20125   5.358   1.862  11.118  1.8050 -0.7152 -0.5611
  177SLPC   C1220126   5.219   1.664  10.983  0.0691  0.5009 -0.2335
  177SLPC  H12A20127   5.307   1.642  10.924 -0.3298 -0.3475 -0.5148
  177SLPC  H12B20128   5.174   1.756  10.947 -2.4288 -0.4681  0.3367
  177SLPC   C1120129   5.121   1.555  10.930 -0.0883  0.2779 -0.1298
  177SLPC  H11A20130   5.153   1.449  10.936  0.3662  0.4852  1.1193
  177SLPC  H11B20131   5.108   1.569  10.820 -1.6767  2.4844  0.3009
  177SLPC     P20132   4.886   1.667  10.953  0.8122 -0.3330 -0.0804
  177SLPC   O1320133   4.781   1.605  10.866 -0.0136  0.0955  0.1157
  177SLPC   O1420134   4.839   1.736  11.076  0.0935  0.1359 -0.7319
  177SLPC   O1220135   4.998   1.558  10.994 -0.7315  0.3734  0.2723
  177SLPC   O1120136   4.971   1.767  10.868  0.4218  0.4559 -0.1026
  177SLPC    C120137   4.919   1.851  10.758 -0.6922  0.8161  0.1772
  177SLPC    HA20138   4.808   1.857  10.756 -0.6969  1.7562  1.8015
  177SLPC    HB20139   4.966   1.950  10.772 -1.4197  1.4626 -1.8755
  177SLPC    C220140   4.951   1.812  10.616 -0.1087  0.2323  0.4794
  177SLPC    HS20141   4.953   1.701  10.610  2.0190  0.1565  2.2182
  177SLPC   O2120142   5.074   1.878  10.574 -0.0420 -0.6658 -0.8498
  177SLPC   C2120143   5.179   1.804  10.538 -0.2060 -0.7223 -0.3548
  177SLPC   O2220144   5.180   1.685  10.530 -0.2336 -0.6996  0.6274
  177SLPC   C2220145   5.309   1.891  10.511 -0.2393  0.3106  0.8709
  177SLPC   H2R20146   5.270   1.989  10.547 -1.2745 -0.1703  1.0880
  177SLPC   H2S20147   5.396   1.858  10.572  0.6818  0.9683 -0.0821
  177SLPC    C320148   4.850   1.856  10.511 -0.3434  0.4392  0.0352
  177SLPC    HX20149   4.831   1.964  10.525  1.8400  0.9116 -0.4248
  177SLPC    HY20150   4.750   1.812  10.530 -0.3816  0.4618 -0.1169
  177SLPC   O3120151   4.892   1.811  10.379 -0.3944 -0.0851 -0.0446
  177SLPC   C3120152   4.941   1.902  10.306 -0.3200  1.1626 -0.1982
  177SLPC   O3220153   4.954   2.020  10.331 -0.0826 -0.2354  0.1412
  177SLPC   C3220154   4.970   1.837  10.167  0.3479  0.5861 -0.1456
  177SLPC   H2X20155   4.875   1.799  10.123 -0.4003  1.3843  0.7246
  177SLPC   H2Y20156   5.042   1.756  10.189 -0.8164 -0.1181  1.1779
  177SLPC   C2320157   5.342   1.901  10.364  0.2126  0.0453 -0.3392
  177SLPC   H3R20158   5.412   1.987  10.354  0.7200 -0.2107  0.8933
  177SLPC   H3S20159   5.251   1.921  10.304 -0.6609 -0.6629  0.7314
  177SLPC   C2420160   5.406   1.769  10.325 -0.5082  0.5210 -0.4703
  177SLPC   H4R20161   5.325   1.697  10.300  0.3849  0.4278 -3.2208
  177SLPC   H4S20162   5.469   1.724  10.405 -2.4068 -1.2467  0.0631
  177SLPC   C2520163   5.479   1.773  10.191 -0.2761 -0.2635 -1.2955
  177SLPC   H5R20164   5.524   1.672  10.177 -0.3899 -0.3000 -1.3942
  177SLPC   H5S20165   5.557   1.852  10.197 -0.1837 -0.4278 -0.2398
  177SLPC   C2620166   5.383   1.787  10.076  0.2244  0.1736  0.1345
  177SLPC   H6R20167   5.327   1.883  10.072 -1.2166 -0.6679 -0.4405
  177SLPC   H6S20168   5.311   1.703  10.064 -0.3777  0.7294 -0.1657
  177SLPC   C2720169   5.453   1.779   9.942  0.3307  0.3281  0.6058
  177SLPC   H7R20170   5.383   1.767   9.856 -0.6872  1.5731  1.2424
  177SLPC   H7S20171   5.510   1.685   9.924  0.5567  0.6024 -0.1562
  177SLPC   C2820172   5.550   1.898   9.915  0.3164  0.0711  0.7214
  177SLPC   H8R20173   5.627   1.851   9.850  0.6401  1.6582 -0.0874
  177SLPC   H8S20174   5.597   1.932  10.010 -2.4165  3.1619  1.0802
  177SLPC   C2920175   5.500   2.024   9.853  0.2737 -0.4006 -0.0939
  177SLPC   H9R20176   5.468   2.100   9.926 -0.4253 -1.9973  1.2776
  177SLPC  C21020177   5.507   2.057   9.722  0.0468 -0.4941  0.2937
  177SLPC  H10R20178   5.469   2.152   9.683 -1.6873 -1.8350 -1.3512
  177SLPC  C21120179   5.569   1.965   9.609  0.7135 -0.3380 -0.2360
  177SLPC  H11R20180   5.662   2.014   9.573 -0.7191  1.5666 -1.3973
  177SLPC  H11S20181   5.598   1.865   9.650 -0.1796 -0.9667 -1.1290
  177SLPC  C21220182   5.478   1.954   9.485 -0.5654  0.1074 -0.1049
  177SLPC  H12R20183   5.421   2.036   9.437  1.7158  0.8628 -1.5896
  177SLPC  C21320184   5.437   1.839   9.428 -0.0113 -0.8390 -0.0676
  177SLPC  H13R20185   5.368   1.841   9.343 -1.7649 -0.8995  1.3258
  177SLPC  C21420186   5.476   1.698   9.464 -0.0279  0.3000  0.1954
  177SLPC  H14R20187   5.385   1.636   9.480  1.4760 -1.8804  0.4689
  177SLPC  H14S20188   5.534   1.703   9.559 -1.2756 -1.0801  1.0506
  177SLPC  C21520189   5.552   1.624   9.361  0.0799  0.1350 -0.6743
  177SLPC  H15R20190   5.483   1.598   9.278 -0.0749 -2.3445  0.1940
  177SLPC  H15S20191   5.595   1.532   9.407  1.6041  0.2843 -1.7702
  177SLPC  C21620192   5.674   1.688   9.298 -0.6587 -0.3138  0.5764
  177SLPC  H16R20193   5.744   1.702   9.384  0.1670 -2.5675  0.2955
  177SLPC  H16S20194   5.644   1.783   9.248 -0.6230 -1.2620 -1.2931
  177SLPC  C21720195   5.729   1.604   9.183  1.0160  0.2242 -0.0601
  177SLPC  H17R20196   5.654   1.556   9.117  2.2042 -2.6903  0.6055
  177SLPC  H17S20197   5.767   1.520   9.245  2.0248  0.1416 -0.7744
  177SLPC  C21820198   5.839   1.666   9.106  0.4713 -0.4292 -0.4724
  177SLPC  H18R20199   5.915   1.702   9.179  1.0030 -3.0674  0.3552
  177SLPC  H18S20200   5.799   1.755   9.053 -0.1320  0.0580  0.7738
  177SLPC  H18T20201   5.881   1.602   9.025  2.1655 -0.7490  0.6401
  177SLPC   C3320202   5.023   1.939  10.066 -0.1129 -0.1005  0.1092
  177SLPC   H3X20203   5.120   1.981  10.101 -1.1890  0.0636  3.0140
  177SLPC   H3Y20204   4.963   2.032  10.056 -1.6429 -0.8138  2.5338
  177SLPC   C3420205   5.037   1.880   9.926  0.0189 -0.0590  0.2561
  177SLPC   H4X20206   4.930   1.871   9.896 -0.2526 -0.8855  1.4313
  177SLPC   H4Y20207   5.089   1.783   9.938 -0.3304 -0.2379  0.3342
  177SLPC   C3520208   5.123   1.979   9.840  0.3604  0.3237 -0.1472
  177SLPC   H5X20209   5.223   1.996   9.886  0.0577 -3.6999  2.2251
  177SLPC   H5Y20210   5.074   2.078   9.826 -1.6649 -1.0623 -3.2884
  177SLPC   C3620211   5.141   1.929   9.692 -0.2208  0.3198 -0.2757
  177SLPC   H6X20212   5.198   1.834   9.700 -2.5275 -1.1374 -0.7859
  177SLPC   H6Y20213   5.201   2.012   9.648  0.4150  0.7448  1.3686
  177SLPC   C3720214   5.019   1.907   9.604  0.1152  0.3477 -0.4092
  177SLPC   H7X20215   4.950   1.992   9.622  1.9014  2.1737 -1.8965
  177SLPC   H7Y20216   4.951   1.820   9.614 -1.7272  1.6550 -1.2277
  177SLPC   C3820217   5.062   1.914   9.455  0.6799 -1.0256 -0.0220
  177SLPC   H8X20218   5.144   1.840   9.441  1.4567 -0.3168  0.6783
  177SLPC   H8Y20219   5.108   2.013   9.431  0.3611 -0.7584  0.4617
  177SLPC   C3920220   4.934   1.894   9.368 -0.6887 -0.2362  0.2500
  177SLPC   H9X20221   4.851   1.959   9.401  0.7008  2.2493 -0.9824
  177SLPC   H9Y20222   4.896   1.790   9.376 -0.5567 -0.2214  1.0625
  177SLPC  C31020223   4.968   1.919   9.217 -0.2088 -0.1143 -0.6752
  177SLPC  H10X20224   4.887   1.879   9.153 -1.5760 -2.7529  2.5575
  177SLPC  H10Y20225   5.068   1.876   9.193 -0.2405 -1.3531  1.2533
  177SLPC  C31120226   4.978   2.071   9.189  1.0583  0.2126 -0.2439
  177SLPC  H11X20227   5.050   2.115   9.260  0.3098 -3.4348  2.9935
  177SLPC  H11Y20228   4.883   2.127   9.205 -0.1905 -1.4425 -1.6393
  177SLPC  C31220229   5.024   2.103   9.045  0.0209 -0.0184 -0.2189
  177SLPC  H12X20230   4.969   2.030   8.982  1.0978 -0.9641 -0.0713
  177SLPC  H12Y20231   5.131   2.075   9.045  0.2144  0.7140  0.1746
  177SLPC  C31320232   5.009   2.251   9.004 -0.0177 -0.4891 -0.3382
  177SLPC  H13X20233   5.059   2.314   9.081 -0.1349  0.1856 -0.8089
  177SLPC  H13Y20234   4.902   2.280   8.999  0.4661  1.5337  0.3175
  177SLPC  C31420235   5.072   2.278   8.865 -0.5311 -1.0788  0.5362
  177SLPC  H14X20236   5.018   2.219   8.788  0.4086  1.8879 -2.4944
  177SLPC  H14Y20237   5.177   2.240   8.870 -0.1146  0.1298  1.1863
  177SLPC  C31520238   5.090   2.427   8.821 -0.6175 -0.2167  0.5996
  177SLPC  H15X20239   5.153   2.486   8.890  1.1444  1.6272 -2.4776
  177SLPC  H15Y20240   4.989   2.468   8.800 -0.5775  0.1390  1.1167
  177SLPC  C31620241   5.174   2.437   8.689  0.3189 -0.2445 -0.2593
  177SLPC  H16X20242   5.264   2.372   8.679  1.0139  0.7223 -0.4052
  177SLPC  H16Y20243   5.210   2.542   8.678 -0.3446  0.2452  2.0105
  177SLPC  C31720244   5.085   2.407   8.563 -0.0000  0.0662 -0.6309
  177SLPC  H17X20245   5.043   2.504   8.530 -2.0742 -0.6904 -0.3191
  177SLPC  H17Y20246   5.004   2.333   8.582 -0.8887  0.7116 -1.8592
  177SLPC  C31820247   5.160   2.343   8.451  0.0739  0.4931  0.3484
  177SLPC  H18X20248   5.209   2.249   8.485  0.0723  0.8603  1.3749
  177SLPC  H18Y20249   5.235   2.411   8.405  1.1428 -0.0748  1.2470
  177SLPC  H18Z20250   5.086   2.320   8.371 -0.5765 -0.7694  1.2966
  178SLPC     N20251   0.135   4.654  11.300  0.2989  0.2849  0.1798
  178SLPC   C1320252   0.037   4.742  11.232  0.2204 -0.5734 -0.4338
  178SLPC  H13A20253   0.008   4.710  11.133  1.5834  1.5243 -1.5533
  178SLPC  H13B20254  -0.044   4.767  11.300  1.8359  0.4592  1.1639
  178SLPC  H13C20255   0.074   4.837  11.197  0.2702 -0.3043  0.3396
  178SLPC   C1420256   0.065   4.541  11.378  0.1025 -0.0293  0.2570
  178SLPC  H14A20257   0.039   4.456  11.317 -0.2245  1.1165 -1.2174
  178SLPC  H14B20258   0.114   4.504  11.467 -0.5350 -1.9779 -0.1875
  178SLPC  H14C20259  -0.029   4.574  11.418 -0.0352  0.2356 -0.2838
  178SLPC   C1520260   0.212   4.744  11.392  0.1223 -0.0955 -0.5065
  178SLPC  H15A20261   0.144   4.814  11.438 -0.6018 -0.8926 -0.3460
  178SLPC  H15B20262   0.263   4.690  11.471 -2.1835  0.9093  1.7356
  178SLPC  H15C20263   0.288   4.808  11.350 -0.8087  1.8074  0.6241
  178SLPC   C1220264   0.233   4.598  11.199 -0.3615  1.0010  0.0767
  178SLPC  H12A20265   0.318   4.548  11.244  1.8882  1.9652 -2.9651
  178SLPC  H12B20266   0.277   4.685  11.152  1.8033  0.1661  0.5059
  178SLPC   C1120267   0.176   4.503  11.092  0.3011  0.0775 -0.3320
  178SLPC  H11A20268   0.111   4.431  11.147  0.5134  1.2276  1.4482
  178SLPC  H11B20269   0.254   4.444  11.039  0.6275  0.5048 -0.3290
  178SLPC     P20270   0.153   4.671  10.892 -0.1800 -0.1370  0.2221
  178SLPC   O1320271   0.078   4.795  10.908  0.5676  0.3461 -0.5204
  178SLPC   O1420272   0.298   4.680  10.901 -0.0183 -0.5058  0.1182
  178SLPC   O1220273   0.093   4.566  10.994 -0.5163 -0.6315  0.7811
  178SLPC   O1120274   0.112   4.611  10.751  0.5930  0.0271  0.1926
  178SLPC    C120275   0.038   4.486  10.732  0.3882  0.2055  0.2947
  178SLPC    HA20276   0.091   4.405  10.786 -0.3074  0.4869  1.4071
  178SLPC    HB20277  -0.062   4.495  10.779  1.2585  0.5619  2.1040
  178SLPC    C220278   0.029   4.447  10.586  0.1078 -0.2201 -0.2243
  178SLPC    HS20279   0.006   4.339  10.575  2.6039 -0.9066  1.0197
  178SLPC   O2120280   0.146   4.490  10.504 -0.0423 -0.1304 -0.5554
  178SLPC   C2120281   0.243   4.412  10.523 -0.1509 -0.0299 -0.3790
  178SLPC   O2220282   0.236   4.308  10.594  0.1996  0.4359 -0.0199
  178SLPC   C2220283   0.365   4.449  10.444  0.1445 -0.5399  1.1486
  178SLPC   H2R20284   0.326   4.454  10.340  1.2325 -1.1695  0.7045
  178SLPC   H2S20285   0.390   4.555  10.466  0.0905 -0.0981 -0.7948
  178SLPC    C320286  -0.104   4.505  10.522 -0.0404  0.0398 -0.1461
  178SLPC    HX20287  -0.130   4.605  10.564 -1.9924 -1.1849  1.6990
  178SLPC    HY20288  -0.194   4.444  10.546 -0.0141  0.5536  1.3432
  178SLPC   O3120289  -0.102   4.509  10.376 -0.2804 -0.0623 -0.3959
  178SLPC   C3120290  -0.054   4.620  10.322 -0.2056 -0.0844  0.5925
  178SLPC   O3220291  -0.019   4.718  10.385  0.7741 -0.4747  0.1130
  178SLPC   C3220292  -0.036   4.600  10.166  0.0485 -0.6191  0.4358
  178SLPC   H2X20293  -0.045   4.694  10.108 -0.7710 -1.6488 -1.1120
  178SLPC   H2Y20294  -0.118   4.531  10.137 -0.2406  0.2800 -0.9353
  178SLPC   C2320295   0.486   4.354  10.457  0.2559  0.1880 -0.0515
  178SLPC   H3R20296   0.446   4.251  10.458 -1.6256  0.9106  0.9493
  178SLPC   H3S20297   0.528   4.364  10.559  0.8045  2.9222 -0.4892
  178SLPC   C2420298   0.591   4.383  10.347 -0.8856  0.0196 -1.0595
  178SLPC   H4R20299   0.683   4.328  10.374 -0.4189 -0.4039 -3.4090
  178SLPC   H4S20300   0.623   4.489  10.352  2.1827 -0.8740 -0.7536
  178SLPC   C2520301   0.561   4.345  10.201  0.1385 -0.1637  0.0702
  178SLPC   H5R20302   0.468   4.401  10.176  0.2015 -0.0092  0.1829
  178SLPC   H5S20303   0.524   4.241  10.192  0.5389 -0.4462  1.6905
  178SLPC   C2620304   0.674   4.375  10.109 -0.2807 -0.2252  0.1868
  178SLPC   H6R20305   0.773   4.346  10.150  0.5193  3.6816  1.2402
  178SLPC   H6S20306   0.688   4.484  10.123 -1.9297  0.0743 -0.4185
  178SLPC   C2720307   0.635   4.348   9.958  0.0139  0.4082 -0.0877
  178SLPC   H7R20308   0.536   4.397   9.946 -0.5840 -0.7690 -0.0018
  178SLPC   H7S20309   0.618   4.239   9.948 -0.9559  0.3439  1.9058
  178SLPC   C2820310   0.729   4.407   9.861 -0.2983  0.5082 -0.2393
  178SLPC   H8R20311   0.740   4.517   9.877 -2.3629  0.7332 -0.2126
  178SLPC   H8S20312   0.691   4.387   9.759 -1.3467 -0.6954  0.3862
  178SLPC   C2920313   0.864   4.350   9.847 -0.3241  0.4982  0.7459
  178SLPC   H9R20314   0.895   4.299   9.940  1.1716  2.1755  1.1938
  178SLPC  C21020315   0.949   4.353   9.739  0.4818  0.2060 -0.5847
  178SLPC  H10R20316   1.043   4.297   9.746  0.1372 -0.7975 -3.3277
  178SLPC  C21120317   0.929   4.412   9.608  0.8282 -0.5177  0.3581
  178SLPC  H11R20318   1.016   4.471   9.573  0.4740 -1.1155 -1.5949
  178SLPC  H11S20319   0.856   4.495   9.617  1.4222  0.0175  0.3114
  178SLPC  C21220320   0.886   4.318   9.501 -0.4219  0.0875  0.1192
  178SLPC  H12R20321   0.779   4.295   9.514 -0.5418  1.2086  1.2458
  178SLPC  C21320322   0.940   4.289   9.381  0.3768 -0.0129  0.3136
  178SLPC  H13R20323   0.893   4.226   9.304 -0.2302 -0.2904  0.9000
  178SLPC  C21420324   1.072   4.347   9.346  0.2185 -0.5586 -0.3423
  178SLPC  H14R20325   1.150   4.320   9.420  0.5745  1.2779 -0.0314
  178SLPC  H14S20326   1.076   4.458   9.349 -0.0093 -0.5845  1.2881
  178SLPC  C21520327   1.128   4.293   9.210  0.0901 -0.6675  0.4279
  178SLPC  H15R20328   1.116   4.182   9.209  1.0201 -0.7668 -1.3612
  178SLPC  H15S20329   1.235   4.319   9.199  0.2905 -2.8804 -3.9175
  178SLPC  C21620330   1.049   4.347   9.086 -0.1065 -0.2244  0.4640
  178SLPC  H16R20331   1.016   4.451   9.104  0.6121 -0.2598  1.9822
  178SLPC  H16S20332   0.960   4.285   9.059 -1.8128  1.6117  1.8049
  178SLPC  C21720333   1.127   4.357   8.954 -0.0394  0.1023  0.3047
  178SLPC  H17R20334   1.125   4.258   8.903 -0.2552  0.4082 -0.2782
  178SLPC  H17S20335   1.234   4.385   8.965  0.3482 -0.0877 -2.5199
  178SLPC  C21820336   1.060   4.457   8.858 -0.2785 -0.2006 -0.1784
  178SLPC  H18R20337   1.071   4.561   8.893  3.1191 -0.1545 -1.1842
  178SLPC  H18S20338   0.952   4.433   8.847  0.0400 -1.1423 -1.4071
  178SLPC  H18T20339   1.105   4.449   8.757  1.0636 -0.6842  0.4365
  178SLPC   C3320340   0.098   4.540  10.128 -0.3323 -0.0889  0.5560
  178SLPC   H3X20341   0.112   4.437  10.168  0.8389 -0.4469 -0.7359
  178SLPC   H3Y20342   0.192   4.597  10.146 -0.4720  1.0137 -1.9321
  178SLPC   C3420343   0.106   4.517   9.973  0.5637 -0.3466  0.7218
  178SLPC   H4X20344   0.109   4.623   9.941 -2.5020  0.4523  2.8316
  178SLPC   H4Y20345   0.018   4.463   9.931  1.2579 -0.1442 -1.0321
  178SLPC   C3520346   0.237   4.449   9.926  0.3618 -0.0021 -0.6235
  178SLPC   H5X20347   0.252   4.357   9.986 -4.1881 -1.0159 -0.8838
  178SLPC   H5Y20348   0.310   4.524   9.963  0.8586 -0.9565  0.3605
  178SLPC   C3620349   0.227   4.422   9.774 -0.0777 -0.2380  0.4082
  178SLPC   H6X20350   0.215   4.522   9.728  1.0417  0.1288  0.9054
  178SLPC   H6Y20351   0.137   4.363   9.747 -0.5240  0.6380 -0.0392
  178SLPC   C3720352   0.359   4.358   9.719  0.3747  0.1829 -0.1123
  178SLPC   H7X20353   0.376   4.257   9.759 -0.9828  0.5082  1.3420
  178SLPC   H7Y20354   0.442   4.428   9.745  1.5299 -1.1312 -0.2427
  178SLPC   C3820355   0.355   4.348   9.565  0.4784  0.6045  0.3278
  178SLPC   H8X20356   0.336   4.452   9.533 -3.1267 -0.6262 -1.8673
  178SLPC   H8Y20357   0.266   4.289   9.534 -0.5920  0.6139  3.2459
  178SLPC   C3920358   0.474   4.280   9.502  0.3840 -0.5143 -0.3602
  178SLPC   H9X20359   0.489   4.188   9.563 -0.2173 -1.2995 -1.3938
  178SLPC   H9Y20360   0.567   4.340   9.517  0.5243 -1.1063  1.3326
  178SLPC  C31020361   0.447   4.239   9.352 -0.3453  0.0060 -0.0715
  178SLPC  H10X20362   0.427   4.328   9.288  0.6113  0.7431  0.6423
  178SLPC  H10Y20363   0.350   4.185   9.347 -0.9494  1.0021  0.6498
  178SLPC  C31120364   0.555   4.150   9.290  0.9472 -0.5862 -0.1971
  178SLPC  H11X20365   0.571   4.069   9.366 -0.3366 -0.3623  0.3241
  178SLPC  H11Y20366   0.647   4.212   9.286  0.3764  0.4299  1.7858
  178SLPC  C31220367   0.503   4.083   9.160 -0.0174 -0.5907 -0.6742
  178SLPC  H12X20368   0.462   4.168   9.101  0.1304 -0.7373 -0.9853
  178SLPC  H12Y20369   0.422   4.012   9.187  0.7072 -1.4305 -0.6999
  178SLPC  C31320370   0.614   4.008   9.081 -0.4332  0.3234 -0.2399
  178SLPC  H13X20371   0.612   3.901   9.111  0.9494  0.3464 -0.0361
  178SLPC  H13Y20372   0.706   4.065   9.105 -0.4908  0.6497 -0.7723
  178SLPC  C31420373   0.589   4.012   8.928  0.6722  0.1996 -0.5383
  178SLPC  H14X20374   0.678   3.974   8.872 -0.3437 -2.7958 -0.2002
  178SLPC  H14Y20375   0.574   4.120   8.907 -1.4381 -0.3021 -1.7171
  178SLPC  C31520376   0.471   3.919   8.887  0.3713 -0.2154  0.4242
  178SLPC  H15X20377   0.495   3.815   8.919 -0.5621 -1.0886 -1.5994
  178SLPC  H15Y20378   0.377   3.948   8.938 -0.1250  1.4552 -1.3977
  178SLPC  C31620379   0.444   3.926   8.732 -0.1491 -0.2060 -0.3710
  178SLPC  H16X20380   0.532   3.884   8.679 -0.3163 -0.3479 -0.5382
  178SLPC  H16Y20381   0.430   4.033   8.706 -1.2012 -0.7756 -2.2554
  178SLPC  C31720382   0.324   3.854   8.685  0.6055  0.4522  0.2269
  178SLPC  H17X20383   0.238   3.908   8.731 -1.6194 -0.4612 -2.6985
  178SLPC  H17Y20384   0.336   3.754   8.731  0.1475  1.4173  2.5609
  178SLPC  C31820385   0.322   3.842   8.530 -0.3896 -0.3370  1.0817
  178SLPC  H18X20386   0.301   3.934   8.473 -0.9919  1.6835  4.4173
  178SLPC  H18Y20387   0.242   3.767   8.510  0.3169 -0.7459 -0.2064
  178SLPC  H18Z20388   0.413   3.798   8.485 -0.5773 -0.2723  0.6344
  179SLPC     N20389   2.261   1.127  10.307  0.1799  0.0054  0.3724
  179SLPC   C1320390   2.370   1.142  10.415  0.0704  1.0510 -0.2887
  179SLPC  H13A20391   2.362   1.073  10.498  1.2625 -0.2096 -1.2052
  179SLPC  H13B20392   2.463   1.106  10.373  0.5792  0.5439  1.2242
  179SLPC  H13C20393   2.389   1.240  10.456 -0.0885  1.3614 -0.9396
  179SLPC   C1420394   2.244   0.986  10.275  0.3893  0.1286  0.3681
  179SLPC  H14A20395   2.156   0.985  10.212  1.3622  1.0956 -1.0317
  179SLPC  H14B20396   2.330   0.950  10.221 -0.9147 -2.1342 -0.2314
  179SLPC  H14C20397   2.224   0.920  10.358  1.4351 -0.1428  0.4083
  179SLPC   C1520398   2.313   1.203  10.186 -0.0063  0.1721  0.6128
  179SLPC  H15A20399   2.229   1.232  10.124  0.4015  3.3585  1.4813
  179SLPC  H15B20400   2.358   1.293  10.226 -0.8796 -0.0695  2.1986
  179SLPC  H15C20401   2.382   1.135  10.139  1.1827  0.0113  2.5517
  179SLPC   C1220402   2.130   1.192  10.359 -0.0418 -0.0884 -0.0950
  179SLPC  H12A20403   2.156   1.296  10.371  0.8760 -0.3869  0.5237
  179SLPC  H12B20404   2.117   1.159  10.461 -0.2795 -0.2123 -0.1653
  179SLPC   C1120405   2.001   1.170  10.276  1.5094  0.7037 -0.8705
  179SLPC  H11A20406   2.032   1.196  10.172  2.4195  0.2022 -0.7335
  179SLPC  H11B20407   1.924   1.248  10.292  0.0785 -0.9397  0.4962
  179SLPC     P20408   1.905   0.951  10.389  0.2966  0.3344  0.0445
  179SLPC   O1320409   1.929   0.811  10.368  0.0522  0.2648 -0.1566
  179SLPC   O1420410   1.953   1.005  10.519 -0.3788  0.1470  0.4408
  179SLPC   O1220411   1.961   1.037  10.267  0.1350 -0.0989 -0.1968
  179SLPC   O1120412   1.750   0.993  10.376  0.1642 -0.3594 -0.2599
  179SLPC    C120413   1.671   0.910  10.279 -0.2411 -0.3715  0.0540
  179SLPC    HA20414   1.685   0.800  10.284  1.3033 -0.2141 -0.6872
  179SLPC    HB20415   1.564   0.938  10.295 -0.2347  0.7794 -1.7572
  179SLPC    C220416   1.692   0.946  10.126  0.3282  0.0337 -0.8305
  179SLPC    HS20417   1.798   0.917  10.108  0.7857  0.3441  1.2776
  179SLPC   O2120418   1.668   1.085  10.107  0.0834  0.1282  0.0959
  179SLPC   C2120419   1.750   1.162  10.048  0.5893  0.7020  0.2118
  179SLPC   O2220420   1.857   1.126   9.999  0.0053 -0.1954  0.4370
  179SLPC   C2220421   1.687   1.303  10.027 -0.5022 -0.2162 -0.5990
  179SLPC   H2R20422   1.578   1.296  10.047  0.0478 -4.1738  1.5359
  179SLPC   H2S20423   1.715   1.362  10.117 -2.6608  0.6730 -0.4846
  179SLPC    C320424   1.597   0.870  10.029 -0.8443 -0.0832 -0.3755
  179SLPC    HX20425   1.490   0.897  10.043 -0.8969 -0.3105 -0.3361
  179SLPC    HY20426   1.585   0.760  10.038 -3.2232  0.0343 -1.8248
  179SLPC   O3120427   1.628   0.894   9.894 -0.3985 -0.4178  0.8476
  179SLPC   C3120428   1.747   0.839   9.852  0.7535 -0.6758 -0.9061
  179SLPC   O3220429   1.818   0.778   9.926 -0.4046 -0.3710  0.5648
  179SLPC   C3220430   1.766   0.881   9.706  0.9694 -0.0890  0.6761
  179SLPC   H2X20431   1.686   0.947   9.666 -1.0853 -2.0652  1.4417
  179SLPC   H2Y20432   1.771   0.792   9.640  0.7454  0.7553 -0.5048
  179SLPC   C2320433   1.731   1.383   9.897 -0.4171  0.5701 -0.0169
  179SLPC   H3R20434   1.842   1.385   9.887 -0.2809 -0.6076  1.2256
  179SLPC   H3S20435   1.688   1.485   9.882  0.5637  0.9231 -0.5040
  179SLPC   C2420436   1.681   1.302   9.774  0.0084  0.6942 -0.0565
  179SLPC   H4R20437   1.578   1.266   9.796  0.7493 -1.0133  0.6859
  179SLPC   H4S20438   1.741   1.210   9.755  0.8766  1.1578  0.3988
  179SLPC   C2520439   1.692   1.379   9.643 -0.6264 -0.5152 -1.0098
  179SLPC   H5R20440   1.795   1.417   9.629 -0.3075 -0.1791  1.9616
  179SLPC   H5S20441   1.645   1.479   9.656  1.3244  0.3344 -0.3357
  179SLPC   C2620442   1.628   1.309   9.527  0.1926  0.0423  0.7466
  179SLPC   H6R20443   1.527   1.270   9.552  1.2639 -2.3667  1.4956
  179SLPC   H6S20444   1.690   1.225   9.487 -1.6264 -1.5686  1.2464
  179SLPC   C2720445   1.622   1.404   9.401 -0.5045 -0.2561  0.3244
  179SLPC   H7R20446   1.722   1.452   9.394  0.3099 -2.0314 -0.6917
  179SLPC   H7S20447   1.549   1.486   9.417  0.1142  0.6008 -1.1741
  179SLPC   C2820448   1.586   1.329   9.274  0.0176  0.4349  0.3398
  179SLPC   H8R20449   1.665   1.254   9.254  0.1840  0.4965  0.7628
  179SLPC   H8S20450   1.586   1.403   9.191 -1.4672  1.1544  0.9604
  179SLPC   C2920451   1.449   1.267   9.277 -0.0901 -0.2157  0.3962
  179SLPC   H9R20452   1.447   1.159   9.299  3.0003 -0.2118  0.9432
  179SLPC  C21020453   1.344   1.335   9.246 -0.1072  0.1719  0.4771
  179SLPC  H10R20454   1.249   1.283   9.267 -2.5461  3.6690 -1.2679
  179SLPC  C21120455   1.326   1.484   9.213 -0.3062  0.2535  0.8774
  179SLPC  H11R20456   1.278   1.479   9.113  2.1041  0.2360 -0.3262
  179SLPC  H11S20457   1.423   1.537   9.201 -0.0220 -0.4426  0.1225
  179SLPC  C21220458   1.239   1.548   9.317 -0.2146  0.2921  0.5066
  179SLPC  H12R20459   1.287   1.567   9.414 -1.0928 -2.3522  1.4963
  179SLPC  C21320460   1.115   1.597   9.287  0.6140 -0.0160 -0.2934
  179SLPC  H13R20461   1.058   1.641   9.371 -1.0023 -2.0575 -0.2894
  179SLPC  C21420462   1.030   1.603   9.165  0.1467 -0.4252  0.4259
  179SLPC  H14R20463   0.927   1.622   9.201 -0.7122 -0.8589 -1.6935
  179SLPC  H14S20464   1.020   1.505   9.113  1.9418  0.4074 -1.5558
  179SLPC  C21520465   1.070   1.702   9.044  0.1280  0.2284  0.8769
  179SLPC  H15R20466   1.172   1.678   9.008 -0.3959 -0.3876 -0.2379
  179SLPC  H15S20467   1.080   1.805   9.082 -0.5894 -0.1233  2.0320
  179SLPC  C21620468   0.982   1.693   8.918  0.1263  0.2700  0.8415
  179SLPC  H16R20469   0.981   1.785   8.856 -0.7337 -1.0018 -1.1004
  179SLPC  H16S20470   0.875   1.689   8.949 -0.4065 -0.6083 -0.9821
  179SLPC  C21720471   0.985   1.560   8.831  0.6522 -0.1477 -0.3225
  179SLPC  H17R20472   0.953   1.479   8.899 -1.4920  3.3658  3.0662
  179SLPC  H17S20473   1.087   1.543   8.791  0.2750  0.2914 -1.4881
  179SLPC  C21820474   0.881   1.569   8.713  0.9063  0.4006 -1.0334
  179SLPC  H18R20475   0.788   1.611   8.758  1.7103 -0.7095  1.7419
  179SLPC  H18S20476   0.855   1.469   8.671 -3.0283  0.7491  0.3567
  179SLPC  H18T20477   0.932   1.631   8.637 -1.5143  2.4080 -1.1083
  179SLPC   C3320478   1.904   0.948   9.680 -0.3434 -0.0660  0.6363
  179SLPC   H3X20479   1.976   0.867   9.656 -1.5330 -1.3231  1.2717
  179SLPC   H3Y20480   1.942   1.003   9.770  1.7253  1.6447 -1.2176
  179SLPC   C3420481   1.916   1.036   9.553 -0.0482 -0.3958 -0.1490
  179SLPC   H4X20482   1.818   1.088   9.554  0.6874  1.0053  0.5044
  179SLPC   H4Y20483   1.917   0.974   9.461  0.2617  0.2533 -0.5853
  179SLPC   C3520484   2.038   1.136   9.548 -0.4417 -0.0040 -0.5764
  179SLPC   H5X20485   2.128   1.084   9.587 -0.4342 -0.2586 -0.9344
  179SLPC   H5Y20486   2.021   1.229   9.606 -0.0456  0.2654 -0.8894
  179SLPC   C3620487   2.063   1.196   9.406 -0.8555  0.3522 -0.8797
  179SLPC   H6X20488   2.107   1.115   9.343  0.1105 -0.3480  0.6685
  179SLPC   H6Y20489   2.146   1.268   9.416 -0.6177  0.3208 -2.4975
  179SLPC   C3720490   1.936   1.237   9.342  0.0323 -0.3765 -0.1705
  179SLPC   H7X20491   1.897   1.321   9.404 -1.4483 -1.3641  0.2669
  179SLPC   H7Y20492   1.861   1.155   9.344 -0.6757  0.2776  1.4222
  179SLPC   C3820493   1.946   1.291   9.205  0.2541  0.5605  0.6758
  179SLPC   H8X20494   2.019   1.374   9.203 -0.1762  0.9369 -2.0101
  179SLPC   H8Y20495   1.854   1.347   9.180  0.8809  1.8714  1.2846
  179SLPC   C3920496   1.995   1.185   9.097 -0.4993  0.0491  0.0891
  179SLPC   H9X20497   1.920   1.103   9.100 -0.4486  0.0577  1.7491
  179SLPC   H9Y20498   2.089   1.143   9.136 -0.6569 -1.3413 -0.9862
  179SLPC  C31020499   2.000   1.244   8.952 -0.2071  0.0523 -0.0505
  179SLPC  H10X20500   2.073   1.328   8.950 -0.7486  0.5066 -1.5354
  179SLPC  H10Y20501   1.901   1.291   8.930 -1.0144 -2.1970 -1.3946
  179SLPC  C31120502   2.040   1.139   8.844  0.0316  0.0715 -0.2714
  179SLPC  H11X20503   1.951   1.077   8.819 -0.1517  0.2834 -0.1433
  179SLPC  H11Y20504   2.114   1.071   8.891 -0.0250 -1.1411 -1.8828
  179SLPC  C31220505   2.095   1.198   8.711  0.7642 -0.3686  0.4554
  179SLPC  H12X20506   2.167   1.130   8.661  0.5079  1.7942 -3.0298
  179SLPC  H12Y20507   2.146   1.291   8.745  0.1371 -0.4590  1.6724
  179SLPC  C31320508   1.985   1.215   8.611 -0.0018 -0.7001 -0.4422
  179SLPC  H13X20509   1.904   1.271   8.663  1.4780  0.2012  0.9669
  179SLPC  H13Y20510   1.947   1.119   8.572 -0.6860 -0.3202 -0.7124
  179SLPC  C31420511   2.000   1.300   8.482 -0.3277 -0.1882 -0.6757
  179SLPC  H14X20512   2.015   1.407   8.504  5.1237 -0.9269 -0.0820
  179SLPC  H14Y20513   1.909   1.284   8.421 -0.0906 -0.3176 -0.9929
  179SLPC  C31520514   2.118   1.247   8.401  0.2351 -0.2572  0.0695
  179SLPC  H15X20515   2.123   1.140   8.427 -1.3016 -0.4200 -0.2192
  179SLPC  H15Y20516   2.213   1.303   8.414  0.4868 -0.0233 -2.4560
  179SLPC  C31620517   2.089   1.258   8.250  0.7495 -0.2153 -0.9840
  179SLPC  H16X20518   2.085   1.367   8.229 -1.8660 -0.0066  0.4458
  179SLPC  H16Y20519   1.992   1.211   8.222  0.3836  0.0139 -0.1081
  179SLPC  C31720520   2.213   1.208   8.178 -0.7801 -0.5635  0.3508
  179SLPC  H17X20521   2.245   1.103   8.198  1.1256 -0.2291 -0.8956
  179SLPC  H17Y20522   2.301   1.268   8.208 -0.7101 -0.0447 -0.8707
  179SLPC  C31820523   2.195   1.215   8.023 -0.1596  0.3325  0.0742
  179SLPC  H18X20524   2.289   1.194   7.968  0.6289 -0.0074  1.5055
  179SLPC  H18Y20525   2.152   1.313   7.993 -0.9494 -1.0454 -3.4988
  179SLPC  H18Z20526   2.145   1.127   7.979  4.0936 -2.2851  0.2524
  180SLPC     N20527   2.573   5.170  10.991 -0.1067  0.2382  0.1226
  180SLPC   C1320528   2.565   5.093  11.113 -0.8098  0.5614 -0.2344
  180SLPC  H13A20529   2.487   5.019  11.107 -0.6119  0.3569 -0.3090
  180SLPC  H13B20530   2.660   5.045  11.134  0.6519  2.9332 -1.1599
  180SLPC  H13C20531   2.547   5.153  11.202 -0.6692 -2.2462  1.7495
  180SLPC   C1420532   2.671   5.284  11.011 -0.0127  0.1569  0.0326
  180SLPC  H14A20533   2.627   5.350  11.084 -0.6554  1.3118 -1.3576
  180SLPC  H14B20534   2.771   5.251  11.034 -0.2247 -0.3475  0.2299
  180SLPC  H14C20535   2.671   5.345  10.922 -1.0785 -1.8790 -1.4067
  180SLPC   C1520536   2.430   5.214  10.970  0.5656 -0.1800  0.3846
  180SLPC  H15A20537   2.434   5.298  10.903 -1.3281 -0.0929  0.3357
  180SLPC  H15B20538   2.371   5.136  10.923  1.8189  0.9082 -3.1505
  180SLPC  H15C20539   2.378   5.248  11.059 -1.1202 -1.4618 -0.0718
  180SLPC   C1220540   2.615   5.087  10.864  0.1544  0.3255  0.2198
  180SLPC  H12A20541   2.602   5.142  10.772 -0.5100  0.2526  0.2685
  180SLPC  H12B20542   2.562   4.993  10.855  0.2908  0.2653  0.0317
  180SLPC   C1120543   2.763   5.027  10.863  0.2672  0.1323  0.2009
  180SLPC  H11A20544   2.825   5.113  10.897  1.8966 -0.6003 -0.8348
  180SLPC  H11B20545   2.786   5.012  10.755  2.4260  0.8975  0.5256
  180SLPC     P20546   2.711   4.770  10.900 -0.3568  0.4055 -0.1792
  180SLPC   O1320547   2.772   4.663  10.987 -0.1269 -0.6033 -0.1606
  180SLPC   O1420548   2.572   4.791  10.934 -0.2001 -0.1234 -0.3249
  180SLPC   O1220549   2.779   4.908  10.939  0.1971 -0.2655  0.2064
  180SLPC   O1120550   2.734   4.745  10.745  0.2707 -0.2338 -0.2147
  180SLPC    C120551   2.865   4.756  10.686 -0.1638 -0.0023 -0.0740
  180SLPC    HA20552   2.880   4.857  10.641 -1.1833  0.5453  0.7860
  180SLPC    HB20553   2.947   4.733  10.756  0.5300 -0.3984 -1.0146
  180SLPC    C220554   2.882   4.645  10.580  0.5822  0.3151 -0.3244
  180SLPC    HS20555   2.978   4.657  10.524 -1.0161  0.0810 -3.2362
  180SLPC   O2120556   2.774   4.649  10.482 -0.1131  0.1207 -0.2723
  180SLPC   C2120557   2.781   4.747  10.399 -0.8983  0.3611 -0.4613
  180SLPC   O2220558   2.872   4.829  10.390  0.2032 -0.3544 -0.3723
  180SLPC   C2220559   2.659   4.742  10.310 -0.4936  0.0397 -0.8622
  180SLPC   H2R20560   2.581   4.677  10.356 -0.3540  0.3484 -0.1873
  180SLPC   H2S20561   2.622   4.845  10.291 -2.3740 -0.5529 -0.5025
  180SLPC    C320562   2.885   4.495  10.641 -0.2606 -0.1003  0.9756
  180SLPC    HX20563   2.790   4.470  10.693 -0.4567 -1.4305  0.0186
  180SLPC    HY20564   2.965   4.490  10.718  1.1245 -4.2971 -0.5908
  180SLPC   O3120565   2.908   4.388  10.543  0.5223  0.1751 -0.2700
  180SLPC   C3120566   3.023   4.334  10.525 -0.1812  0.0994 -0.0046
  180SLPC   O3220567   3.127   4.363  10.578  0.0041  0.3486 -0.1296
  180SLPC   C3220568   3.014   4.216  10.422  0.9052 -0.6723 -0.2220
  180SLPC   H2X20569   2.931   4.148  10.450 -0.5844  0.6688 -1.2666
  180SLPC   H2Y20570   3.104   4.152  10.433  1.4563 -0.4767 -3.3017
  180SLPC   C2320571   2.676   4.664  10.174 -0.0937 -0.5142  0.1589
  180SLPC   H3R20572   2.577   4.636  10.132  1.4415 -3.4603 -1.7022
  180SLPC   H3S20573   2.735   4.570  10.184 -0.8368 -0.9200  0.7691
  180SLPC   C2420574   2.755   4.751  10.082  0.3747 -0.3141  0.7463
  180SLPC   H4R20575   2.834   4.792  10.148  0.6531  1.3337 -0.5789
  180SLPC   H4S20576   2.697   4.837  10.042  0.4683  0.1605  1.6280
  180SLPC   C2520577   2.820   4.675   9.974 -0.3501  0.0210  0.3209
  180SLPC   H5R20578   2.737   4.632   9.913 -0.6714 -0.9579  1.4219
  180SLPC   H5S20579   2.875   4.594  10.027 -2.7809 -0.9700  1.4258
  180SLPC   C2620580   2.920   4.756   9.894  0.2316  0.2247 -0.2074
  180SLPC   H6R20581   3.018   4.748   9.946  0.1438 -0.3844 -0.1365
  180SLPC   H6S20582   2.888   4.862   9.886  0.3076  0.2761  0.1352
  180SLPC   C2720583   2.948   4.694   9.760 -0.5860  0.1582  0.2786
  180SLPC   H7R20584   2.849   4.683   9.709  0.0710 -0.2636 -0.9274
  180SLPC   H7S20585   2.983   4.590   9.777  0.5404  0.2866 -1.1777
  180SLPC   C2820586   3.051   4.773   9.673  0.5237  0.5457  0.3328
  180SLPC   H8R20587   3.140   4.774   9.740  1.0474 -1.3850 -0.2865
  180SLPC   H8S20588   3.010   4.876   9.660  0.6555  0.4203 -1.2844
  180SLPC   C2920589   3.092   4.708   9.541 -1.0210  0.4916 -0.2430
  180SLPC   H9R20590   3.116   4.601   9.541 -0.7460  0.5521  0.2339
  180SLPC  C21020591   3.094   4.771   9.416  0.2807  0.3575 -0.2364
  180SLPC  H10R20592   3.136   4.719   9.329  1.3418  1.8717 -0.6350
  180SLPC  C21120593   3.059   4.915   9.387 -0.0417  0.1939 -0.5131
  180SLPC  H11R20594   3.140   4.973   9.336  0.6347  0.7214  1.1339
  180SLPC  H11S20595   3.062   4.971   9.483 -0.2619 -2.3267  0.9981
  180SLPC  C21220596   2.925   4.943   9.325 -0.1174  0.1526 -0.2488
  180SLPC  H12R20597   2.842   4.885   9.366  0.2610 -0.1935  0.0338
  180SLPC  C21320598   2.901   5.039   9.237  0.1922  1.1503  0.2030
  180SLPC  H13R20599   2.793   5.045   9.217 -0.2391  3.3818  2.9055
  180SLPC  C21420600   2.987   5.129   9.153 -0.4165 -0.5453  1.0136
  180SLPC  H14R20601   3.093   5.095   9.147 -0.5423 -0.6070 -1.1741
  180SLPC  H14S20602   2.989   5.230   9.200  0.8435 -0.9306  1.8425
  180SLPC  C21520603   2.935   5.148   9.012  0.4572  0.1722  0.0373
  180SLPC  H15R20604   2.841   5.207   9.010 -0.0373 -0.4781  2.6718
  180SLPC  H15S20605   2.925   5.056   8.951 -2.5513  1.7591 -2.0290
  180SLPC  C21620606   3.023   5.235   8.929 -0.1292  0.1963  0.1157
  180SLPC  H16R20607   3.116   5.175   8.932  0.1298  0.4474 -2.2631
  180SLPC  H16S20608   3.044   5.336   8.972 -2.2920  0.7313 -0.0442
  180SLPC  C21720609   2.960   5.242   8.782  0.4239 -0.6857  0.3887
  180SLPC  H17R20610   2.849   5.254   8.784  0.4387 -0.7010  1.3108
  180SLPC  H17S20611   2.979   5.145   8.731  2.9773  0.5237 -1.0766
  180SLPC  C21820612   3.022   5.351   8.692  0.3313  0.6221  0.2026
  180SLPC  H18R20613   3.107   5.300   8.642 -0.1987  0.9074 -1.0235
  180SLPC  H18S20614   3.036   5.447   8.747  0.7109  1.2111 -0.8965
  180SLPC  H18T20615   2.950   5.376   8.611 -1.2263  0.0497  1.3803
  180SLPC   C3320616   2.998   4.260  10.274  0.0101 -0.1919  0.5884
  180SLPC   H3X20617   2.891   4.285  10.261 -0.0488 -1.3128 -1.2100
  180SLPC   H3Y20618   3.011   4.172  10.207 -0.7064 -0.8268  1.2764
  180SLPC   C3420619   3.086   4.378  10.218 -0.4718  0.3638  0.3418
  180SLPC   H4X20620   3.089   4.458  10.295  1.3894 -0.7770  1.4908
  180SLPC   H4Y20621   3.031   4.397  10.123  2.5490 -1.8289 -1.9840
  180SLPC   C3520622   3.223   4.336  10.177 -0.7596  0.4097 -0.1718
  180SLPC   H5X20623   3.219   4.237  10.126 -0.1440  1.3476 -2.1112
  180SLPC   H5Y20624   3.284   4.324  10.268 -2.3873  1.7855  1.1269
  180SLPC   C3620625   3.291   4.438  10.083  0.0861 -0.3503  0.4478
  180SLPC   H6X20626   3.385   4.389  10.046 -0.2480 -1.4310  0.9932
  180SLPC   H6Y20627   3.318   4.522  10.150 -1.2697 -0.8227  1.6169
  180SLPC   C3720628   3.203   4.478   9.956  0.1913 -0.7061  0.2761
  180SLPC   H7X20629   3.266   4.543   9.891  0.6160  1.2883  2.6419
  180SLPC   H7Y20630   3.116   4.530  10.001 -0.2116 -0.7890 -0.3887
  180SLPC   C3820631   3.167   4.364   9.858 -0.3441  0.4039 -0.2522
  180SLPC   H8X20632   3.059   4.338   9.855 -0.5784  1.2378  0.5232
  180SLPC   H8Y20633   3.223   4.272   9.883 -2.0019 -0.6341 -0.2478
  180SLPC   C3920634   3.203   4.395   9.711  0.3491 -0.0985 -0.0557
  180SLPC   H9X20635   3.313   4.410   9.700  0.2607 -0.3298 -1.3854
  180SLPC   H9Y20636   3.145   4.487   9.688  0.3795  0.3201  1.4892
  180SLPC  C31020637   3.155   4.291   9.610  0.3045 -0.0439  0.1997
  180SLPC  H10X20638   3.048   4.277   9.635 -0.5303  3.0063 -1.3418
  180SLPC  H10Y20639   3.198   4.194   9.642 -2.2243 -0.9287  1.0081
  180SLPC  C31120640   3.173   4.316   9.460 -0.1506 -0.3290 -0.6987
  180SLPC  H11X20641   3.109   4.400   9.427  0.1981  0.2374  0.0504
  180SLPC  H11Y20642   3.131   4.228   9.407  1.5971 -1.9566  0.5440
  180SLPC  C31220643   3.317   4.350   9.418 -0.2811  0.1303  0.3333
  180SLPC  H12X20644   3.392   4.292   9.476  1.2347  1.6429 -0.0601
  180SLPC  H12Y20645   3.343   4.457   9.431  1.3702 -0.1382 -0.6573
  180SLPC  C31320646   3.351   4.325   9.268 -0.2726  1.1572  0.2221
  180SLPC  H13X20647   3.353   4.217   9.245 -1.5001  1.0437  0.6247
  180SLPC  H13Y20648   3.453   4.371   9.261 -0.4819  1.8973  1.7595
  180SLPC  C31420649   3.256   4.380   9.165  0.0480 -0.4280  0.1960
  180SLPC  H14X20650   3.225   4.479   9.204  2.6745  0.4013  0.2841
  180SLPC  H14Y20651   3.173   4.306   9.154  1.3223 -1.8454 -0.0240
  180SLPC  C31520652   3.324   4.408   9.032 -0.1539  0.3412  0.5264
  180SLPC  H15X20653   3.242   4.414   8.957  0.4594  0.7904 -0.1177
  180SLPC  H15Y20654   3.398   4.327   9.019 -0.1014  0.2713  1.2572
  180SLPC  C31620655   3.395   4.541   9.033  0.0003  0.5441  0.5432
  180SLPC  H16X20656   3.492   4.536   9.087  0.3606 -0.7797 -0.2299
  180SLPC  H16Y20657   3.322   4.613   9.076 -0.1504  0.9385 -0.3540
  180SLPC  C31720658   3.421   4.575   8.883  0.1069  0.0793  0.1654
  180SLPC  H17X20659   3.426   4.685   8.873  1.8303 -0.2334 -3.0156
  180SLPC  H17Y20660   3.327   4.544   8.833  1.3112  2.4362 -3.8306
  180SLPC  C31820661   3.543   4.507   8.806 -0.3664  0.3417  0.2427
  180SLPC  H18X20662   3.546   4.398   8.827  1.3863 -0.0694 -1.9730
  180SLPC  H18Y20663   3.640   4.550   8.839  0.1995 -0.7257 -0.0161
  180SLPC  H18Z20664   3.546   4.523   8.696  0.1867  1.4364  0.4074
  181SLPC     N20665   5.877   1.989  11.165 -0.8905  0.0970 -0.2538
  181SLPC   C1320666   5.871   1.847  11.096  0.6029  0.4561  0.0802
  181SLPC  H13A20667   5.969   1.822  11.058 -0.1767 -0.7521 -1.2055
  181SLPC  H13B20668   5.828   1.776  11.164 -0.8179  1.2899  0.0771
  181SLPC  H13C20669   5.800   1.867  11.017 -0.1643 -1.8187  0.1712
  181SLPC   C1420670   5.963   1.969  11.288  0.1331 -0.3026  0.0505
  181SLPC  H14A20671   5.916   1.900  11.357 -1.2938  1.7114  1.1202
  181SLPC  H14B20672   6.068   1.955  11.264  0.6412 -3.2474  3.6532
  181SLPC  H14C20673   5.970   2.062  11.342  0.1665 -0.9924  1.2570
  181SLPC   C1520674   5.741   2.029  11.213  0.4131  0.4210 -0.0308
  181SLPC  H15A20675   5.734   2.120  11.271 -0.2538 -0.5293  1.3988
  181SLPC  H15B20676   5.687   2.055  11.123 -0.7582  0.8348  0.7813
  181SLPC  H15C20677   5.692   1.954  11.273 -0.2720  0.3325 -0.6826
  181SLPC   C1220678   5.941   2.081  11.066  0.3404 -0.2390  0.2887
  181SLPC  H12A20679   6.034   2.041  11.028 -0.5461  0.1293 -2.3107
  181SLPC  H12B20680   5.969   2.172  11.116  0.3127  0.3880 -0.8362
  181SLPC   C1120681   5.860   2.121  10.947  0.5125 -0.4488 -0.0872
  181SLPC  H11A20682   5.816   2.028  10.904 -0.9048  0.2652 -0.2284
  181SLPC  H11B20683   5.927   2.164  10.870 -0.8467 -0.1405 -1.1172
  181SLPC     P20684   5.778   2.364  11.017 -0.2059 -0.1952 -0.2968
  181SLPC   O1320685   5.652   2.435  11.039  0.7683  0.0680  0.2915
  181SLPC   O1420686   5.875   2.373  11.129  0.1116  0.1375  0.4759
  181SLPC   O1220687   5.752   2.211  10.972 -0.3197  0.1681 -0.0597
  181SLPC   O1120688   5.839   2.419  10.882 -0.4708  0.1503 -0.8060
  181SLPC    C120689   5.760   2.400  10.769 -0.5941 -0.6977 -0.4599
  181SLPC    HA20690   5.755   2.295  10.736 -3.4831 -0.4983 -0.7042
  181SLPC    HB20691   5.657   2.437  10.789 -0.3617  0.4220 -1.2539
  181SLPC    C220692   5.820   2.493  10.660 -0.3045 -0.7022  0.3385
  181SLPC    HS20693   5.836   2.589  10.713  0.5642 -1.2594  1.0987
  181SLPC   O2120694   5.727   2.503  10.549  0.0904  0.0694  0.2423
  181SLPC   C2120695   5.660   2.611  10.538 -0.1156  0.1537  0.6059
  181SLPC   O2220696   5.660   2.709  10.616  0.0277  0.2665  0.7488
  181SLPC   C2220697   5.574   2.603  10.410  0.2321 -0.3242  0.4437
  181SLPC   H2R20698   5.527   2.502  10.408 -1.5533  0.5004 -0.5949
  181SLPC   H2S20699   5.492   2.676  10.424 -0.4800 -0.9011 -0.6378
  181SLPC    C320700   5.958   2.447  10.613 -0.3215 -0.8126  0.0448
  181SLPC    HX20701   5.933   2.346  10.573 -1.9611 -0.2717 -0.3328
  181SLPC    HY20702   6.025   2.439  10.702 -1.2997 -0.5632  0.8251
  181SLPC   O3120703   6.008   2.535  10.512  0.6959  0.1844  0.4252
  181SLPC   C3120704   6.073   2.646  10.552  0.3464 -0.7719  1.0308
  181SLPC   O3220705   6.105   2.669  10.665 -0.1307  0.6191 -0.2506
  181SLPC   C3220706   6.104   2.735  10.436 -0.0758 -0.1007 -0.0136
  181SLPC   H2X20707   6.210   2.764  10.420 -0.4562  1.2420 -0.1453
  181SLPC   H2Y20708   6.045   2.825  10.462  0.1445 -0.1641  0.7220
  181SLPC   C2320709   5.642   2.620  10.271 -0.0649 -0.8372  0.7673
  181SLPC   H3R20710   5.674   2.517  10.243 -0.7971 -1.3170  1.6744
  181SLPC   H3S20711   5.732   2.685  10.271  1.4310 -2.8376  0.4501
  181SLPC   C2420712   5.552   2.678  10.159 -0.0872  0.3623 -0.5614
  181SLPC   H4R20713   5.540   2.787  10.173 -1.7039  0.0591  0.5627
  181SLPC   H4S20714   5.446   2.650  10.175  0.0840 -0.4245 -0.7734
  181SLPC   C2520715   5.605   2.660  10.012  0.2372  0.5129 -0.6774
  181SLPC   H5R20716   5.608   2.551   9.992  0.1342  0.2872  0.4972
  181SLPC   H5S20717   5.710   2.696  10.009  0.3207  0.2628 -0.8156
  181SLPC   C2620718   5.508   2.728   9.910 -0.5475  0.5574 -0.1555
  181SLPC   H6R20719   5.525   2.837   9.923  0.1301  0.3052  1.1174
  181SLPC   H6S20720   5.402   2.696   9.923 -1.0030  2.4438  0.8126
  181SLPC   C2720721   5.551   2.688   9.761 -0.4139 -0.1726  0.1097
  181SLPC   H7R20722   5.460   2.672   9.700 -1.3540  1.0164  1.1540
  181SLPC   H7S20723   5.607   2.593   9.773 -0.2240 -0.3587 -2.0975
  181SLPC   C2820724   5.644   2.797   9.699  0.6039 -0.1750  0.3273
  181SLPC   H8R20725   5.696   2.758   9.609 -2.2464  0.6947 -1.7804
  181SLPC   H8S20726   5.733   2.820   9.760 -0.1727 -0.8199  1.7332
  181SLPC   C2920727   5.570   2.920   9.661  0.5008  0.2624  0.4563
  181SLPC   H9R20728   5.512   2.969   9.740  1.2383  0.3069  0.9634
  181SLPC  C21020729   5.563   2.964   9.533  0.4249  0.0468 -1.4231
  181SLPC  H10R20730   5.498   3.051   9.512  1.0817  1.5237  2.1944
  181SLPC  C21120731   5.637   2.911   9.413 -0.5688 -0.5798  0.1386
  181SLPC  H11R20732   5.652   2.801   9.420 -0.4926 -0.6335 -0.8101
  181SLPC  H11S20733   5.731   2.968   9.398 -0.8403  0.1502  1.1694
  181SLPC  C21220734   5.573   2.930   9.280  0.4658  0.5306 -0.7514
  181SLPC  H12R20735   5.478   2.986   9.277 -1.5191 -2.4246  2.9627
  181SLPC  C21320736   5.621   2.870   9.170  0.4713  0.2822 -0.3403
  181SLPC  H13R20737   5.572   2.897   9.075  1.4203 -3.2597 -1.8904
  181SLPC  C21420738   5.744   2.782   9.157  0.1596 -0.2862 -0.2687
  181SLPC  H14R20739   5.810   2.808   9.243  1.9499  1.3990 -2.0866
  181SLPC  H14S20740   5.792   2.808   9.061  0.3427 -0.8481 -0.3333
  181SLPC  C21520741   5.729   2.634   9.155  0.0120  0.9185 -0.8822
  181SLPC  H15R20742   5.672   2.607   9.246 -1.3761 -1.5575 -2.4147
  181SLPC  H15S20743   5.826   2.579   9.161 -0.1309  0.9486  2.9377
  181SLPC  C21620744   5.644   2.570   9.039 -0.9603 -0.7575 -0.2655
  181SLPC  H16R20745   5.538   2.597   9.055 -1.2786 -1.7281 -0.6775
  181SLPC  H16S20746   5.661   2.461   9.057 -1.4018 -0.8373 -0.3194
  181SLPC  C21720747   5.690   2.599   8.897 -0.2547 -0.7548  0.3064
  181SLPC  H17R20748   5.795   2.575   8.873  0.7155  3.5401 -0.0544
  181SLPC  H17S20749   5.691   2.708   8.878 -2.5678 -0.7155  0.2609
  181SLPC  C21820750   5.585   2.562   8.802  0.7950 -0.4321 -0.2284
  181SLPC  H18R20751   5.543   2.459   8.812 -3.0196  0.9602 -1.0459
  181SLPC  H18S20752   5.610   2.578   8.695 -1.9776  0.2912 -0.8264
  181SLPC  H18T20753   5.494   2.627   8.806  0.7725 -0.5413  4.1181
  181SLPC   C3320754   6.060   2.677  10.302 -0.1586 -0.1760 -0.5641
  181SLPC   H3X20755   5.951   2.662  10.319 -0.2024 -0.6861 -1.2649
  181SLPC   H3Y20756   6.106   2.578  10.280 -0.1628 -0.2808 -0.0955
  181SLPC   C3420757   6.084   2.778  10.194 -0.1785  0.2743  0.4053
  181SLPC   H4X20758   6.189   2.810  10.212 -0.1877 -1.1233  3.2069
  181SLPC   H4Y20759   6.025   2.872  10.199 -0.3246  0.1179  1.8284
  181SLPC   C3520760   6.065   2.714  10.055 -0.5347  0.6199 -0.0234
  181SLPC   H5X20761   5.966   2.665  10.048 -0.0043 -0.4408 -0.2568
  181SLPC   H5Y20762   6.139   2.631  10.049  1.7461  2.5411  0.4829
  181SLPC   C3620763   6.105   2.805   9.939  0.2996 -0.0525 -0.3771
  181SLPC   H6X20764   6.214   2.822   9.947  0.3707 -0.8739  0.4958
  181SLPC   H6Y20765   6.055   2.904   9.945 -1.8987 -1.1220 -0.2168
  181SLPC   C3720766   6.085   2.745   9.799 -0.0044  0.1409 -0.0674
  181SLPC   H7X20767   5.993   2.683   9.799 -0.2518  0.4904 -1.9373
  181SLPC   H7Y20768   6.169   2.677   9.771 -0.4410 -0.2260 -0.4843
  181SLPC   C3820769   6.068   2.853   9.693  1.0863  0.0951 -0.0595
  181SLPC   H8X20770   6.158   2.915   9.710  1.1463 -0.0092 -0.0010
  181SLPC   H8Y20771   5.976   2.912   9.714  0.4241 -1.0666  0.3528
  181SLPC   C3920772   6.087   2.799   9.550  0.8727 -0.3641  1.0358
  181SLPC   H9X20773   6.015   2.721   9.514 -0.9412  1.3929  0.7413
  181SLPC   H9Y20774   6.190   2.762   9.534 -0.2672 -2.5671 -1.8321
  181SLPC  C31020775   6.073   2.914   9.446 -0.1510 -0.7238 -0.0290
  181SLPC  H10X20776   6.161   2.981   9.456 -0.2330 -0.8629  1.7982
  181SLPC  H10Y20777   5.978   2.971   9.447 -0.3877 -1.0372 -2.0815
  181SLPC  C31120778   6.091   2.857   9.304 -0.1463 -0.1193  0.4938
  181SLPC  H11X20779   6.017   2.773   9.306  0.6197 -0.8091  0.3891
  181SLPC  H11Y20780   6.189   2.803   9.300 -1.3248 -2.4122  1.2467
  181SLPC  C31220781   6.071   2.956   9.187 -0.2179  0.3954  0.6984
  181SLPC  H12X20782   6.117   3.055   9.204 -2.2646  1.2833  1.1735
  181SLPC  H12Y20783   5.962   2.974   9.172 -0.3689 -1.0557 -0.0267
  181SLPC  C31320784   6.129   2.899   9.055 -0.4435 -0.4185  0.1785
  181SLPC  H13X20785   6.072   2.805   9.043  0.7921 -0.9100 -2.0362
  181SLPC  H13Y20786   6.238   2.879   9.062 -0.3687  0.0280  0.3453
  181SLPC  C31420787   6.102   2.995   8.944  0.2257 -0.5867  1.2778
  181SLPC  H14X20788   6.168   3.082   8.963 -1.4931  1.3981 -1.3788
  181SLPC  H14Y20789   5.997   3.029   8.938  0.3059 -0.7352 -2.0474
  181SLPC  C31520790   6.130   2.926   8.809  0.4649 -0.1810 -0.6728
  181SLPC  H15X20791   6.055   2.849   8.779  1.1194 -0.4998 -1.4965
  181SLPC  H15Y20792   6.225   2.870   8.815  0.3735 -0.5266 -2.1919
  181SLPC  C31620793   6.133   3.020   8.690 -0.5142  0.5825 -0.1321
  181SLPC  H16X20794   6.203   3.099   8.727 -1.3224  0.6871  1.2223
  181SLPC  H16Y20795   6.036   3.066   8.661 -1.3774 -0.5660  0.8755
  181SLPC  C31720796   6.206   2.970   8.569  0.2195  1.0057  0.2851
  181SLPC  H17X20797   6.303   2.920   8.586 -0.3380  0.4298  1.8077
  181SLPC  H17Y20798   6.222   3.055   8.499  0.7570  1.2719  0.7341
  181SLPC  C31820799   6.114   2.881   8.481  0.6973 -0.0886  0.1023
  181SLPC  H18X20800   6.029   2.939   8.439  0.6348  0.8193  1.4552
  181SLPC  H18Y20801   6.075   2.799   8.545  2.1663  1.3779  2.9846
  181SLPC  H18Z20802   6.171   2.839   8.396 -2.0144 -1.8694 -0.9145
  182SLPC     N20803   4.260   3.909  10.948  0.3697 -0.2035  0.3290
  182SLPC   C1320804   4.278   3.959  11.085 -0.3578  0.5099 -0.8381
  182SLPC  H13A20805   4.355   3.911  11.145  0.4846 -0.3427 -2.5603
  182SLPC  H13B20806   4.304   4.063  11.077 -0.3513  0.8672  2.9734
  182SLPC  H13C20807   4.187   3.937  11.139  0.2052 -0.6201 -0.3176
  182SLPC   C1420808   4.390   3.930  10.877  0.0460 -0.0605  0.3244
  182SLPC  H14A20809   4.477   3.895  10.930  0.2055  0.3342  0.3291
  182SLPC  H14B20810   4.380   3.877  10.784 -2.5648  0.1681  0.4240
  182SLPC  H14C20811   4.404   4.032  10.844 -1.7107 -0.5710 -2.2171
  182SLPC   C1520812   4.154   3.981  10.874 -0.7037  0.6669 -0.1523
  182SLPC  H15A20813   4.157   3.964  10.768 -0.0324 -2.5512  0.3271
  182SLPC  H15B20814   4.059   3.957  10.919 -1.1422 -0.1980 -1.5242
  182SLPC  H15C20815   4.153   4.087  10.894  0.8759  0.6232  0.1728
  182SLPC   C1220816   4.227   3.757  10.946 -0.3506 -0.5638 -0.3544
  182SLPC  H12A20817   4.140   3.736  11.006  0.6037 -1.4834  0.7327
  182SLPC  H12B20818   4.310   3.709  10.996 -2.2196  0.4907  4.0254
  182SLPC   C1120819   4.213   3.672  10.818  0.1879  0.9483 -0.1426
  182SLPC  H11A20820   4.151   3.715  10.736  0.1157  2.0089  0.4693
  182SLPC  H11B20821   4.169   3.575  10.850  0.0999  0.6720 -1.0634
  182SLPC     P20822   4.432   3.538  10.826 -0.3068 -0.0338 -0.1389
  182SLPC   O1320823   4.572   3.559  10.786  0.3638 -0.5164 -0.2280
  182SLPC   O1420824   4.409   3.527  10.972  0.0085 -0.3637  0.4481
  182SLPC   O1220825   4.344   3.659  10.766 -0.5525  0.1370  0.6762
  182SLPC   O1120826   4.374   3.408  10.751  0.5856 -0.3058 -0.2098
  182SLPC    C120827   4.386   3.390  10.611 -0.4184  0.6785  0.4560
  182SLPC    HA20828   4.466   3.451  10.563  0.4188 -0.3960  0.4641
  182SLPC    HB20829   4.398   3.280  10.596  1.2111  0.8925  0.0456
  182SLPC    C220830   4.255   3.424  10.537 -0.3186 -0.1057 -0.4303
  182SLPC    HS20831   4.231   3.523  10.580 -1.0754 -0.9777  1.2071
  182SLPC   O2120832   4.152   3.328  10.577 -0.2901  0.6690  0.2359
  182SLPC   C2120833   4.030   3.369  10.546 -0.0711  0.7339  0.3236
  182SLPC   O2220834   4.002   3.486  10.523 -0.3794  0.3478 -0.4618
  182SLPC   C2220835   3.944   3.242  10.538  0.1412  0.2541  0.7655
  182SLPC   H2R20836   4.004   3.156  10.502 -1.4332  0.6026 -2.9234
  182SLPC   H2S20837   3.902   3.230  10.640  1.0715  0.2310  1.1540
  182SLPC    C320838   4.282   3.425  10.379 -0.7355  0.5150  0.1230
  182SLPC    HX20839   4.372   3.489  10.369 -0.5683  0.3465  0.5174
  182SLPC    HY20840   4.190   3.465  10.331 -1.8066  0.4736  2.0801
  182SLPC   O3120841   4.318   3.296  10.326  0.0924 -0.2339 -0.1147
  182SLPC   C3120842   4.415   3.291  10.233  0.5707 -0.0659 -1.0254
  182SLPC   O3220843   4.465   3.390  10.174  0.1375  0.1010 -0.0257
  182SLPC   C3220844   4.454   3.148  10.228 -0.2145 -0.8175 -0.7250
  182SLPC   H2X20845   4.355   3.097  10.221 -1.3780  1.3438 -0.7337
  182SLPC   H2Y20846   4.505   3.122  10.323 -0.5637 -1.4098 -0.6940
  182SLPC   C2320847   3.827   3.259  10.441  0.6247 -0.0074 -0.2767
  182SLPC   H3R20848   3.759   3.338  10.480  0.5849 -0.9835  1.7203
  182SLPC   H3S20849   3.773   3.163  10.432 -1.1309  0.5905  2.8880
  182SLPC   C2420850   3.875   3.297  10.299  0.2081  0.3879  0.6457
  182SLPC   H4R20851   3.930   3.394  10.299 -2.4743  1.9673  0.0788
  182SLPC   H4S20852   3.785   3.317  10.237  0.8708  1.5570  0.0459
  182SLPC   C2520853   3.954   3.175  10.249  0.0363 -0.4230  0.0560
  182SLPC   H5R20854   3.889   3.086  10.261  0.9650 -1.0311  0.5603
  182SLPC   H5S20855   4.055   3.181  10.294 -0.3369  0.8101  0.7638
  182SLPC   C2620856   3.983   3.191  10.100 -0.0798 -0.4100  0.0704
  182SLPC   H6R20857   4.036   3.288  10.092  0.2333 -0.6086 -0.2681
  182SLPC   H6S20858   3.888   3.218  10.048 -0.2308 -0.2720  0.4185
  182SLPC   C2720859   4.052   3.077  10.028 -0.2759  0.7620  0.7312
  182SLPC   H7R20860   3.980   2.993  10.036  1.6102 -1.0046 -0.3166
  182SLPC   H7S20861   4.142   3.039  10.081  1.7709  2.4323 -1.4336
  182SLPC   C2820862   4.103   3.096   9.885 -0.5400  0.4597 -0.6326
  182SLPC   H8R20863   4.169   3.185   9.873  0.1520 -0.1073 -1.0799
  182SLPC   H8S20864   4.018   3.136   9.825 -0.0607  0.4316 -1.3411
  182SLPC   C2920865   4.149   2.975   9.812  0.4086 -0.0313  0.3149
  182SLPC   H9R20866   4.157   2.882   9.871 -0.6176 -0.0270  0.4751
  182SLPC  C21020867   4.179   2.964   9.678  0.0308  0.1308 -0.4043
  182SLPC  H10R20868   4.200   2.866   9.635 -1.0013 -0.1991 -0.1929
  182SLPC  C21120869   4.168   3.076   9.580  0.6600 -0.0475 -0.8415
  182SLPC  H11R20870   4.089   3.147   9.614  0.5962 -0.2841 -0.4902
  182SLPC  H11S20871   4.129   3.031   9.486 -1.6191 -1.9959  0.9649
  182SLPC  C21220872   4.296   3.158   9.573  0.7236  0.4327 -0.5712
  182SLPC  H12R20873   4.361   3.171   9.661 -0.3563 -0.6296  0.4069
  182SLPC  C21320874   4.335   3.235   9.473  0.2507  0.3195  0.4181
  182SLPC  H13R20875   4.433   3.285   9.481  0.4529  0.0548 -0.3572
  182SLPC  C21420876   4.268   3.259   9.341 -0.3855 -0.2926 -0.3715
  182SLPC  H14R20877   4.232   3.364   9.338  0.5324  0.0955  1.6671
  182SLPC  H14S20878   4.175   3.198   9.332 -1.9618  1.9634  0.1802
  182SLPC  C21520879   4.359   3.231   9.215  0.5725 -0.1520  0.2992
  182SLPC  H15R20880   4.414   3.135   9.207 -1.4263 -1.1984 -1.6355
  182SLPC  H15S20881   4.437   3.309   9.209 -1.7586  2.3111  0.8924
  182SLPC  C21620882   4.264   3.230   9.090  0.1352  0.4019 -0.6504
  182SLPC  H16R20883   4.201   3.321   9.102 -1.9236 -1.1179  0.4145
  182SLPC  H16S20884   4.194   3.144   9.095  0.2051  0.2185 -2.4463
  182SLPC  C21720885   4.338   3.213   8.952  0.2595  0.5892 -0.4058
  182SLPC  H17R20886   4.253   3.167   8.897  2.5038 -1.5557 -2.2102
  182SLPC  H17S20887   4.410   3.129   8.965  0.4984  0.8890  0.2493
  182SLPC  C21820888   4.394   3.340   8.884 -0.0182  0.9000 -0.0024
  182SLPC  H18R20889   4.317   3.416   8.859  0.0278  1.2392  0.8845
  182SLPC  H18S20890   4.440   3.299   8.792  0.4014  0.3674  0.4439
  182SLPC  H18T20891   4.470   3.393   8.945 -0.7129  1.2859  0.5313
  182SLPC   C3320892   4.561   3.123  10.122  0.6713  0.4028  0.3571
  182SLPC   H3X20893   4.601   3.020  10.122 -1.5921 -0.5306 -2.3440
  182SLPC   H3Y20894   4.649   3.191  10.132  0.4929  1.2808 -3.2497
  182SLPC   C3420895   4.514   3.142   9.977  0.0841 -0.2437  0.3885
  182SLPC   H4X20896   4.465   3.241   9.975  1.6956  0.5398 -1.7584
  182SLPC   H4Y20897   4.436   3.064   9.973  0.1734 -0.2355 -2.5173
  182SLPC   C3520898   4.622   3.139   9.869 -0.0922  0.4461  0.3747
  182SLPC   H5X20899   4.573   3.116   9.772 -0.0508 -1.4969  0.7827
  182SLPC   H5Y20900   4.680   3.045   9.882 -1.8069 -0.7570 -0.5094
  182SLPC   C3620901   4.719   3.255   9.856  0.5167  0.1306  1.0881
  182SLPC   H6X20902   4.790   3.254   9.941  3.4390 -0.4682 -1.2857
  182SLPC   H6Y20903   4.664   3.350   9.875 -1.1025 -0.6285  0.2611
  182SLPC   C3720904   4.817   3.242   9.731  0.0146 -0.2810 -0.4944
  182SLPC   H7X20905   4.858   3.141   9.751  0.0312 -0.6389 -2.3150
  182SLPC   H7Y20906   4.901   3.314   9.734  0.9411 -1.2795 -1.9748
  182SLPC   C3820907   4.745   3.270   9.600 -0.0416 -0.3153 -0.7614
  182SLPC   H8X20908   4.721   3.379   9.606  0.3273 -0.2830  0.3957
  182SLPC   H8Y20909   4.646   3.220   9.596 -0.2035 -0.1429  0.8289
  182SLPC   C3920910   4.804   3.227   9.467 -0.1714 -0.2352  0.1566
  182SLPC   H9X20911   4.844   3.123   9.465  0.9832  0.1685  1.4164
  182SLPC   H9Y20912   4.896   3.283   9.442 -0.0173 -0.8528 -0.6739
  182SLPC  C31020913   4.707   3.251   9.349 -0.3796 -0.4601  0.4503
  182SLPC  H10X20914   4.677   3.358   9.357 -1.4879 -0.7904  0.8742
  182SLPC  H10Y20915   4.608   3.202   9.365 -1.2079  1.2749  0.7525
  182SLPC  C31120916   4.769   3.227   9.211 -0.3409  0.0917 -0.0102
  182SLPC  H11X20917   4.873   3.266   9.205  0.2126 -1.2432  0.6597
  182SLPC  H11Y20918   4.720   3.293   9.137  0.1175  0.9852  0.4774
  182SLPC  C31220919   4.767   3.082   9.176  0.1254  0.0300 -0.2062
  182SLPC  H12X20920   4.662   3.047   9.168  1.0572 -2.3007 -2.9607
  182SLPC  H12Y20921   4.806   3.033   9.267  2.0184  2.4597  0.3489
  182SLPC  C31320922   4.835   3.031   9.049  0.8518  0.3112  0.5321
  182SLPC  H13X20923   4.793   2.928   9.038  0.6938  0.1218  2.6909
  182SLPC  H13Y20924   4.943   3.030   9.071  0.8997  1.1026  0.3385
  182SLPC  C31420925   4.805   3.110   8.924  1.0038  0.0089 -0.0463
  182SLPC  H14X20926   4.820   3.220   8.931  0.3820 -0.0315  1.9944
  182SLPC  H14Y20927   4.700   3.099   8.889  0.7193  3.7203 -0.6239
  182SLPC  C31520928   4.904   3.077   8.811 -0.1503  0.0248 -0.9795
  182SLPC  H15X20929   5.010   3.067   8.844 -0.0637 -1.7038 -1.7049
  182SLPC  H15Y20930   4.884   3.146   8.727 -0.7769 -0.1620 -0.9917
  182SLPC  C31620931   4.864   2.938   8.743  0.2737  0.4646 -0.5294
  182SLPC  H16X20932   4.754   2.942   8.732  0.3907  1.0344 -1.5215
  182SLPC  H16Y20933   4.894   2.856   8.812  1.5185  0.2046 -1.3620
  182SLPC  C31720934   4.934   2.937   8.605  0.0552  0.3183 -0.5617
  182SLPC  H17X20935   5.039   2.960   8.634 -0.7323  2.2159  0.8656
  182SLPC  H17Y20936   4.902   3.021   8.541  0.9627  1.5111  0.5174
  182SLPC  C31820937   4.930   2.804   8.529 -0.3730  0.4079  0.2926
  182SLPC  H18X20938   4.981   2.829   8.434 -0.2400  0.9823  0.5149
  182SLPC  H18Y20939   4.831   2.757   8.509 -0.0044 -0.6660  0.9391
  182SLPC  H18Z20940   4.979   2.721   8.584 -1.8179 -0.4493  0.3090
  183SLPC     N20941   5.628   4.250  11.225  0.7130 -0.0089  0.0854
  183SLPC   C1320942   5.669   4.233  11.366  0.2414 -0.3346 -0.0864
  183SLPC  H13A20943   5.656   4.329  11.413 -1.7916 -0.0488 -1.1753
  183SLPC  H13B20944   5.596   4.168  11.413 -0.6177 -0.1220 -1.1057
  183SLPC  H13C20945   5.769   4.194  11.378 -0.1616 -1.2408  0.4177
  183SLPC   C1420946   5.488   4.310  11.232 -0.4590 -0.1122 -0.6237
  183SLPC  H14A20947   5.454   4.349  11.138 -0.1450 -3.3554 -2.1580
  183SLPC  H14B20948   5.410   4.242  11.262 -1.2829  1.2699  0.4198
  183SLPC  H14C20949   5.489   4.386  11.308 -0.9349  0.4272 -1.1586
  183SLPC   C1520950   5.632   4.121  11.155  0.2245  0.2583 -0.8061
  183SLPC  H15A20951   5.566   4.045  11.194  1.7317 -0.6231  0.0751
  183SLPC  H15B20952   5.608   4.137  11.051 -2.0485  1.4619 -0.1403
  183SLPC  H15C20953   5.732   4.079  11.157 -0.2758 -0.9034  0.3466
  183SLPC   C1220954   5.725   4.342  11.163 -0.6491 -0.4732 -0.3091
  183SLPC  H12A20955   5.828   4.311  11.173 -0.1622  1.0576 -0.4945
  183SLPC  H12B20956   5.733   4.433  11.220 -2.2714  1.4368 -3.0201
  183SLPC   C1120957   5.702   4.377  11.014 -0.0641  0.0364 -0.6297
  183SLPC  H11A20958   5.708   4.284  10.953 -1.4708 -0.0462 -0.6578
  183SLPC  H11B20959   5.789   4.442  10.990  0.2045 -0.8317 -2.0695
  183SLPC     P20960   5.555   4.597  11.009 -0.0763  0.0771 -0.0898
  183SLPC   O1320961   5.418   4.612  11.052 -0.4158  0.1309 -0.0747
  183SLPC   O1420962   5.666   4.643  11.094  0.1440  0.4547 -0.0132
  183SLPC   O1220963   5.577   4.443  10.990  0.7342  0.3104 -0.0670
  183SLPC   O1120964   5.572   4.647  10.857 -0.1924 -0.3308 -0.0675
  183SLPC    C120965   5.493   4.609  10.749 -0.2905  0.4657  0.1673
  183SLPC    HA20966   5.464   4.503  10.764  1.5621  0.1605  1.6961
  183SLPC    HB20967   5.395   4.661  10.757 -1.2291 -1.1577 -0.4623
  183SLPC    C220968   5.567   4.618  10.606  1.0930 -0.0941 -0.2123
  183SLPC    HS20969   5.491   4.600  10.528  1.8435 -0.5686 -0.8472
  183SLPC   O2120970   5.681   4.529  10.592 -0.5799 -0.4572  0.0875
  183SLPC   C2120971   5.652   4.410  10.572 -0.3701 -0.0281 -0.3884
  183SLPC   O2220972   5.537   4.360  10.571  0.0823  0.3047  0.6663
  183SLPC   C2220973   5.779   4.327  10.552  0.6385  0.3300  0.4553
  183SLPC   H2R20974   5.858   4.395  10.512  0.6501  0.3630  0.5364
  183SLPC   H2S20975   5.815   4.299  10.653 -2.2166  0.1782  1.4770
  183SLPC    C320976   5.618   4.762  10.573 -0.6235  0.7739  0.1082
  183SLPC    HX20977   5.706   4.789  10.635 -0.3603  0.0153  0.0678
  183SLPC    HY20978   5.530   4.825  10.599 -1.0776  0.8347 -1.5456
  183SLPC   O3120979   5.634   4.773  10.428 -0.2689 -0.0899  0.1814
  183SLPC   C3120980   5.750   4.822  10.390  0.2915  0.6181 -0.7462
  183SLPC   O3220981   5.843   4.861  10.458  0.1394 -0.0961  0.4893
  183SLPC   C3220982   5.759   4.814  10.233  0.0364 -0.1193  0.1939
  183SLPC   H2X20983   5.810   4.903  10.192 -0.3919  0.4766  0.9394
  183SLPC   H2Y20984   5.651   4.820  10.207  0.2329  0.7400 -0.4554
  183SLPC   C2320985   5.758   4.187  10.489  0.1649 -0.2525  0.2520
  183SLPC   H3R20986   5.659   4.152  10.527 -0.1136  0.0364 -0.1974
  183SLPC   H3S20987   5.847   4.122  10.500  0.1226 -0.5556 -1.1521
  183SLPC   C2420988   5.743   4.198  10.339  0.7363 -0.8153  0.1755
  183SLPC   H4R20989   5.836   4.226  10.283  1.0479 -0.7203  0.7347
  183SLPC   H4S20990   5.674   4.278  10.304 -0.4242 -1.3719  1.1553
  183SLPC   C2520991   5.695   4.069  10.274 -0.2992 -0.3439  0.4167
  183SLPC   H5R20992   5.592   4.048  10.310 -1.4219  1.0920 -1.8732
  183SLPC   H5S20993   5.759   3.991  10.321 -0.7994 -1.7789 -1.1873
  183SLPC   C2620994   5.687   4.065  10.119  0.6893 -0.2668 -0.7799
  183SLPC   H6R20995   5.656   3.961  10.095  1.4887 -0.7013  0.0208
  183SLPC   H6S20996   5.786   4.085  10.074  0.1988  2.3421 -0.8021
  183SLPC   C2720997   5.580   4.171  10.070 -0.2741  0.0238  0.3730
  183SLPC   H7R20998   5.626   4.271  10.086 -0.5683  0.4000 -1.0114
  183SLPC   H7S20999   5.496   4.164  10.142  1.7245  3.0208  3.1837
  183SLPC   C2821000   5.547   4.149   9.920  0.4353 -0.8253  0.5726
  183SLPC   H8R21001   5.449   4.200   9.906  0.5185 -0.4027  1.5524
  183SLPC   H8S21002   5.545   4.041   9.895  2.1550 -0.3139 -1.9628
  183SLPC   C2921003   5.655   4.213   9.833  0.5371 -0.1454 -0.6638
  183SLPC   H9R21004   5.721   4.282   9.888 -0.9049 -0.1038  1.0777
  183SLPC  C21021005   5.668   4.198   9.699 -0.5153  0.4779  0.6841
  183SLPC  H10R21006   5.740   4.261   9.646  2.1361 -1.8520  1.3976
  183SLPC  C21121007   5.597   4.104   9.603 -0.3052 -0.8713 -0.3425
  183SLPC  H11R21008   5.527   4.041   9.663 -1.6130  1.3603  0.5196
  183SLPC  H11S21009   5.663   4.024   9.563  1.1770  0.4925 -0.6819
  183SLPC  C21221010   5.516   4.169   9.499 -0.3300 -0.1925 -0.0438
  183SLPC  H12R21011   5.422   4.216   9.532 -1.0032  0.2182 -2.4240
  183SLPC  C21321012   5.531   4.171   9.364 -0.7561  0.4000  0.1395
  183SLPC  H13R21013   5.454   4.206   9.294  0.0008  0.1565 -0.8305
  183SLPC  C21421014   5.644   4.108   9.291 -0.2020  0.1316 -0.1228
  183SLPC  H14R21015   5.610   4.005   9.266 -0.5326  0.4296 -0.9344
  183SLPC  H14S21016   5.736   4.091   9.350 -0.4466  0.2355  0.2856
  183SLPC  C21521017   5.685   4.176   9.158  0.2237  0.1434  0.7259
  183SLPC  H15R21018   5.597   4.176   9.089  0.2493  0.3111  0.6955
  183SLPC  H15S21019   5.764   4.116   9.109  1.0856 -0.9520  3.3905
  183SLPC  C21621020   5.741   4.313   9.189 -0.7785 -0.0928  0.6060
  183SLPC  H16R21021   5.825   4.305   9.261  0.1535  1.8050 -0.2249
  183SLPC  H16S21022   5.682   4.394   9.236  0.1765  1.1169 -0.2340
  183SLPC  C21721023   5.791   4.381   9.062  0.3149 -0.0053 -0.0068
  183SLPC  H17R21024   5.707   4.431   9.009  0.2613  1.0427  1.0517
  183SLPC  H17S21025   5.843   4.305   8.999  0.5469  0.1533 -0.0061
  183SLPC  C21821026   5.892   4.494   9.086  0.7614 -0.4192  0.4238
  183SLPC  H18R21027   5.991   4.448   9.106  0.9999  0.4756  1.3456
  183SLPC  H18S21028   5.860   4.553   9.175 -0.0991 -2.2868  1.3954
  183SLPC  H18T21029   5.909   4.562   9.001  0.7817  3.6417  3.5106
  183SLPC   C3321030   5.818   4.686  10.172  0.0903  0.0725 -0.0414
  183SLPC   H3X21031   5.744   4.606  10.192  0.4073 -0.9206 -2.5567
  183SLPC   H3Y21032   5.917   4.653  10.209  0.8601  2.7004  0.3722
  183SLPC   C3421033   5.835   4.688  10.020 -0.1797 -0.3391 -0.0470
  183SLPC   H4X21034   5.879   4.786   9.991 -2.1940  0.2252 -1.2264
  183SLPC   H4Y21035   5.733   4.686   9.976  0.1806  1.7633 -0.9997
  183SLPC   C3521036   5.924   4.580   9.969 -0.1951  0.4955  0.2410
  183SLPC   H5X21037   5.867   4.486   9.982  0.4987  0.1640  0.9276
  183SLPC   H5Y21038   6.016   4.576  10.031 -0.2062 -3.8563  0.1111
  183SLPC   C3621039   5.962   4.599   9.822  0.2510  0.4969  0.1949
  183SLPC   H6X21040   6.017   4.514   9.777 -1.7921 -1.3886  1.1581
  183SLPC   H6Y21041   6.031   4.686   9.818  0.3205  0.5590  2.0507
  183SLPC   C3721042   5.839   4.643   9.733  0.2252 -0.1657 -0.3923
  183SLPC   H7X21043   5.802   4.747   9.748 -0.3001 -0.2058 -1.3402
  183SLPC   H7Y21044   5.757   4.571   9.754  1.5154 -1.1741  1.3520
  183SLPC   C3821045   5.861   4.621   9.583  0.3272 -0.5236 -0.0909
  183SLPC   H8X21046   5.778   4.674   9.531 -0.2962 -3.3168 -2.0068
  183SLPC   H8Y21047   5.854   4.511   9.576  0.1692 -0.3324 -4.4680
  183SLPC   C3921048   5.988   4.667   9.521 -0.0370 -0.2406 -0.5429
  183SLPC   H9X21049   6.004   4.613   9.425  1.4093  2.3571 -1.8457
  183SLPC   H9Y21050   6.071   4.630   9.585  0.5269  2.2646  0.2393
  183SLPC  C31021051   6.001   4.813   9.504  0.0748  0.2683 -0.3982
  183SLPC  H10X21052   5.996   4.868   9.601  0.6465  0.4432 -0.4681
  183SLPC  H10Y21053   5.926   4.863   9.439  1.1739  2.2694 -0.1684
  183SLPC  C31121054   6.137   4.844   9.444  0.3805 -0.0998 -0.0525
  183SLPC  H11X21055   6.219   4.777   9.481  0.3347 -0.6069 -0.8437
  183SLPC  H11Y21056   6.171   4.937   9.492 -1.5606 -0.6147  2.3837
  183SLPC  C31221057   6.137   4.842   9.291 -0.3193  0.4622  0.0071
  183SLPC  H12X21058   6.062   4.913   9.250  0.5401  0.3848 -1.7191
  183SLPC  H12Y21059   6.114   4.741   9.252 -0.7172  0.4404  0.2907
  183SLPC  C31321060   6.282   4.856   9.234  0.0787 -0.7360  0.6315
  183SLPC  H13X21061   6.348   4.901   9.311 -0.5006  0.6356  0.3465
  183SLPC  H13Y21062   6.261   4.922   9.147  0.0841 -3.0520 -1.1895
  183SLPC  C31421063   6.348   4.727   9.182 -0.1846  0.7173  0.1315
  183SLPC  H14X21064   6.286   4.689   9.098 -1.3311  2.5077  0.1482
  183SLPC  H14Y21065   6.346   4.644   9.257  4.0882  0.8052  0.4356
  183SLPC  C31521066   6.500   4.749   9.129  0.0602 -0.4481  0.4467
  183SLPC  H15X21067   6.541   4.646   9.129  2.8505  0.6312 -0.5313
  183SLPC  H15Y21068   6.553   4.807   9.207 -1.0823  1.1711  0.0568
  183SLPC  C31621069   6.505   4.819   8.996  0.7019 -0.2269  0.2759
  183SLPC  H16X21070   6.445   4.910   8.976  2.2745  0.7902  0.0620
  183SLPC  H16Y21071   6.476   4.749   8.914 -1.6014 -0.2453  1.0858
  183SLPC  C31721072   6.645   4.850   8.950 -0.7787  0.0582 -0.0911
  183SLPC  H17X21073   6.706   4.913   9.019 -2.6988  0.7858  0.9876
  183SLPC  H17Y21074   6.626   4.911   8.860 -1.4501 -0.3114 -0.2014
  183SLPC  C31821075   6.730   4.725   8.916 -0.3793 -1.1027 -0.2802
  183SLPC  H18X21076   6.711   4.663   8.826 -0.1161 -1.8777  0.1910
  183SLPC  H18Y21077   6.750   4.659   9.003 -1.3928 -0.1687  0.6819
  183SLPC  H18Z21078   6.825   4.781   8.898 -1.6183  1.5182  1.0212
  184SLPC     N21079   6.730   2.604  11.061 -0.8039  0.2607  0.6048
  184SLPC   C1321080   6.695   2.468  11.125  0.5014  0.2205 -0.5795
  184SLPC  H13A21081   6.587   2.471  11.129  0.5216  0.0784  0.3149
  184SLPC  H13B21082   6.735   2.391  11.062  1.7307 -0.6678  1.2352
  184SLPC  H13C21083   6.722   2.459  11.229 -1.2313 -2.4852 -0.3085
  184SLPC   C1421084   6.877   2.617  11.085 -0.5256 -0.5028 -0.6275
  184SLPC  H14A21085   6.898   2.617  11.191  0.2134  1.0015 -0.7554
  184SLPC  H14B21086   6.935   2.540  11.038 -0.6046  0.3792 -2.2143
  184SLPC  H14C21087   6.921   2.707  11.044 -0.0934 -0.4100  0.0294
  184SLPC   C1521088   6.633   2.702  11.114  0.4838  0.2196  0.7060
  184SLPC  H15A21089   6.530   2.683  11.090  0.4968 -0.7483  1.3924
  184SLPC  H15B21090   6.637   2.704  11.222  0.8078 -0.8776  0.7204
  184SLPC  H15C21091   6.645   2.804  11.082 -3.6434  0.5161 -0.1739
  184SLPC   C1221092   6.709   2.593  10.913  0.0738  0.2129  0.4406
  184SLPC  H12A21093   6.759   2.680  10.875 -1.2005  0.2666 -1.1811
  184SLPC  H12B21094   6.602   2.602  10.897 -0.1344 -1.6159  0.6563
  184SLPC   C1121095   6.762   2.470  10.838 -0.4674  0.3966  0.3309
  184SLPC  H11A21096   6.709   2.479  10.740 -2.5310 -0.4070  1.3478
  184SLPC  H11B21097   6.717   2.377  10.877  1.4534 -0.9685 -0.6390
  184SLPC     P21098   6.970   2.569  10.723  0.0232  0.2217  0.0188
  184SLPC   O1321099   6.912   2.703  10.737 -0.0712 -0.5836 -0.0423
  184SLPC   O1421100   7.117   2.558  10.742 -0.8971 -0.5406 -0.2290
  184SLPC   O1221101   6.902   2.467  10.823 -0.3272  0.2856  0.2185
  184SLPC   O1121102   6.943   2.509  10.580 -0.1511 -0.1428 -0.3697
  184SLPC    C121103   6.960   2.369  10.558  0.0232  0.2961 -0.6108
  184SLPC    HA21104   7.055   2.331  10.602  0.0467  1.2256  0.1493
  184SLPC    HB21105   6.882   2.315  10.615 -0.8418 -0.9520 -2.8826
  184SLPC    C221106   6.956   2.327  10.407  0.4676 -0.3996 -0.7884
  184SLPC    HS21107   6.959   2.216  10.404  0.4849 -0.4470  0.5120
  184SLPC   O2121108   7.059   2.402  10.334  0.0476  0.7901  0.0012
  184SLPC   C2121109   7.176   2.350  10.348 -0.1813 -0.6505 -1.3218
  184SLPC   O2221110   7.208   2.259  10.424 -0.0982  0.1567  0.6823
  184SLPC   C2221111   7.275   2.422  10.262  0.3322 -0.0767  0.1974
  184SLPC   H2R21112   7.272   2.532  10.282 -2.8233  0.2197 -1.6520
  184SLPC   H2S21113   7.369   2.378  10.301  0.3375 -0.7409 -0.5547
  184SLPC    C321114   6.818   2.384  10.364  0.8302  0.1882 -0.3188
  184SLPC    HX21115   6.809   2.492  10.390  0.9284 -0.0968  0.9449
  184SLPC    HY21116   6.752   2.322  10.428  0.7623 -1.2395 -1.7417
  184SLPC   O3121117   6.794   2.354  10.229  0.1936  0.4175 -0.4122
  184SLPC   C3121118   6.818   2.445  10.147  0.4695 -0.6177 -0.1547
  184SLPC   O3221119   6.862   2.557  10.171  0.0828 -0.6283 -0.1166
  184SLPC   C3221120   6.778   2.393  10.006 -0.5892  0.5336  0.5003
  184SLPC   H2X21121   6.677   2.435   9.988  0.0545  0.9909 -2.3284
  184SLPC   H2Y21122   6.774   2.283   9.999 -0.1455  0.4411  1.5910
  184SLPC   C2321123   7.238   2.391  10.111 -0.5675 -0.1395  0.4176
  184SLPC   H3R21124   7.303   2.454  10.047 -1.0326 -1.0610 -1.0030
  184SLPC   H3S21125   7.132   2.422  10.105 -0.2720  0.5805 -1.3071
  184SLPC   C2421126   7.268   2.241  10.086  0.6206 -0.2859  0.0614
  184SLPC   H4R21127   7.223   2.201   9.993  0.5552  1.9123 -0.8825
  184SLPC   H4S21128   7.217   2.182  10.166  2.1229 -0.1338  1.1604
  184SLPC   C2521129   7.425   2.211  10.087  0.5050  0.2440  0.3202
  184SLPC   H5R21130   7.448   2.177  10.191 -0.4065 -0.5101  0.2796
  184SLPC   H5S21131   7.469   2.311  10.067  0.9470 -0.0056  0.0471
  184SLPC   C2621132   7.467   2.107   9.981  0.6813 -0.0920  0.0975
  184SLPC   H6R21133   7.444   2.143   9.878 -0.2102 -1.9626 -0.3789
  184SLPC   H6S21134   7.399   2.020   9.994  0.2307  0.1858 -0.4011
  184SLPC   C2721135   7.608   2.059  10.008 -0.6007  0.5634  0.5740
  184SLPC   H7R21136   7.598   1.984  10.089 -1.5533 -1.4463 -1.3419
  184SLPC   H7S21137   7.659   2.150  10.047  2.0585  0.9280 -3.4675
  184SLPC   C2821138   7.693   1.993   9.896  0.0889  0.6455  0.7247
  184SLPC   H8R21139   7.794   1.962   9.931 -0.4511 -3.3749 -1.1165
  184SLPC   H8S21140   7.712   2.075   9.823  0.2942 -0.8575 -0.9413
  184SLPC   C2921141   7.619   1.869   9.835 -0.5862  0.4848 -0.7848
  184SLPC   H9R21142   7.562   1.805   9.904 -0.3276  0.8949 -0.1802
  184SLPC  C21021143   7.616   1.847   9.708  0.3994 -0.0333 -0.3607
  184SLPC  H10R21144   7.564   1.764   9.658  0.8126 -0.0198 -0.8087
  184SLPC  C21121145   7.681   1.942   9.608  0.3285  0.0822  0.9071
  184SLPC  H11R21146   7.772   1.983   9.656  0.9898 -1.8433  1.3023
  184SLPC  H11S21147   7.613   2.026   9.582  0.4184 -0.6834 -1.9448
  184SLPC  C21221148   7.717   1.872   9.480 -0.0097  0.5139 -0.2397
  184SLPC  H12R21149   7.804   1.805   9.479 -0.5255 -0.1656 -0.6996
  184SLPC  C21321150   7.664   1.880   9.357 -0.2179  0.2348 -0.4119
  184SLPC  H13R21151   7.702   1.819   9.274  1.3656  0.2869  0.2457
  184SLPC  C21421152   7.538   1.960   9.333  0.1835  0.1715  0.6903
  184SLPC  H14R21153   7.550   2.009   9.234  1.3054 -1.4022  0.0212
  184SLPC  H14S21154   7.518   2.041   9.406 -1.0164 -0.4333  1.0444
  184SLPC  C21521155   7.411   1.870   9.316  0.0434 -0.4971 -0.9131
  184SLPC  H15R21156   7.324   1.937   9.295 -0.1811 -0.4219  0.1986
  184SLPC  H15S21157   7.392   1.809   9.407  0.6689 -0.2878 -0.6416
  184SLPC  C21621158   7.412   1.775   9.201  0.0827 -0.3059 -0.1186
  184SLPC  H16R21159   7.475   1.689   9.233  0.7384  1.2323  2.8956
  184SLPC  H16S21160   7.452   1.811   9.103  0.0733 -2.9409 -1.1378
  184SLPC  C21721161   7.270   1.724   9.165  0.0473 -0.0722 -0.1569
  184SLPC  H17R21162   7.192   1.801   9.146  1.5909  0.7550 -3.2828
  184SLPC  H17S21163   7.247   1.664   9.256 -1.3763  1.8943  0.8313
  184SLPC  C21821164   7.270   1.622   9.048  0.6295 -0.1940  0.1695
  184SLPC  H18R21165   7.288   1.521   9.090 -0.9855 -0.4580  0.2590
  184SLPC  H18S21166   7.332   1.641   8.957 -1.6059  0.5244 -1.2357
  184SLPC  H18T21167   7.166   1.615   9.009  0.7831  0.0495 -0.2953
  184SLPC   C3321168   6.867   2.447   9.888 -0.2932 -0.2204 -0.0815
  184SLPC   H3X21169   6.950   2.373   9.888  0.4543  0.6196 -0.1056
  184SLPC   H3Y21170   6.906   2.549   9.907  1.6998 -0.6727 -1.6759
  184SLPC   C3421171   6.787   2.442   9.753 -0.3561 -0.3547 -0.4837
  184SLPC   H4X21172   6.707   2.518   9.747  1.5232  1.6011 -1.5678
  184SLPC   H4Y21173   6.739   2.342   9.748 -0.2760 -0.4349  0.3301
  184SLPC   C3521174   6.882   2.456   9.636  0.9004  0.6225  1.2185
  184SLPC   H5X21175   6.930   2.358   9.617 -1.7381 -0.2944 -1.1616
  184SLPC   H5Y21176   6.967   2.525   9.651  1.7880 -0.0187 -0.7081
  184SLPC   C3621177   6.801   2.481   9.506  0.7125 -0.0409 -0.1374
  184SLPC   H6X21178   6.769   2.587   9.499 -0.5334 -0.4681 -0.9820
  184SLPC   H6Y21179   6.711   2.417   9.497 -1.1456  2.7162 -2.1756
  184SLPC   C3721180   6.902   2.458   9.393 -0.5388 -0.1635 -0.1878
  184SLPC   H7X21181   6.839   2.446   9.302  1.8827 -3.4747 -1.5241
  184SLPC   H7Y21182   6.944   2.356   9.403 -0.5167 -0.1124  0.2269
  184SLPC   C3821183   7.020   2.560   9.388 -0.2892  0.7038  0.4265
  184SLPC   H8X21184   7.099   2.533   9.461  2.7538  2.4083 -2.0935
  184SLPC   H8Y21185   6.977   2.657   9.419 -1.5401  1.2823 -2.9226
  184SLPC   C3921186   7.059   2.591   9.242  0.1101 -0.2491 -0.7961
  184SLPC   H9X21187   7.137   2.670   9.237 -1.1515  0.9341 -2.2742
  184SLPC   H9Y21188   6.978   2.633   9.178  0.4047  0.5700 -0.6349
  184SLPC  C31021189   7.110   2.463   9.171  0.6179  0.0891  0.3984
  184SLPC  H10X21190   7.136   2.491   9.067  1.5310 -0.8024  0.3821
  184SLPC  H10Y21191   7.020   2.398   9.172 -0.9239  2.1785  1.0235
  184SLPC  C31121192   7.224   2.396   9.242  0.3339  0.6479  0.5058
  184SLPC  H11X21193   7.191   2.383   9.347 -1.8960  0.4320 -0.1999
  184SLPC  H11Y21194   7.319   2.454   9.249  0.2795  0.8024 -0.0003
  184SLPC  C31221195   7.254   2.260   9.175 -0.4672  0.2756 -0.9137
  184SLPC  H12X21196   7.156   2.215   9.150 -1.4199  0.9971  1.3813
  184SLPC  H12Y21197   7.314   2.188   9.236 -0.4899 -0.4236 -1.7070
  184SLPC  C31321198   7.322   2.272   9.038  0.3456  0.4660 -0.4721
  184SLPC  H13X21199   7.353   2.376   9.016 -0.0744  0.5492 -0.6927
  184SLPC  H13Y21200   7.251   2.240   8.958  0.7087 -0.7598 -0.3093
  184SLPC  C31421201   7.442   2.180   9.018 -0.4418 -0.4420  0.5507
  184SLPC  H14X21202   7.406   2.075   9.032 -1.7553  0.0387  0.8685
  184SLPC  H14Y21203   7.524   2.206   9.088  0.8705  1.7005 -1.7580
  184SLPC  C31521204   7.508   2.200   8.878 -0.1606 -0.0873 -0.1775
  184SLPC  H15X21205   7.576   2.288   8.875 -1.8548  1.2311 -0.7659
  184SLPC  H15Y21206   7.427   2.220   8.805  1.3652 -1.8598 -2.4374
  184SLPC  C31621207   7.563   2.071   8.825 -0.1332  0.3188 -0.1150
  184SLPC  H16X21208   7.481   2.001   8.799 -0.6389  1.2345 -0.9884
  184SLPC  H16Y21209   7.635   2.037   8.902 -1.3981 -1.9524  0.1118
  184SLPC  C31721210   7.629   2.096   8.694 -0.4843 -0.6141 -0.8555
  184SLPC  H17X21211   7.717   2.161   8.716 -0.7686 -0.6658  0.4995
  184SLPC  H17Y21212   7.564   2.156   8.627  0.2298  1.9718  0.6943
  184SLPC  C31821213   7.686   1.972   8.620 -0.2987 -0.0336  0.0716
  184SLPC  H18X21214   7.768   1.924   8.678  0.1612 -0.7284 -1.1461
  184SLPC  H18Y21215   7.732   2.000   8.523  0.3014  0.6638  0.5502
  184SLPC  H18Z21216   7.603   1.901   8.600 -0.6085 -0.0177  1.2138
  185SLPC     N21217   0.558   5.105   6.421 -0.0854  0.0297 -0.5630
  185SLPC   C1321218   0.535   5.229   6.509  0.1146  0.3669  0.2434
  185SLPC  H13A21219   0.570   5.211   6.609  1.3216 -2.5531 -0.6609
  185SLPC  H13B21220   0.585   5.315   6.467  0.3329  0.4488  0.6756
  185SLPC  H13C21221   0.430   5.256   6.507 -0.3950 -1.5996 -0.3041
  185SLPC   C1421222   0.701   5.070   6.436  0.0349 -0.0225 -0.3056
  185SLPC  H14A21223   0.768   5.153   6.418  0.5763 -0.4187 -0.1344
  185SLPC  H14B21224   0.716   5.028   6.534 -0.6016  0.2927 -0.0700
  185SLPC  H14C21225   0.732   4.993   6.367  1.8507  1.4191 -1.1485
  185SLPC   C1521226   0.527   5.142   6.279 -1.0713 -0.7515  0.7326
  185SLPC  H15A21227   0.422   5.167   6.273 -0.8185 -0.1638 -1.7291
  185SLPC  H15B21228   0.599   5.212   6.240 -0.7441 -1.3285  0.2819
  185SLPC  H15C21229   0.535   5.052   6.220 -3.2179 -1.0135  0.7821
  185SLPC   C1221230   0.467   4.991   6.472 -0.5403 -0.0999  0.2152
  185SLPC  H12A21231   0.369   5.036   6.479  0.5689  2.5391 -0.5596
  185SLPC  H12B21232   0.492   4.967   6.575  1.0534 -0.3557 -0.2165
  185SLPC   C1121233   0.471   4.855   6.403  0.7864 -0.1020 -0.3918
  185SLPC  H11A21234   0.445   4.875   6.297 -2.0268  0.3845  0.3488
  185SLPC  H11B21235   0.397   4.781   6.440  1.3509 -1.1674 -1.3443
  185SLPC     P21236   0.644   4.741   6.556 -0.1204  0.4949 -0.8114
  185SLPC   O1321237   0.715   4.615   6.536  0.1401 -0.3916  0.6174
  185SLPC   O1421238   0.711   4.849   6.631 -0.3564  0.1691 -0.1242
  185SLPC   O1221239   0.600   4.798   6.418  0.1563  0.5002 -0.2723
  185SLPC   O1121240   0.512   4.712   6.625  0.0369  0.5608 -0.1555
  185SLPC    C121241   0.491   4.746   6.761  0.5447 -0.0266 -0.1431
  185SLPC    HA21242   0.586   4.761   6.817  2.1628 -1.0943 -2.5400
  185SLPC    HB21243   0.430   4.839   6.771  0.6893  0.5448 -3.8252
  185SLPC    C221244   0.415   4.632   6.834 -0.3848 -0.2401 -0.0513
  185SLPC    HS21245   0.324   4.600   6.778 -0.8166 -1.3530  1.2610
  185SLPC   O2121246   0.379   4.675   6.965  0.3873 -0.2909 -0.5596
  185SLPC   C2121247   0.256   4.739   6.980  0.6088 -0.5365 -0.7836
  185SLPC   O2221248   0.188   4.778   6.883 -0.0773  0.6138 -0.3114
  185SLPC   C2221249   0.231   4.766   7.128 -0.5072 -0.3369 -0.5281
  185SLPC   H2R21250   0.249   4.670   7.182  2.0808  0.8518  0.8255
  185SLPC   H2S21251   0.311   4.834   7.166 -0.5571 -0.2253 -0.6233
  185SLPC    C321252   0.504   4.501   6.846  0.2883  0.0666 -0.1868
  185SLPC    HX21253   0.582   4.519   6.923  0.9871 -1.9888 -0.3832
  185SLPC    HY21254   0.557   4.486   6.749 -1.0767  0.6908 -1.0365
  185SLPC   O3121255   0.414   4.390   6.876 -0.0139  0.7656  0.0834
  185SLPC   C3121256   0.424   4.342   7.002  0.2593 -0.1979  0.4117
  185SLPC   O3221257   0.512   4.371   7.078  0.2640  0.4760  0.0913
  185SLPC   C3221258   0.304   4.242   7.015  0.2760  0.1774  0.4431
  185SLPC   H2X21259   0.344   4.146   6.975  1.4150  0.5601  0.6377
  185SLPC   H2Y21260   0.217   4.274   6.954 -0.6561 -1.8091  0.6917
  185SLPC   C2321261   0.094   4.819   7.159  0.0760 -0.0489  0.1428
  185SLPC   H3R21262   0.020   4.748   7.116  1.1117 -1.1007  0.0962
  185SLPC   H3S21263   0.073   4.902   7.088 -0.1663  0.3350  0.6614
  185SLPC   C2421264   0.058   4.833   7.301  0.1769 -0.1051 -0.3232
  185SLPC   H4R21265   0.121   4.921   7.328  2.7628 -1.3732 -1.9975
  185SLPC   H4S21266   0.091   4.743   7.358 -2.2735 -1.3594 -0.8283
  185SLPC   C2521267  -0.082   4.876   7.332 -0.4618 -0.3042  0.7696
  185SLPC   H5R21268  -0.140   4.782   7.343 -2.5965  1.1895  2.6237
  185SLPC   H5S21269  -0.122   4.937   7.247  1.6068  0.7863  0.5294
  185SLPC   C2621270  -0.115   4.961   7.455  0.8381  0.1691 -0.7088
  185SLPC   H6R21271  -0.225   4.969   7.463  0.9031  0.6493 -0.2218
  185SLPC   H6S21272  -0.078   5.063   7.432  1.4405  0.3135  0.8683
  185SLPC   C2721273  -0.074   4.917   7.596 -0.1557  0.2794 -0.1640
  185SLPC   H7R21274   0.015   4.853   7.581  0.4198  0.9980  0.1277
  185SLPC   H7S21275  -0.152   4.847   7.631  0.5985 -0.7282 -0.4683
  185SLPC   C2821276  -0.034   5.031   7.681 -0.1295 -0.4906  0.3910
  185SLPC   H8R21277  -0.108   5.114   7.673  0.4642  0.0613  0.6247
  185SLPC   H8S21278   0.054   5.083   7.639 -1.0653  1.4972  0.8253
  185SLPC   C2921279   0.001   5.015   7.827 -0.2482  0.1339 -0.4206
  185SLPC   H9R21280   0.108   5.004   7.845 -0.6285  0.9913  2.6911
  185SLPC  C21021281  -0.074   5.021   7.934 -0.0968 -0.3521 -0.0886
  185SLPC  H10R21282  -0.027   5.022   8.033 -0.2308  0.1095 -0.0296
  185SLPC  C21121283  -0.223   5.044   7.939  0.4433 -0.0239 -0.2479
  185SLPC  H11R21284  -0.278   4.951   7.965  0.1783 -0.2540 -1.5917
  185SLPC  H11S21285  -0.262   5.082   7.843 -1.2411 -3.3179 -0.9521
  185SLPC  C21221286  -0.255   5.151   8.039 -0.2613 -0.1200 -0.4380
  185SLPC  H12R21287  -0.259   5.252   7.996 -0.3113  1.2865  2.6639
  185SLPC  C21321288  -0.259   5.141   8.176  0.5506  0.2112 -0.3161
  185SLPC  H13R21289  -0.274   5.231   8.236 -0.3904  0.0862 -0.3506
  185SLPC  C21421290  -0.237   5.012   8.251 -0.0614 -0.4268  0.4586
  185SLPC  H14R21291  -0.167   5.031   8.335 -1.4250  2.2402  1.0326
  185SLPC  H14S21292  -0.202   4.924   8.193  1.8497  0.2787  0.4879
  185SLPC  C21521293  -0.370   4.985   8.318  0.0178 -0.4993  1.0173
  185SLPC  H15R21294  -0.352   4.882   8.355  1.4429 -1.4896 -2.2649
  185SLPC  H15S21295  -0.450   4.991   8.242  1.3106  2.7622 -0.1828
  185SLPC  C21621296  -0.412   5.085   8.436  0.6123  0.1069  0.1597
  185SLPC  H16R21297  -0.432   5.178   8.379  1.4933  0.6131  0.6725
  185SLPC  H16S21298  -0.322   5.101   8.499 -0.6360 -0.9458  2.2414
  185SLPC  C21721299  -0.532   5.031   8.517  0.1688 -0.6719  0.4078
  185SLPC  H17R21300  -0.622   5.031   8.452  1.8157  0.1307 -1.9957
  185SLPC  H17S21301  -0.551   5.113   8.590  0.3113  0.2312 -0.5479
  185SLPC  C21821302  -0.515   4.897   8.588 -0.1803  0.2408 -0.7414
  185SLPC  H18R21303  -0.506   4.812   8.517 -3.6490  2.9791 -4.7591
  185SLPC  H18S21304  -0.598   4.873   8.657  1.7487 -2.3685  0.7618
  185SLPC  H18T21305  -0.425   4.913   8.652  0.1755  0.1936 -1.2286
  185SLPC   C3321306   0.269   4.224   7.165 -0.4098 -0.0337  0.3298
  185SLPC   H3X21307   0.355   4.201   7.231 -0.1142  1.0385  0.3121
  185SLPC   H3Y21308   0.198   4.140   7.184  0.1403 -0.8806 -1.2955
  185SLPC   C3421309   0.198   4.349   7.225  0.8278  0.1043  0.2248
  185SLPC   H4X21310   0.145   4.396   7.140 -2.1072 -2.8860  0.2863
  185SLPC   H4Y21311   0.265   4.432   7.255 -0.1540  1.2915 -0.8082
  185SLPC   C3521312   0.104   4.318   7.345  0.1618  0.4133  1.0970
  185SLPC   H5X21313   0.160   4.258   7.420  0.9285 -0.0101  0.1973
  185SLPC   H5Y21314   0.020   4.261   7.300 -1.0529  1.7964  1.5544
  185SLPC   C3621315   0.052   4.446   7.407  0.2400  0.1645 -0.1922
  185SLPC   H6X21316  -0.022   4.487   7.335  0.3619  0.7519  0.0202
  185SLPC   H6Y21317   0.130   4.525   7.410 -0.0907  0.6220 -2.3148
  185SLPC   C3721318  -0.007   4.415   7.541 -0.4881 -0.1160  0.3078
  185SLPC   H7X21319   0.074   4.359   7.593 -0.7918  2.4566  3.7177
  185SLPC   H7Y21320  -0.094   4.348   7.526  1.1189 -1.8562 -1.5132
  185SLPC   C3821321  -0.049   4.540   7.614  0.0533 -0.2467  0.1546
  185SLPC   H8X21322  -0.127   4.575   7.543 -0.9058  0.4186  1.5135
  185SLPC   H8Y21323   0.024   4.622   7.632 -0.4707 -0.1206  1.7402
  185SLPC   C3921324  -0.118   4.514   7.750  0.3717  0.6510 -0.1470
  185SLPC   H9X21325  -0.039   4.492   7.826  0.6606 -0.4552 -0.7577
  185SLPC   H9Y21326  -0.186   4.426   7.750  0.5101  0.5434  0.3052
  185SLPC  C31021327  -0.198   4.637   7.802  0.6646  0.2427 -0.3153
  185SLPC  H10X21328  -0.258   4.665   7.713  1.5140  1.3968 -0.5374
  185SLPC  H10Y21329  -0.125   4.718   7.824  0.2820  0.2160  1.0953
  185SLPC  C31121330  -0.293   4.608   7.918 -0.2686 -0.2261  0.1037
  185SLPC  H11X21331  -0.369   4.533   7.886  0.2789  0.0081 -1.8316
  185SLPC  H11Y21332  -0.350   4.702   7.938 -2.0053 -1.3013  0.2765
  185SLPC  C31221333  -0.227   4.560   8.048  0.2549  0.7766  0.2521
  185SLPC  H12X21334  -0.132   4.616   8.062  0.5277 -0.1129  2.0218
  185SLPC  H12Y21335  -0.199   4.453   8.041 -0.9186  0.6080 -2.8677
  185SLPC  C31321336  -0.311   4.584   8.171 -0.4653 -0.5264 -0.2815
  185SLPC  H13X21337  -0.416   4.554   8.152 -1.3550  1.1288  1.9397
  185SLPC  H13Y21338  -0.305   4.691   8.201 -0.9480 -0.4282 -0.5428
  185SLPC  C31421339  -0.255   4.513   8.293 -0.1463 -0.0395 -0.4409
  185SLPC  H14X21340  -0.158   4.556   8.326  0.1861 -0.6574 -0.5995
  185SLPC  H14Y21341  -0.242   4.405   8.271  0.2054 -0.0661 -0.1080
  185SLPC  C31521342  -0.350   4.514   8.415 -0.1317 -0.2596  0.3734
  185SLPC  H15X21343  -0.343   4.614   8.463 -1.7133  0.9036 -1.7512
  185SLPC  H15Y21344  -0.312   4.439   8.488  0.7355  2.2354  2.5537
  185SLPC  C31621345  -0.498   4.478   8.387 -0.0534 -0.2207  0.6022
  185SLPC  H16X21346  -0.501   4.393   8.316  0.3767  0.5443 -0.3315
  185SLPC  H16Y21347  -0.541   4.555   8.320  1.1958 -0.7720 -0.8605
  185SLPC  C31721348  -0.575   4.434   8.518 -0.1540  0.2667 -0.4013
  185SLPC  H17X21349  -0.521   4.343   8.553 -1.8837 -0.4822  0.3389
  185SLPC  H17Y21350  -0.680   4.402   8.501 -0.6315  0.4437  2.0459
  185SLPC  C31821351  -0.575   4.544   8.627  0.4090  0.0456 -0.0456
  185SLPC  H18X21352  -0.471   4.583   8.636  0.2679  0.7723 -1.4195
  185SLPC  H18Y21353  -0.619   4.502   8.720  0.5993 -0.3687 -0.1403
  185SLPC  H18Z21354  -0.646   4.624   8.597 -0.1925  0.5916  2.6824
  186SLPC     N21355   0.242   0.448   6.046  0.1614  0.4328 -0.3790
  186SLPC   C1321356   0.096   0.423   6.085  0.0072 -0.2974 -0.4829
  186SLPC  H13A21357   0.036   0.393   6.000 -0.4412 -2.2203  0.4865
  186SLPC  H13B21358   0.088   0.327   6.134 -0.3039  0.3901  0.8184
  186SLPC  H13C21359   0.049   0.501   6.143  0.1354  1.2212 -2.3849
  186SLPC   C1421360   0.257   0.540   5.926  0.1503 -0.1122  0.3292
  186SLPC  H14A21361   0.221   0.636   5.957 -0.7856  0.3061 -1.9942
  186SLPC  H14B21362   0.357   0.555   5.887  0.2684 -0.8305  0.3469
  186SLPC  H14C21363   0.209   0.507   5.835  2.0662  0.8385 -1.0735
  186SLPC   C1521364   0.297   0.316   6.001  0.1257 -0.0588 -0.0247
  186SLPC  H15A21365   0.311   0.255   6.090  0.1050 -2.6115 -1.7254
  186SLPC  H15B21366   0.233   0.265   5.931  1.3843 -1.7730  0.0131
  186SLPC  H15C21367   0.398   0.323   5.963 -0.3622  0.6011 -1.1877
  186SLPC   C1221368   0.313   0.492   6.168  0.4005 -0.1248  1.0284
  186SLPC  H12A21369   0.280   0.592   6.193  1.5836  0.6535 -0.4209
  186SLPC  H12B21370   0.419   0.485   6.148  0.4764 -1.2544  1.7691
  186SLPC   C1121371   0.301   0.401   6.295 -0.3197  0.6291  0.6119
  186SLPC  H11A21372   0.198   0.387   6.335 -2.2033  0.0112 -4.1037
  186SLPC  H11B21373   0.353   0.458   6.375  1.5294  0.1087 -0.1876
  186SLPC     P21374   0.515   0.246   6.267  0.1365  0.0600  0.0363
  186SLPC   O1321375   0.544   0.105   6.249 -0.8240  0.6609 -0.3889
  186SLPC   O1421376   0.582   0.337   6.173  0.2862 -0.0784 -0.2844
  186SLPC   O1221377   0.357   0.272   6.269 -0.1086 -0.0650 -0.4194
  186SLPC   O1121378   0.544   0.294   6.414  0.4143  0.1014  0.2432
  186SLPC    C121379   0.673   0.353   6.451  0.1215  0.6057  0.0853
  186SLPC    HA21380   0.752   0.283   6.417 -1.1550 -0.7696 -0.1050
  186SLPC    HB21381   0.686   0.452   6.402  2.8744 -0.5654 -1.7129
  186SLPC    C221382   0.694   0.361   6.610 -0.3538 -0.6776 -0.6238
  186SLPC    HS21383   0.802   0.383   6.626 -0.8999  0.0739  2.4877
  186SLPC   O2121384   0.656   0.237   6.674 -0.2486  0.0819  0.5397
  186SLPC   C2121385   0.716   0.212   6.791 -0.6813 -0.1731 -0.2138
  186SLPC   O2221386   0.797   0.291   6.842  0.2765  0.0461  0.4630
  186SLPC   C2221387   0.654   0.088   6.859  0.8728  0.2728 -0.3353
  186SLPC   H2R21388   0.621   0.025   6.774  0.2195 -0.8857  0.7484
  186SLPC   H2S21389   0.745   0.055   6.913  0.0557 -0.8743  0.3859
  186SLPC    C321390   0.617   0.485   6.652  0.5366  0.6180  0.8361
  186SLPC    HX21391   0.513   0.471   6.614 -0.5749  2.3187  3.1154
  186SLPC    HY21392   0.663   0.564   6.589  1.6331 -1.4857 -1.0755
  186SLPC   O3121393   0.601   0.502   6.791  0.2101 -0.2729 -0.5625
  186SLPC   C3121394   0.702   0.566   6.854  0.6275  0.2183 -0.4674
  186SLPC   O3221395   0.798   0.617   6.800 -0.2026 -0.0096  0.6481
  186SLPC   C3221396   0.657   0.565   7.001 -0.2525 -0.5323 -0.3312
  186SLPC   H2X21397   0.689   0.468   7.042 -1.5051 -0.6169  0.4521
  186SLPC   H2Y21398   0.546   0.565   7.003 -0.2662  1.7688  3.0415
  186SLPC   C2321399   0.550   0.131   6.955  0.4180  0.3077 -0.1493
  186SLPC   H3R21400   0.482   0.045   6.967  2.4344 -1.0894  1.5926
  186SLPC   H3S21401   0.499   0.212   6.898  0.3097 -0.0342 -0.5379
  186SLPC   C2421402   0.616   0.169   7.088  0.0610 -0.0950  0.5011
  186SLPC   H4R21403   0.705   0.235   7.077 -1.0699  1.0659 -2.0390
  186SLPC   H4S21404   0.655   0.079   7.140 -0.8917 -1.2883 -0.8079
  186SLPC   C2521405   0.515   0.228   7.179  0.4092 -0.2173 -1.0839
  186SLPC   H5R21406   0.447   0.145   7.207  2.6571 -1.6855  0.1731
  186SLPC   H5S21407   0.462   0.306   7.119 -1.8466 -0.8655  0.0109
  186SLPC   C2621408   0.570   0.274   7.313  0.3626 -0.0627  0.2185
  186SLPC   H6R21409   0.668   0.326   7.305  0.2981  0.2859  1.6752
  186SLPC   H6S21410   0.589   0.183   7.373  0.0924 -1.6253 -1.9886
  186SLPC   C2721411   0.466   0.365   7.390 -0.5692 -0.0273 -0.3802
  186SLPC   H7R21412   0.375   0.301   7.395 -0.3930 -0.3490 -1.2822
  186SLPC   H7S21413   0.447   0.455   7.328 -0.2767  0.7640  0.6522
  186SLPC   C2821414   0.506   0.407   7.538 -0.8347  0.2847  0.2531
  186SLPC   H8R21415   0.611   0.441   7.549 -0.3643 -1.6867  2.3179
  186SLPC   H8S21416   0.509   0.323   7.611  0.5744  1.8273  2.0498
  186SLPC   C2921417   0.419   0.524   7.592  0.4294  0.3396 -0.0490
  186SLPC   H9R21418   0.403   0.608   7.522  0.2873  1.5627  1.4209
  186SLPC  C21021419   0.377   0.524   7.723  0.5081 -0.5346  0.2343
  186SLPC  H10R21420   0.315   0.610   7.749  1.6417  0.3080  0.1902
  186SLPC  C21121421   0.399   0.425   7.829  0.1435 -0.1325 -0.4193
  186SLPC  H11R21422   0.507   0.436   7.855  0.0821 -3.5362  1.5929
  186SLPC  H11S21423   0.392   0.321   7.790 -2.1501 -0.4825  0.8700
  186SLPC  C21221424   0.307   0.437   7.948 -0.3039 -0.0034  0.1424
  186SLPC  H12R21425   0.205   0.416   7.915 -0.1604 -1.5088  0.6084
  186SLPC  C21321426   0.330   0.471   8.082  0.3422 -0.1344 -0.1796
  186SLPC  H13R21427   0.241   0.479   8.146  0.0796 -0.5587 -0.4907
  186SLPC  C21421428   0.462   0.500   8.146  0.2990 -0.3405  0.6290
  186SLPC  H14R21429   0.546   0.480   8.076 -1.5744  2.0048 -2.4306
  186SLPC  H14S21430   0.471   0.433   8.234  0.1695  0.2294  1.0833
  186SLPC  C21521431   0.470   0.645   8.197 -0.2894  1.0161  0.0261
  186SLPC  H15R21432   0.383   0.663   8.264  0.0242  1.7715  0.2378
  186SLPC  H15S21433   0.463   0.711   8.108  2.9161  0.6660 -0.5559
  186SLPC  C21621434   0.594   0.681   8.283 -0.0097 -0.5407 -0.2308
  186SLPC  H16R21435   0.595   0.612   8.370 -1.0920 -2.6763 -1.8410
  186SLPC  H16S21436   0.571   0.783   8.320 -0.0929 -0.1923 -1.2365
  186SLPC  C21721437   0.726   0.707   8.200  0.3096  0.4001 -0.2724
  186SLPC  H17R21438   0.706   0.795   8.134 -1.4866 -1.0649 -1.7433
  186SLPC  H17S21439   0.731   0.620   8.132 -0.6189  0.5815 -0.5943
  186SLPC  C21821440   0.854   0.736   8.290  0.1503 -0.5912  0.1128
  186SLPC  H18R21441   0.894   0.839   8.281  0.6800 -0.9756 -2.2136
  186SLPC  H18S21442   0.935   0.668   8.254  0.9793  0.2795  0.3050
  186SLPC  H18T21443   0.838   0.702   8.395  0.6838 -0.9938  0.0669
  186SLPC   C3321444   0.728   0.685   7.076 -0.0791 -0.2092 -0.5129
  186SLPC   H3X21445   0.694   0.790   7.067  0.3766 -0.1071 -1.0699
  186SLPC   H3Y21446   0.835   0.676   7.046 -0.6187 -2.3394 -1.8990
  186SLPC   C3421447   0.705   0.658   7.223 -0.3403 -0.1705 -0.3610
  186SLPC   H4X21448   0.747   0.564   7.264 -1.4770 -0.6691 -0.3156
  186SLPC   H4Y21449   0.598   0.643   7.248 -0.0578 -1.4837  0.1264
  186SLPC   C3521450   0.773   0.759   7.315 -0.2826 -0.4024 -0.2062
  186SLPC   H5X21451   0.728   0.859   7.296  2.1853  0.5207 -1.3812
  186SLPC   H5Y21452   0.881   0.756   7.288 -0.0575  1.0842  0.4631
  186SLPC   C3621453   0.763   0.714   7.465 -0.1323  0.3102 -0.3905
  186SLPC   H6X21454   0.790   0.606   7.473 -2.3419 -0.2106  0.5424
  186SLPC   H6Y21455   0.662   0.726   7.510 -0.0677  0.3144 -0.2459
  186SLPC   C3721456   0.866   0.788   7.557  1.0279 -0.7440  0.1432
  186SLPC   H7X21457   0.880   0.898   7.542  1.8267 -0.8077  0.3863
  186SLPC   H7Y21458   0.966   0.746   7.532  0.4623  0.2678 -4.2809
  186SLPC   C3821459   0.856   0.758   7.708  0.2389 -0.7166  0.5029
  186SLPC   H8X21460   0.770   0.819   7.744  0.3995 -0.4681  0.4692
  186SLPC   H8Y21461   0.947   0.792   7.762  0.3730 -1.5339  0.7966
  186SLPC   C3921462   0.845   0.616   7.741 -0.1807 -0.0251 -0.0190
  186SLPC   H9X21463   0.904   0.562   7.664  0.1944 -0.3941  0.5274
  186SLPC   H9Y21464   0.736   0.595   7.744 -0.2891  0.7422  1.7286
  186SLPC  C31021465   0.898   0.592   7.887  0.0198  0.1307 -0.2221
  186SLPC  H10X21466   0.851   0.653   7.967 -2.0647 -1.9438  0.1680
  186SLPC  H10Y21467   1.008   0.603   7.899  0.0645 -1.8922  1.5098
  186SLPC  C31121468   0.873   0.445   7.925 -0.1604 -0.0288  0.5060
  186SLPC  H11X21469   0.912   0.380   7.844  0.3997  0.6777  0.2070
  186SLPC  H11Y21470   0.764   0.421   7.930 -0.5885  1.6704 -0.2944
  186SLPC  C31221471   0.934   0.407   8.064  0.1959  0.3559  0.1564
  186SLPC  H12X21472   0.908   0.483   8.141  2.9715 -0.2961  1.8527
  186SLPC  H12Y21473   1.044   0.398   8.049  0.1866  1.3358 -0.5300
  186SLPC  C31321474   0.892   0.265   8.117  0.4134  0.4224  0.0799
  186SLPC  H13X21475   0.793   0.252   8.167 -0.2556 -0.4559 -1.4489
  186SLPC  H13Y21476   0.953   0.258   8.210  0.0770 -0.4319  0.2437
  186SLPC  C31421477   0.924   0.138   8.030 -0.4780  0.0927  0.2254
  186SLPC  H14X21478   1.031   0.153   8.006 -0.5913  0.3469 -0.1300
  186SLPC  H14Y21479   0.862   0.136   7.937  1.7733  1.3112 -1.3718
  186SLPC  C31521480   0.923   0.010   8.108 -0.1742  0.1203 -0.0175
  186SLPC  H15X21481   0.820  -0.016   8.138 -0.2403  1.3340  0.8617
  186SLPC  H15Y21482   0.994   0.002   8.194  1.3344 -0.7048 -1.3140
  186SLPC  C31621483   0.947  -0.111   8.008  0.2965  0.5171  0.5318
  186SLPC  H16X21484   1.054  -0.120   7.979  0.1227 -0.6236  0.2200
  186SLPC  H16Y21485   0.888  -0.091   7.916  0.7424  1.7047  0.4932
  186SLPC  C31721486   0.913  -0.241   8.074 -0.7835 -0.0931  0.3280
  186SLPC  H17X21487   0.962  -0.235   8.174 -2.0767  0.9047  0.9181
  186SLPC  H17Y21488   0.972  -0.321   8.023 -1.7006 -1.1421  0.8821
  186SLPC  C31821489   0.768  -0.277   8.087  0.7085  0.9069  0.2269
  186SLPC  H18X21490   0.711  -0.264   7.993 -0.4866 -1.0986  0.6397
  186SLPC  H18Y21491   0.722  -0.215   8.168 -0.6526  2.5564 -1.7549
  186SLPC  H18Z21492   0.759  -0.386   8.109  1.3707 -0.0739 -4.0117
  187SLPC     N21493   1.807   4.486   6.188  0.1060  0.4452 -0.0497
  187SLPC   C1321494   1.773   4.365   6.107 -0.2168 -0.4833 -0.0251
  187SLPC  H13A21495   1.866   4.319   6.077  0.5604 -0.6603  2.5952
  187SLPC  H13B21496   1.715   4.295   6.166  1.5259 -0.5850  1.5805
  187SLPC  H13C21497   1.726   4.400   6.016  0.0387  0.2195  0.1181
  187SLPC   C1421498   1.691   4.581   6.196 -0.3091 -0.1517  0.6534
  187SLPC  H14A21499   1.622   4.550   6.273 -1.0115 -0.9229 -0.2739
  187SLPC  H14B21500   1.732   4.677   6.221 -1.2819  0.6079 -0.5534
  187SLPC  H14C21501   1.644   4.590   6.099  1.3899  1.4661 -0.0496
  187SLPC   C1521502   1.921   4.552   6.118  0.4993 -0.9401  0.0528
  187SLPC  H15A21503   1.996   4.476   6.107  1.5943 -0.0551  1.2488
  187SLPC  H15B21504   1.897   4.595   6.022  1.4118 -1.3495 -0.3625
  187SLPC  H15C21505   1.979   4.628   6.169 -2.5196  0.6156  1.3108
  187SLPC   C1221506   1.845   4.454   6.333  0.6747  0.3496 -0.1241
  187SLPC  H12A21507   1.872   4.548   6.379  1.4055  0.0711  0.0204
  187SLPC  H12B21508   1.944   4.410   6.335  1.4977  2.1405 -0.0276
  187SLPC   C1121509   1.746   4.377   6.426 -0.6486 -0.5017 -0.1835
  187SLPC  H11A21510   1.649   4.431   6.428 -0.4540 -0.1578 -0.0530
  187SLPC  H11B21511   1.787   4.395   6.528  0.2307  3.3780 -1.1350
  187SLPC     P21512   1.844   4.139   6.439 -0.2665 -0.0642  0.2750
  187SLPC   O1321513   1.806   4.012   6.378 -0.1051 -0.0177  0.7431
  187SLPC   O1421514   1.976   4.188   6.399 -0.4315  0.1801 -0.3667
  187SLPC   O1221515   1.733   4.243   6.397  0.8981 -0.0210 -0.7088
  187SLPC   O1121516   1.840   4.141   6.592 -1.2199  0.0252 -0.5499
  187SLPC    C121517   1.716   4.138   6.668 -0.1008  0.1150 -0.1130
  187SLPC    HA21518   1.666   4.236   6.679 -0.1644 -0.0959  1.7489
  187SLPC    HB21519   1.637   4.072   6.628  1.8375 -2.3393  0.0169
  187SLPC    C221520   1.743   4.094   6.817 -0.3470 -0.3208  0.1086
  187SLPC    HS21521   1.644   4.074   6.864 -2.1600  0.7559 -3.1306
  187SLPC   O2121522   1.815   4.194   6.891 -0.2447  0.5096  0.5351
  187SLPC   C2121523   1.747   4.304   6.916 -0.2961 -0.1640 -0.6427
  187SLPC   O2221524   1.625   4.314   6.924 -0.1549  0.4147 -0.4642
  187SLPC   C2221525   1.850   4.411   6.951  0.0542  0.6583  0.0977
  187SLPC   H2R21526   1.892   4.449   6.856  0.9317  1.0888  0.6452
  187SLPC   H2S21527   1.793   4.498   6.993  0.1883  1.4657 -1.3577
  187SLPC    C321528   1.826   3.962   6.814 -0.0104 -0.8624  1.0103
  187SLPC    HX21529   1.927   3.976   6.770 -1.1293 -0.7518 -1.5721
  187SLPC    HY21530   1.766   3.896   6.750  0.7299 -0.4943 -0.0826
  187SLPC   O3121531   1.828   3.904   6.940  0.3696  0.3553  0.2398
  187SLPC   C3121532   1.931   3.945   7.013  0.5578 -0.3013  0.5843
  187SLPC   O3221533   2.032   3.996   6.964 -0.4138  0.7313  0.4000
  187SLPC   C3221534   1.897   3.915   7.157 -0.4008 -0.7956 -0.6968
  187SLPC   H2X21535   1.813   3.845   7.171 -1.2719  0.6836  1.8348
  187SLPC   H2Y21536   1.873   3.999   7.226  2.1834  0.1671 -0.8991
  187SLPC   C2321537   1.957   4.364   7.049  0.0019  0.3353 -0.2397
  187SLPC   H3R21538   2.029   4.447   7.064  0.7673 -0.4857  0.6995
  187SLPC   H3S21539   2.008   4.272   7.016 -1.4958 -0.7541  0.4033
  187SLPC   C2421540   1.892   4.327   7.186  0.3293  1.0123 -0.0756
  187SLPC   H4R21541   1.830   4.235   7.184 -0.7325  1.5927  3.2272
  187SLPC   H4S21542   1.821   4.411   7.206  1.1978  1.9332 -0.7689
  187SLPC   C2521543   1.991   4.309   7.305 -0.9245  0.6438  0.4841
  187SLPC   H5R21544   2.030   4.411   7.322 -1.9060  0.9692  0.8524
  187SLPC   H5S21545   2.068   4.239   7.267 -1.5747  1.0376 -1.6487
  187SLPC   C2621546   1.944   4.256   7.443 -0.2882 -0.3302  0.2612
  187SLPC   H6R21547   1.900   4.154   7.442 -0.6529 -0.1748  0.1860
  187SLPC   H6S21548   1.857   4.321   7.468 -1.1900 -1.0091 -1.0363
  187SLPC   C2721549   2.051   4.245   7.551 -0.1465 -1.1553  0.1682
  187SLPC   H7R21550   2.050   4.339   7.611  2.8724 -0.1880 -1.2036
  187SLPC   H7S21551   2.144   4.231   7.494  0.4432 -3.2284  1.5856
  187SLPC   C2821552   2.039   4.118   7.639 -0.0387  0.9568 -0.2896
  187SLPC   H8R21553   2.116   4.113   7.719 -2.1291 -0.3617  1.6729
  187SLPC   H8S21554   2.053   4.031   7.572 -1.3605 -1.8441  2.9546
  187SLPC   C2921555   1.901   4.090   7.705 -0.5812 -0.2973 -0.0074
  187SLPC   H9R21556   1.825   4.032   7.652 -2.5609  3.5093 -1.5250
  187SLPC  C21021557   1.863   4.117   7.828 -0.1966 -0.3589 -0.4552
  187SLPC  H10R21558   1.767   4.076   7.863 -0.9481  1.6803 -0.0513
  187SLPC  C21121559   1.945   4.194   7.933  0.0764  0.8671  0.2619
  187SLPC  H11R21560   2.044   4.213   7.886  0.1552 -1.3926 -0.5317
  187SLPC  H11S21561   1.956   4.129   8.022  1.9248  0.7537 -0.0286
  187SLPC  C21221562   1.866   4.319   7.978 -0.4851  0.2105 -0.4892
  187SLPC  H12R21563   1.875   4.405   7.911 -1.9196  1.5337  0.9744
  187SLPC  C21321564   1.803   4.328   8.093 -0.0158 -0.5585 -0.3675
  187SLPC  H13R21565   1.738   4.413   8.118 -0.1232 -0.9695  0.7952
  187SLPC  C21421566   1.786   4.223   8.204 -0.2784  0.1771  0.3052
  187SLPC  H14R21567   1.859   4.139   8.208  0.3474  0.7969  2.5772
  187SLPC  H14S21568   1.693   4.171   8.170 -0.7963  2.0943 -1.2968
  187SLPC  C21521569   1.760   4.275   8.348 -0.6227 -0.2196 -1.1247
  187SLPC  H15R21570   1.735   4.192   8.419  1.0896 -0.8313 -1.1946
  187SLPC  H15S21571   1.663   4.328   8.354  0.0038  0.6757  2.3382
  187SLPC  C21621572   1.881   4.357   8.388 -0.4737 -0.1790  0.0019
  187SLPC  H16R21573   1.913   4.431   8.311 -0.8152  0.3293  0.3393
  187SLPC  H16S21574   1.969   4.293   8.409 -0.1921  0.3490  0.4643
  187SLPC  C21721575   1.862   4.421   8.529 -0.0468 -0.1645  0.2506
  187SLPC  H17R21576   1.785   4.360   8.581  1.6663 -0.7778  2.1268
  187SLPC  H17S21577   1.821   4.523   8.544 -1.6466 -0.8459  0.6467
  187SLPC  C21821578   1.986   4.389   8.620 -0.4068  1.4284 -0.4774
  187SLPC  H18R21579   1.980   4.454   8.710 -3.3835 -1.1572  1.2750
  187SLPC  H18S21580   2.086   4.402   8.572  0.1072 -0.6487 -0.0073
  187SLPC  H18T21581   1.980   4.280   8.639  0.0090  0.9373 -3.0772
  187SLPC   C3321582   2.016   3.849   7.226  0.7897  0.4595  0.0537
  187SLPC   H3X21583   2.110   3.908   7.214  1.5518 -1.3032 -3.2951
  187SLPC   H3Y21584   2.031   3.747   7.186  1.8107  0.2459  0.9445
  187SLPC   C3421585   1.984   3.832   7.375 -1.1817  0.3807  0.1943
  187SLPC   H4X21586   1.968   3.933   7.418 -1.2619  0.0581  0.9153
  187SLPC   H4Y21587   2.075   3.794   7.427 -1.4483 -1.0902 -0.3858
  187SLPC   C3521588   1.879   3.727   7.406 -0.4579 -0.2768  0.6371
  187SLPC   H5X21589   1.922   3.641   7.351 -1.5583  0.2166 -1.0080
  187SLPC   H5Y21590   1.780   3.749   7.362 -0.6611 -0.9838  0.7267
  187SLPC   C3621591   1.871   3.692   7.554 -0.3124  0.5643  0.3382
  187SLPC   H6X21592   1.783   3.628   7.578 -0.4141  0.6112  0.0892
  187SLPC   H6Y21593   1.857   3.789   7.606 -0.1939  0.7293  0.0621
  187SLPC   C3721594   1.982   3.616   7.629 -0.8707 -0.3538  0.6111
  187SLPC   H7X21595   2.003   3.522   7.573  3.0721 -0.2276  1.7320
  187SLPC   H7Y21596   2.070   3.684   7.633 -0.1255 -1.2574 -0.1424
  187SLPC   C3821597   1.948   3.586   7.771  0.6724  0.1318 -0.4996
  187SLPC   H8X21598   2.034   3.531   7.814  3.3597  3.0202 -1.9525
  187SLPC   H8Y21599   1.861   3.517   7.775  1.2136 -0.5050  0.3949
  187SLPC   C3921600   1.909   3.706   7.861  0.5412 -0.2490  0.3121
  187SLPC   H9X21601   1.806   3.739   7.838  0.3163 -0.9897  0.2489
  187SLPC   H9Y21602   1.980   3.792   7.853  0.4961 -0.3367 -1.1148
  187SLPC  C31021603   1.900   3.668   8.007 -0.2123  0.5954 -0.2480
  187SLPC  H10X21604   1.994   3.622   8.043  0.0090 -0.7780 -2.5222
  187SLPC  H10Y21605   1.816   3.595   8.015 -0.4248  0.7501 -1.0559
  187SLPC  C31121606   1.848   3.784   8.097 -0.7872  0.3457  0.4276
  187SLPC  H11X21607   1.740   3.802   8.080 -0.8460  0.3673  0.8353
  187SLPC  H11Y21608   1.902   3.876   8.065 -0.4353 -1.3148 -4.2054
  187SLPC  C31221609   1.874   3.747   8.240 -0.7314  0.4151 -0.5242
  187SLPC  H12X21610   1.979   3.716   8.253 -1.0039 -0.5985 -0.6809
  187SLPC  H12Y21611   1.825   3.654   8.278 -0.0455  0.5412  0.6803
  187SLPC  C31321612   1.858   3.868   8.332 -0.1949 -0.1146 -0.6221
  187SLPC  H13X21613   1.747   3.868   8.331 -0.2090 -2.7291 -1.1492
  187SLPC  H13Y21614   1.903   3.956   8.280  0.6775 -0.7343 -0.9153
  187SLPC  C31421615   1.916   3.836   8.475 -0.1106 -0.1037  0.0717
  187SLPC  H14X21616   2.026   3.836   8.459 -0.3331 -2.3352 -1.7421
  187SLPC  H14Y21617   1.879   3.737   8.510 -0.3857 -0.0677 -0.1179
  187SLPC  C31521618   1.889   3.954   8.573 -0.1186  0.1896 -0.5783
  187SLPC  H15X21619   1.779   3.962   8.585 -0.2839 -1.1747 -1.1140
  187SLPC  H15Y21620   1.919   4.050   8.527  3.1887 -1.1993 -1.4851
  187SLPC  C31621621   1.953   3.935   8.711 -0.1468  0.1275 -0.3434
  187SLPC  H16X21622   1.919   3.834   8.743  1.5830 -0.5398 -0.6050
  187SLPC  H16Y21623   1.914   4.015   8.777  1.5948 -0.4814  1.4411
  187SLPC  C31721624   2.103   3.958   8.706 -0.5216  0.3121  0.0141
  187SLPC  H17X21625   2.124   4.057   8.659 -0.9215 -0.2067 -1.2732
  187SLPC  H17Y21626   2.162   3.886   8.646 -0.9566 -2.5385  2.8756
  187SLPC  C31821627   2.173   3.965   8.844 -0.1829  0.2924 -0.0407
  187SLPC  H18X21628   2.112   4.017   8.921  0.8263 -0.7900  1.5402
  187SLPC  H18Y21629   2.272   4.015   8.835  0.2209 -0.5897 -0.5183
  187SLPC  H18Z21630   2.188   3.862   8.884 -0.0740  0.4004  0.1991
  188SLPC     N21631   3.029   5.604   6.194 -0.1439 -0.0094  0.7174
  188SLPC   C1321632   3.141   5.535   6.245 -0.3263 -0.5086  0.0870
  188SLPC  H13A21633   3.153   5.440   6.195 -2.2655 -0.1444 -1.1406
  188SLPC  H13B21634   3.225   5.592   6.208  0.1379 -1.3172 -0.1258
  188SLPC  H13C21635   3.152   5.533   6.352 -0.0004  1.0581  0.1000
  188SLPC   C1421636   3.018   5.603   6.050 -0.0752 -0.1942  0.7336
  188SLPC  H14A21637   3.005   5.505   6.007  0.8347  1.0091 -2.3951
  188SLPC  H14B21638   2.924   5.652   6.033 -0.2096 -0.4053  0.8540
  188SLPC  H14C21639   3.098   5.649   5.994 -1.0599 -1.6980 -1.9931
  188SLPC   C1521640   3.057   5.746   6.242  0.8389  0.2577 -0.0628
  188SLPC  H15A21641   3.154   5.781   6.208  0.3399  1.2076 -0.5225
  188SLPC  H15B21642   2.974   5.809   6.213  0.0015 -0.5173  0.6298
  188SLPC  H15C21643   3.059   5.744   6.350  1.1171  3.2368  0.0479
  188SLPC   C1221644   2.903   5.554   6.267  0.2234  0.0802 -0.6609
  188SLPC  H12A21645   2.869   5.458   6.232  1.4781 -0.2175 -1.0666
  188SLPC  H12B21646   2.821   5.623   6.253 -0.2781 -0.2514  0.5139
  188SLPC   C1121647   2.905   5.541   6.423 -0.3330  0.3747 -0.5057
  188SLPC  H11A21648   2.982   5.469   6.458 -0.1157  0.7065 -0.2929
  188SLPC  H11B21649   2.811   5.497   6.463 -1.5802  1.3699 -2.2869
  188SLPC     P21650   2.814   5.773   6.491  0.0752  0.6437  0.2535
  188SLPC   O1321651   2.869   5.910   6.484 -0.0297  0.1646  0.1021
  188SLPC   O1421652   2.714   5.749   6.385  0.3676 -0.5121 -0.9278
  188SLPC   O1221653   2.932   5.673   6.485 -0.0955 -0.3223  0.6498
  188SLPC   O1121654   2.754   5.754   6.639 -0.1678 -0.0676  0.7574
  188SLPC    C121655   2.662   5.850   6.691  0.3931  0.3614  0.2468
  188SLPC    HA21656   2.610   5.904   6.609 -0.4544 -2.4158 -1.1186
  188SLPC    HB21657   2.583   5.802   6.754  0.8052 -0.1642  0.3682
  188SLPC    C221658   2.728   5.960   6.780  0.5057 -0.1709  0.6594
  188SLPC    HS21659   2.834   5.967   6.747  0.2691  0.7239  0.0775
  188SLPC   O2121660   2.722   5.925   6.916  0.2254  0.1717  0.2996
  188SLPC   C2121661   2.784   6.004   6.999  0.3000 -0.2423  0.3111
  188SLPC   O2221662   2.854   6.098   6.968 -0.0719  0.3968  0.5480
  188SLPC   C2221663   2.759   5.952   7.143 -0.3363 -0.9276 -0.4766
  188SLPC   H2R21664   2.664   5.897   7.131  0.0729 -1.8208  0.3041
  188SLPC   H2S21665   2.844   5.886   7.171  0.6824  0.7104  0.4142
  188SLPC    C321666   2.649   6.093   6.755  0.1924  0.5825  0.0255
  188SLPC    HX21667   2.679   6.108   6.649  1.4719 -0.5156  0.2266
  188SLPC    HY21668   2.698   6.173   6.814  2.5518  0.3571 -1.5892
  188SLPC   O3121669   2.509   6.077   6.794  0.2097 -0.1711 -0.1059
  188SLPC   C3121670   2.426   6.148   6.720 -0.4113  0.9194 -0.4282
  188SLPC   O3221671   2.450   6.235   6.643  0.4876  0.2033 -0.1869
  188SLPC   C3221672   2.283   6.111   6.760 -0.6052 -0.3067 -0.5235
  188SLPC   H2X21673   2.267   6.001   6.763 -1.5334 -0.3502 -4.5783
  188SLPC   H2Y21674   2.217   6.161   6.686  1.5250  2.2719 -0.7484
  188SLPC   C2321675   2.743   6.077   7.239 -0.0345  0.4148 -0.5068
  188SLPC   H3R21676   2.656   6.143   7.216  2.0321  3.5232  0.2420
  188SLPC   H3S21677   2.830   6.145   7.223 -0.4546  1.0596 -0.1074
  188SLPC   C2421678   2.735   6.025   7.382 -0.4299  0.8088 -0.0670
  188SLPC   H4R21679   2.837   6.003   7.420 -1.1402  0.1677  1.5041
  188SLPC   H4S21680   2.681   5.928   7.388  1.8275 -0.4357  0.9347
  188SLPC   C2521681   2.675   6.133   7.479  1.1483  0.6350  0.9909
  188SLPC   H5R21682   2.578   6.162   7.432  1.7818  0.3113 -0.5431
  188SLPC   H5S21683   2.734   6.227   7.471 -0.6119  1.5948 -1.8253
  188SLPC   C2621684   2.653   6.081   7.622  0.3580  0.2351 -0.1786
  188SLPC   H6R21685   2.741   6.034   7.670 -0.0645 -1.3561 -0.9455
  188SLPC   H6S21686   2.574   6.003   7.624 -0.2363  0.7833 -1.2375
  188SLPC   C2721687   2.599   6.189   7.714 -0.1193 -0.3093  0.4534
  188SLPC   H7R21688   2.493   6.212   7.691  0.1440 -1.2435 -1.8222
  188SLPC   H7S21689   2.666   6.275   7.694  0.9647 -1.5560 -1.3714
  188SLPC   C2821690   2.609   6.167   7.864 -1.0360 -0.3379  0.2279
  188SLPC   H8R21691   2.575   6.264   7.907  0.5089  0.7260 -0.9252
  188SLPC   H8S21692   2.715   6.143   7.889 -1.6456 -2.1785  1.1459
  188SLPC   C2921693   2.538   6.043   7.914  0.5659  0.9387 -0.4208
  188SLPC   H9R21694   2.529   5.962   7.841 -1.5457  0.4237  0.3535
  188SLPC  C21021695   2.505   6.020   8.043  0.3762 -0.1476 -0.2950
  188SLPC  H10R21696   2.445   5.930   8.064  1.1912 -0.6983 -0.3295
  188SLPC  C21121697   2.515   6.112   8.164  0.0488 -0.7604 -0.3457
  188SLPC  H11R21698   2.413   6.112   8.208 -0.1119 -0.2302 -0.7163
  188SLPC  H11S21699   2.518   6.217   8.128  2.4706 -0.3808  0.8863
  188SLPC  C21221700   2.635   6.073   8.252 -0.8928 -0.4821  0.2035
  188SLPC  H12R21701   2.712   6.005   8.212 -0.1494 -0.3985  1.4584
  188SLPC  C21321702   2.649   6.126   8.376 -0.0302 -0.2505 -0.2577
  188SLPC  H13R21703   2.741   6.110   8.434  0.6843  0.3430 -1.2027
  188SLPC  C21421704   2.553   6.215   8.451 -0.2873 -0.3242 -0.2721
  188SLPC  H14R21705   2.454   6.230   8.404 -0.6700  0.2735  0.7041
  188SLPC  H14S21706   2.604   6.313   8.457  0.5366 -0.8176  1.2859
  188SLPC  C21521707   2.545   6.165   8.601  0.2793  0.2020 -0.3377
  188SLPC  H15R21708   2.635   6.114   8.640  0.5423 -0.0676 -1.2698
  188SLPC  H15S21709   2.461   6.092   8.594  0.5590  0.0548 -2.6973
  188SLPC  C21621710   2.512   6.281   8.695  1.2641  0.6090  0.5473
  188SLPC  H16R21711   2.454   6.235   8.777  2.5349 -1.7947  0.1685
  188SLPC  H16S21712   2.445   6.357   8.651  2.0835  1.1015  0.1241
  188SLPC  C21721713   2.637   6.348   8.744  0.1052  0.2975  0.2586
  188SLPC  H17R21714   2.690   6.394   8.659  0.8198 -2.3127 -0.7527
  188SLPC  H17S21715   2.716   6.282   8.786 -0.6633 -0.3680  0.7032
  188SLPC  C21821716   2.619   6.459   8.851  0.3835 -0.4970 -0.0051
  188SLPC  H18R21717   2.715   6.488   8.899  1.0983 -2.2203 -0.3497
  188SLPC  H18S21718   2.550   6.416   8.926 -2.3556  0.5701 -1.8530
  188SLPC  H18T21719   2.564   6.546   8.809  2.2651  1.6228  1.7765
  188SLPC   C3321720   2.236   6.167   6.889 -0.3917  0.1638  0.0339
  188SLPC   H3X21721   2.130   6.135   6.892 -0.4163  0.3414  2.5707
  188SLPC   H3Y21722   2.242   6.278   6.887  1.4648  0.0690 -1.1277
  188SLPC   C3421723   2.309   6.110   7.018  0.2070 -0.1179  0.3138
  188SLPC   H4X21724   2.419   6.126   7.027  0.2014  0.5330 -0.6826
  188SLPC   H4Y21725   2.284   6.001   7.016 -1.7866  0.3478 -1.1831
  188SLPC   C3521726   2.237   6.179   7.141 -0.6931 -0.3534 -0.5981
  188SLPC   H5X21727   2.126   6.179   7.139 -0.6817 -0.2714 -1.0285
  188SLPC   H5Y21728   2.268   6.286   7.136  0.2772 -0.6528 -1.1862
  188SLPC   C3621729   2.283   6.111   7.271  0.6408  0.6256 -0.0728
  188SLPC   H6X21730   2.393   6.113   7.286  0.3307  0.9600  2.4483
  188SLPC   H6Y21731   2.245   6.007   7.260 -1.3605  1.4126 -0.9216
  188SLPC   C3721732   2.218   6.185   7.393  0.0825 -0.5861 -0.6696
  188SLPC   H7X21733   2.108   6.173   7.382  0.3014 -3.3962 -0.2768
  188SLPC   H7Y21734   2.254   6.290   7.390  1.7162 -0.9947  2.2187
  188SLPC   C3821735   2.259   6.118   7.520 -0.4254 -0.0444  0.9781
  188SLPC   H8X21736   2.369   6.101   7.515 -0.4506 -0.5381  1.9324
  188SLPC   H8Y21737   2.210   6.018   7.525  2.7146 -1.6848  0.6162
  188SLPC   C3921738   2.211   6.199   7.641 -0.0050 -0.3735 -1.0715
  188SLPC   H9X21739   2.118   6.255   7.615 -0.6582 -0.8496  0.2060
  188SLPC   H9Y21740   2.286   6.279   7.661  1.6632 -1.6951 -1.9879
  188SLPC  C31021741   2.184   6.112   7.767  0.2729 -0.6966 -0.4729
  188SLPC  H10X21742   2.277   6.070   7.812  0.3652  0.3927  0.3703
  188SLPC  H10Y21743   2.111   6.032   7.741 -2.2837  1.6519 -0.6586
  188SLPC  C31121744   2.124   6.203   7.877  0.4660  0.5481 -1.1321
  188SLPC  H11X21745   2.058   6.147   7.948  2.1658  1.4284  1.1941
  188SLPC  H11Y21746   2.050   6.269   7.827  0.4529 -0.7791 -2.9596
  188SLPC  C31221747   2.232   6.289   7.954 -0.1983  0.1346  0.0019
  188SLPC  H12X21748   2.287   6.353   7.882  1.1257 -1.0332 -0.0349
  188SLPC  H12Y21749   2.310   6.228   8.004 -0.0020  0.1592 -0.2771
  188SLPC  C31321750   2.183   6.392   8.058 -0.5052  0.3390  0.0152
  188SLPC  H13X21751   2.108   6.358   8.132  0.2714 -0.1158  0.6043
  188SLPC  H13Y21752   2.132   6.471   7.998 -0.8739 -1.5546 -2.2437
  188SLPC  C31421753   2.303   6.473   8.117  0.7417  0.1047 -0.1225
  188SLPC  H14X21754   2.356   6.511   8.027 -0.3154 -2.9618 -2.1334
  188SLPC  H14Y21755   2.382   6.407   8.158  1.9799  2.1948  0.8704
  188SLPC  C31521756   2.267   6.595   8.209  0.3886  0.2032 -0.2530
  188SLPC  H15X21757   2.223   6.561   8.305  0.7747  3.1950  1.0366
  188SLPC  H15Y21758   2.182   6.651   8.164 -0.7534 -0.9847  0.3991
  188SLPC  C31621759   2.378   6.691   8.235 -0.0476 -0.2430 -0.2180
  188SLPC  H16X21760   2.422   6.732   8.141 -1.9489  1.7291 -0.2913
  188SLPC  H16Y21761   2.461   6.639   8.286 -0.3281  0.8259  1.3615
  188SLPC  C31721762   2.330   6.794   8.338  0.0412  0.2126  0.2955
  188SLPC  H17X21763   2.421   6.843   8.380  1.0356 -1.1443 -0.2277
  188SLPC  H17Y21764   2.278   6.730   8.412  1.7184 -0.6755  0.7543
  188SLPC  C31821765   2.226   6.894   8.294 -0.0778 -0.1161 -0.0465
  188SLPC  H18X21766   2.225   6.912   8.184  0.1068 -0.4973 -0.1121
  188SLPC  H18Y21767   2.252   6.985   8.351 -1.5585  0.7805 -0.7903
  188SLPC  H18Z21768   2.124   6.856   8.314  0.2330 -1.7061 -1.3347
  189SLPC     N21769   4.578   1.467   6.321  0.4169  0.1325 -0.4391
  189SLPC   C1321770   4.697   1.556   6.333 -0.7248 -0.3613 -0.5234
  189SLPC  H13A21771   4.700   1.620   6.246 -2.5315  1.3254  0.6089
  189SLPC  H13B21772   4.684   1.624   6.416  0.9652  0.2712 -0.7582
  189SLPC  H13C21773   4.784   1.496   6.356  0.6875  1.5286 -0.7859
  189SLPC   C1421774   4.603   1.376   6.210  0.5004  0.6042 -0.2650
  189SLPC  H14A21775   4.522   1.311   6.179  1.5783 -1.3508  0.8593
  189SLPC  H14B21776   4.631   1.435   6.125 -0.7704  2.6884  0.7303
  189SLPC  H14C21777   4.678   1.303   6.237  1.5153  1.4216 -0.8888
  189SLPC   C1521778   4.464   1.555   6.291  0.0221 -0.4974  0.2092
  189SLPC  H15A21779   4.472   1.594   6.191 -0.1011  1.7574  1.0511
  189SLPC  H15B21780   4.375   1.494   6.296  0.2333 -0.8873 -0.6610
  189SLPC  H15C21781   4.468   1.635   6.364  2.1173 -0.8298  0.4943
  189SLPC   C1221782   4.553   1.387   6.447 -0.0197  0.2376  0.1506
  189SLPC  H12A21783   4.455   1.342   6.438  0.5223 -1.3343  1.7764
  189SLPC  H12B21784   4.544   1.453   6.532  0.3531  1.2937 -0.6300
  189SLPC   C1121785   4.658   1.279   6.489 -0.3899  0.2259  0.0233
  189SLPC  H11A21786   4.632   1.237   6.589  0.4785  1.7302  0.8938
  189SLPC  H11B21787   4.756   1.332   6.491 -0.9987  1.3568  0.5989
  189SLPC     P21788   4.571   1.053   6.401  0.2630  0.4091 -0.1004
  189SLPC   O1321789   4.543   1.014   6.262 -0.1641 -0.4767  0.3980
  189SLPC   O1421790   4.624   0.941   6.477  0.4962 -0.1171 -0.4781
  189SLPC   O1221791   4.670   1.172   6.396 -0.1185 -0.2221 -0.4309
  189SLPC   O1121792   4.444   1.115   6.469  0.4362 -0.6033 -0.0760
  189SLPC    C121793   4.342   1.025   6.522 -0.3567  0.4164  0.0548
  189SLPC    HA21794   4.260   1.010   6.448 -0.0622 -1.0594  0.0302
  189SLPC    HB21795   4.371   0.920   6.543 -2.9519 -0.6535 -1.4273
  189SLPC    C221796   4.297   1.079   6.659  0.2681 -0.7725  0.2258
  189SLPC    HS21797   4.302   1.190   6.665  2.5726 -0.8351  0.1702
  189SLPC   O2121798   4.369   1.021   6.774 -0.2462  0.0176  0.1347
  189SLPC   C2121799   4.403   1.105   6.870 -0.4471 -0.1850  0.5019
  189SLPC   O2221800   4.358   1.218   6.880  0.4880  0.6688  0.0146
  189SLPC   C2221801   4.500   1.039   6.969  0.7914 -0.5203  0.5928
  189SLPC   H2R21802   4.502   0.928   6.965 -0.3811 -0.5908  1.6476
  189SLPC   H2S21803   4.602   1.076   6.944  0.5409 -0.5486 -0.4595
  189SLPC    C321804   4.146   1.046   6.674  0.4090 -0.4183 -0.3738
  189SLPC    HX21805   4.153   0.940   6.643  1.4755  0.1647 -2.1672
  189SLPC    HY21806   4.075   1.096   6.604 -1.7399  0.2458  2.2032
  189SLPC   O3121807   4.102   1.065   6.812 -0.3485 -0.1588 -0.0738
  189SLPC   C3121808   4.012   0.978   6.866 -0.4428  0.6100 -0.1958
  189SLPC   O3221809   3.969   0.878   6.811  0.4191 -0.0474 -0.5314
  189SLPC   C3221810   3.965   1.036   7.000  0.1986 -0.3710  0.1472
  189SLPC   H2X21811   3.978   1.146   6.988  2.0703 -0.6433 -0.4081
  189SLPC   H2Y21812   4.014   0.993   7.089 -0.9607 -0.7264  0.6301
  189SLPC   C2321813   4.462   1.075   7.117  0.1853 -1.1381 -0.3894
  189SLPC   H3R21814   4.352   1.071   7.127  0.1985  0.2402  0.5160
  189SLPC   H3S21815   4.500   1.176   7.147 -1.3350  0.3021 -3.1451
  189SLPC   C2421816   4.503   0.976   7.226  0.7412  0.5483 -0.3994
  189SLPC   H4R21817   4.609   0.993   7.253  0.5182  1.3839 -0.0194
  189SLPC   H4S21818   4.491   0.876   7.180 -0.8477  0.2994  0.5379
  189SLPC   C2521819   4.416   0.982   7.356 -0.3471 -0.2275  0.3230
  189SLPC   H5R21820   4.314   0.943   7.336 -1.6769  2.4257  1.7330
  189SLPC   H5S21821   4.412   1.085   7.397  0.1349  0.0762 -0.3663
  189SLPC   C2621822   4.474   0.890   7.462 -0.2262  0.3064  0.0573
  189SLPC   H6R21823   4.575   0.919   7.497 -0.4600  1.4691 -0.1755
  189SLPC   H6S21824   4.469   0.788   7.420 -3.0798  1.3059 -2.2669
  189SLPC   C2721825   4.398   0.894   7.597 -0.4054  0.0490  0.4460
  189SLPC   H7R21826   4.432   0.808   7.660 -0.7897  0.3527  1.0736
  189SLPC   H7S21827   4.294   0.864   7.576  0.4985 -0.9295 -2.9872
  189SLPC   C2821828   4.402   1.016   7.690  0.7023 -0.2599 -0.0534
  189SLPC   H8R21829   4.349   1.104   7.649 -1.2972 -0.5616  1.7955
  189SLPC   H8S21830   4.504   1.058   7.702 -0.4797  2.0198  2.8145
  189SLPC   C2921831   4.353   0.991   7.833  0.3074 -0.2675 -0.1771
  189SLPC   H9R21832   4.252   0.948   7.830  0.1658  0.0145  0.4111
  189SLPC  C21021833   4.410   1.000   7.948 -0.1379  0.7284  0.0464
  189SLPC  H10R21834   4.370   0.953   8.039 -1.4291 -0.1038 -0.9329
  189SLPC  C21121835   4.548   1.043   7.966 -0.4339  0.6979 -0.1423
  189SLPC  H11R21836   4.608   1.047   7.873 -1.5516 -1.2674 -0.9712
  189SLPC  H11S21837   4.598   0.962   8.023 -1.3912  0.7036  0.7357
  189SLPC  C21221838   4.550   1.176   8.031 -0.2326 -0.3329  0.4435
  189SLPC  H12R21839   4.473   1.245   7.993  1.1703  0.4770 -0.9956
  189SLPC  C21321840   4.642   1.214   8.126 -0.5773 -0.5093  0.6743
  189SLPC  H13R21841   4.632   1.318   8.162 -3.1696  0.6347 -3.0793
  189SLPC  C21421842   4.752   1.136   8.181 -0.4162 -0.0038 -0.5839
  189SLPC  H14R21843   4.735   1.026   8.171 -2.3717  0.3598 -1.5849
  189SLPC  H14S21844   4.778   1.158   8.287  0.7628  0.2753 -0.9270
  189SLPC  C21521845   4.892   1.142   8.103 -0.3236 -0.2452 -0.0500
  189SLPC  H15R21846   4.919   1.243   8.066 -0.7438 -0.3484 -0.6369
  189SLPC  H15S21847   4.880   1.087   8.007 -1.0613 -1.0562  0.4894
  189SLPC  C21621848   5.009   1.081   8.188  0.0972 -0.4935 -0.5626
  189SLPC  H16R21849   4.967   0.983   8.215 -0.3005 -0.0122  0.5710
  189SLPC  H16S21850   5.016   1.141   8.281 -3.4881  0.4012 -0.8167
  189SLPC  C21721851   5.145   1.083   8.108 -0.1473 -0.0457 -0.7228
  189SLPC  H17R21852   5.172   1.189   8.086  1.3432 -0.1117  0.7125
  189SLPC  H17S21853   5.122   1.035   8.011  0.7768  1.3308 -1.6393
  189SLPC  C21821854   5.251   0.998   8.172 -0.7570 -0.6900 -0.0428
  189SLPC  H18R21855   5.352   1.002   8.125  0.1251 -0.4466  1.8290
  189SLPC  H18S21856   5.218   0.892   8.173  0.4129 -1.0666 -0.4539
  189SLPC  H18T21857   5.254   1.018   8.281  0.8187 -0.7137 -0.0732
  189SLPC   C3321858   3.810   1.010   7.017 -0.3824 -0.5000 -0.2246
  189SLPC   H3X21859   3.785   0.904   6.995 -2.0249 -0.1541 -0.1447
  189SLPC   H3Y21860   3.736   1.057   6.948 -1.5447  0.6392  1.7227
  189SLPC   C3421861   3.768   1.029   7.167 -0.4745  0.5704 -0.4791
  189SLPC   H4X21862   3.846   0.974   7.223 -0.7916  1.2983  0.6998
  189SLPC   H4Y21863   3.677   0.968   7.185 -0.4068  0.3311 -0.9476
  189SLPC   C3521864   3.756   1.175   7.213 -0.3077 -0.3104 -0.5486
  189SLPC   H5X21865   3.683   1.231   7.152 -1.4030  0.2423  1.2285
  189SLPC   H5Y21866   3.855   1.225   7.202 -0.8797  1.3263  1.4273
  189SLPC   C3621867   3.739   1.190   7.365 -1.2348 -0.0530 -0.1782
  189SLPC   H6X21868   3.839   1.167   7.409 -0.4813  0.3690 -1.6294
  189SLPC   H6Y21869   3.664   1.119   7.405 -0.5116 -0.3898  0.6060
  189SLPC   C3721870   3.711   1.335   7.409 -0.4379  0.4236  0.1203
  189SLPC   H7X21871   3.614   1.369   7.367  0.1368  0.7766 -0.9364
  189SLPC   H7Y21872   3.785   1.408   7.369  0.4237 -1.3585 -1.6392
  189SLPC   C3821873   3.694   1.330   7.556 -0.5993 -0.2491 -0.5102
  189SLPC   H8X21874   3.784   1.289   7.607 -2.0979 -2.3710  0.4929
  189SLPC   H8Y21875   3.613   1.256   7.575 -0.9434  0.5354  1.1948
  189SLPC   C3921876   3.646   1.460   7.610  0.3468  0.6226 -0.4042
  189SLPC   H9X21877   3.543   1.487   7.582 -0.1647 -1.1718 -0.3399
  189SLPC   H9Y21878   3.713   1.542   7.577  0.7041 -0.0188 -1.2951
  189SLPC  C31021879   3.677   1.466   7.753  0.6307  0.0454  0.2933
  189SLPC  H10X21880   3.689   1.571   7.786  1.1817 -0.1299  0.6726
  189SLPC  H10Y21881   3.779   1.423   7.763  0.8023  0.1953 -0.8313
  189SLPC  C31121882   3.577   1.399   7.846  0.6341  0.3757 -0.1413
  189SLPC  H11X21883   3.573   1.289   7.829  2.2151  0.3762 -0.5842
  189SLPC  H11Y21884   3.476   1.441   7.824 -0.1328 -1.6272 -0.5622
  189SLPC  C31221885   3.599   1.427   7.993  0.0784  0.1089  0.4279
  189SLPC  H12X21886   3.558   1.527   8.019  1.2358  1.0151 -1.1632
  189SLPC  H12Y21887   3.710   1.437   8.000  0.0406 -1.0026  3.1923
  189SLPC  C31321888   3.535   1.320   8.091  0.1533 -0.2484  0.2479
  189SLPC  H13X21889   3.600   1.311   8.181  0.5041  2.6178  0.3303
  189SLPC  H13Y21890   3.533   1.221   8.041  1.6581  0.1624 -0.6702
  189SLPC  C31421891   3.383   1.354   8.125 -0.2838 -0.5231  0.4221
  189SLPC  H14X21892   3.322   1.351   8.032 -1.9732  0.1685  1.4874
  189SLPC  H14Y21893   3.366   1.451   8.175 -0.9357  0.2653 -1.2741
  189SLPC  C31521894   3.314   1.237   8.215  0.4457 -0.6362  0.8338
  189SLPC  H15X21895   3.379   1.240   8.305  0.7903 -1.0525  0.6023
  189SLPC  H15Y21896   3.325   1.138   8.165 -2.6884 -0.4026 -0.4218
  189SLPC  C31621897   3.170   1.264   8.253  0.3904 -0.4840 -0.1201
  189SLPC  H16X21898   3.102   1.278   8.166  0.1737 -0.3626  0.0692
  189SLPC  H16Y21899   3.168   1.355   8.317 -0.6461 -1.2886  1.0198
  189SLPC  C31721900   3.109   1.145   8.336 -0.1980  0.0079 -0.0171
  189SLPC  H17X21901   3.170   1.130   8.428  0.7863  1.1948 -0.4627
  189SLPC  H17Y21902   3.118   1.061   8.263 -1.1998  0.0467 -0.1895
  189SLPC  C31821903   2.961   1.165   8.368  0.1151  0.1010  0.3689
  189SLPC  H18X21904   2.908   1.161   8.271 -1.1092  1.2043  0.9802
  189SLPC  H18Y21905   2.947   1.268   8.407 -2.5028 -0.1205  0.0736
  189SLPC  H18Z21906   2.925   1.089   8.441  0.4094 -0.3117  0.0870
  190SLPC     N21907   4.964   0.918   6.328  0.3334  0.2219  0.1264
  190SLPC   C1321908   4.844   0.865   6.255  0.3437 -0.5966  0.3794
  190SLPC  H13A21909   4.825   0.923   6.166 -0.5852 -1.1918  0.1795
  190SLPC  H13B21910   4.850   0.762   6.222 -1.1614 -0.6129  0.1450
  190SLPC  H13C21911   4.755   0.871   6.316 -0.0677 -0.6610 -0.2087
  190SLPC   C1421912   4.967   1.066   6.335  0.1069  0.6196  0.3635
  190SLPC  H14A21913   4.972   1.108   6.236  0.4927 -0.8633 -0.2689
  190SLPC  H14B21914   4.875   1.107   6.373 -0.2665 -0.2724  0.4349
  190SLPC  H14C21915   5.054   1.104   6.384 -0.1367  0.1800  1.1436
  190SLPC   C1521916   5.079   0.875   6.246  0.6030  0.2093 -0.2150
  190SLPC  H15A21917   5.083   0.910   6.143  1.1084  0.9432  0.0516
  190SLPC  H15B21918   5.173   0.904   6.290 -1.0702  0.7122  3.2157
  190SLPC  H15C21919   5.080   0.767   6.245  0.1250  0.1832  1.4912
  190SLPC   C1221920   4.973   0.854   6.470 -0.1312 -0.0822 -0.7401
  190SLPC  H12A21921   4.914   0.917   6.535 -1.3451  0.8093 -2.6808
  190SLPC  H12B21922   5.077   0.862   6.500  0.1261 -2.4031 -0.9328
  190SLPC   C1121923   4.931   0.707   6.490  0.6197  0.0412 -0.3625
  190SLPC  H11A21924   4.823   0.696   6.470  0.0505  2.0208  1.4712
  190SLPC  H11B21925   4.954   0.681   6.595 -0.2561  3.4393  0.7406
  190SLPC     P21926   5.095   0.510   6.429 -0.1806  0.2455  0.2319
  190SLPC   O1321927   5.105   0.410   6.319 -0.4915  0.3079 -0.3510
  190SLPC   O1421928   5.224   0.564   6.478 -0.1063  0.1565  0.0418
  190SLPC   O1221929   4.996   0.624   6.391 -0.8936  0.5373 -0.6019
  190SLPC   O1121930   5.029   0.432   6.552 -0.5157  0.7092  0.3088
  190SLPC    C121931   4.900   0.369   6.547 -0.3292  0.5824  0.0151
  190SLPC    HA21932   4.834   0.415   6.470 -0.4166 -0.6985 -0.7044
  190SLPC    HB21933   4.908   0.262   6.517 -0.1169  0.2848  1.1265
  190SLPC    C221934   4.827   0.400   6.676 -0.1708  0.0060 -0.0734
  190SLPC    HS21935   4.839   0.509   6.694 -1.5941 -0.0189  1.1188
  190SLPC   O2121936   4.878   0.322   6.783 -0.4237 -0.3354  0.2517
  190SLPC   C2121937   4.979   0.380   6.845 -0.1379 -0.6919  0.2420
  190SLPC   O2221938   5.029   0.487   6.816 -0.3658 -0.0562  0.1177
  190SLPC   C2221939   4.999   0.299   6.974  0.1038 -0.0822 -0.3433
  190SLPC   H2R21940   4.956   0.364   7.053  1.3191 -3.4096  3.1773
  190SLPC   H2S21941   4.943   0.204   6.958 -0.6054  0.2423  0.2119
  190SLPC    C321942   4.675   0.374   6.654 -0.8012 -0.0802  0.2726
  190SLPC    HX21943   4.654   0.270   6.620 -0.4680  1.0213 -3.6032
  190SLPC    HY21944   4.652   0.442   6.568 -1.4576  0.4463  0.8565
  190SLPC   O3121945   4.604   0.417   6.775 -0.2147  0.2460  0.4523
  190SLPC   C3121946   4.580   0.306   6.856 -0.0974 -0.0131  0.4668
  190SLPC   O3221947   4.596   0.193   6.821  0.5116 -0.3499 -0.1041
  190SLPC   C3221948   4.510   0.345   6.988  0.4293  0.2308  0.4143
  190SLPC   H2X21949   4.407   0.373   6.958  1.1316  0.4921 -1.8067
  190SLPC   H2Y21950   4.565   0.437   7.018  0.4052  0.3343  0.1454
  190SLPC   C2321951   5.151   0.254   7.002 -0.3083 -0.2059  0.8738
  190SLPC   H3R21952   5.202   0.348   7.034 -1.5661 -0.0143  2.3861
  190SLPC   H3S21953   5.210   0.207   6.921  0.2502  1.5759  0.2106
  190SLPC   C2421954   5.146   0.158   7.124 -0.1067  0.0612  1.0488
  190SLPC   H4R21955   5.093   0.063   7.104  1.9157 -1.1869  1.4954
  190SLPC   H4S21956   5.086   0.215   7.200  0.7366  0.8337  1.1467
  190SLPC   C2521957   5.279   0.129   7.200  0.0546 -0.3611 -0.6197
  190SLPC   H5R21958   5.317   0.232   7.220 -1.3281  0.1391 -0.5270
  190SLPC   H5S21959   5.351   0.080   7.131  2.6145  2.2375  0.0700
  190SLPC   C2621960   5.258   0.048   7.331 -0.4985 -0.4115 -0.0787
  190SLPC   H6R21961   5.352   0.001   7.366  0.8224  0.2848 -2.5585
  190SLPC   H6S21962   5.193  -0.042   7.326  0.7494 -1.3219 -0.1047
  190SLPC   C2721963   5.213   0.134   7.450 -0.8235 -0.3243  0.4098
  190SLPC   H7R21964   5.109   0.163   7.423  0.0286  0.4779 -2.2372
  190SLPC   H7S21965   5.279   0.223   7.445  0.6306 -1.4061 -0.1509
  190SLPC   C2821966   5.224   0.065   7.584 -0.5458 -0.4931 -0.2139
  190SLPC   H8R21967   5.320   0.011   7.598 -0.0080  0.3308 -0.7249
  190SLPC   H8S21968   5.146  -0.015   7.582  0.0761 -1.0887 -1.5088
  190SLPC   C2921969   5.195   0.173   7.687  0.4318  0.0127 -0.1051
  190SLPC   H9R21970   5.180   0.273   7.643  0.9200  0.8718  1.6361
  190SLPC  C21021971   5.204   0.158   7.825  0.2336  0.3827 -0.3361
  190SLPC  H10R21972   5.161   0.231   7.895 -2.9245 -2.8316  1.2257
  190SLPC  C21121973   5.234   0.027   7.889  0.0804 -0.0342  0.3058
  190SLPC  H11R21974   5.243  -0.052   7.812  1.5171  0.9705 -0.5723
  190SLPC  H11S21975   5.156  -0.017   7.955  1.2782 -2.5075  0.1350
  190SLPC  C21221976   5.359   0.028   7.974  0.0435  0.2734  0.9451
  190SLPC  H12R21977   5.425   0.117   7.972  0.5084  0.0490  3.8386
  190SLPC  C21321978   5.396  -0.066   8.057  0.0388  0.4595 -0.1971
  190SLPC  H13R21979   5.494  -0.052   8.103 -0.6162  0.9792  1.0613
  190SLPC  C21421980   5.322  -0.196   8.092 -0.2405 -0.1986  0.0421
  190SLPC  H14R21981   5.378  -0.245   8.174  0.4136 -2.3585 -1.6347
  190SLPC  H14S21982   5.336  -0.270   8.011  0.5394  0.1095 -0.1084
  190SLPC  C21521983   5.169  -0.201   8.129  0.6527 -1.0493 -0.5635
  190SLPC  H15R21984   5.152  -0.308   8.153  3.2335 -1.8561 -2.1371
  190SLPC  H15S21985   5.115  -0.178   8.034 -0.4911  1.4152  0.6530
  190SLPC  C21621986   5.120  -0.115   8.244  0.4105 -0.1200  0.3657
  190SLPC  H16R21987   5.028  -0.164   8.282 -1.0224  2.1032 -0.1894
  190SLPC  H16S21988   5.099  -0.012   8.209 -0.6477 -0.8507 -1.1880
  190SLPC  C21721989   5.205  -0.108   8.368 -0.4529 -0.3189 -0.5892
  190SLPC  H17R21990   5.289  -0.039   8.346 -2.0610  1.3046 -1.7310
  190SLPC  H17S21991   5.243  -0.208   8.399 -3.4206 -1.7202 -1.3002
  190SLPC  C21821992   5.124  -0.050   8.487 -0.4769  0.1232 -0.5017
  190SLPC  H18R21993   5.048  -0.123   8.522  2.7822 -2.1527  2.1760
  190SLPC  H18S21994   5.078   0.044   8.450  0.1240 -0.1143 -1.8832
  190SLPC  H18T21995   5.198  -0.031   8.568  0.4261 -2.8566 -0.5789
  190SLPC   C3321996   4.512   0.222   7.087  0.2142 -0.1956  0.0633
  190SLPC   H3X21997   4.617   0.211   7.122  0.6451  0.7570 -0.8685
  190SLPC   H3Y21998   4.483   0.132   7.027 -0.8829 -0.1012  0.4409
  190SLPC   C3421999   4.408   0.224   7.204 -0.2110  0.2543  0.4370
  190SLPC   H4X22000   4.418   0.136   7.271  1.1474  0.6170  0.7406
  190SLPC   H4Y22001   4.306   0.202   7.166  0.2343 -0.4144 -0.3722
  190SLPC   C3522002   4.435   0.344   7.293  0.5789 -0.2810  0.5311
  190SLPC   H5X22003   4.416   0.430   7.227 -0.6745 -1.2742 -0.4238
  190SLPC   H5Y22004   4.539   0.342   7.333  0.6596 -2.1117  0.2804
  190SLPC   C3622005   4.345   0.339   7.413  0.5577 -0.2756  0.3310
  190SLPC   H6X22006   4.349   0.238   7.460 -1.5426  0.2281  1.6580
  190SLPC   H6Y22007   4.235   0.347   7.396  0.6669  1.2696  0.3073
  190SLPC   C3722008   4.378   0.449   7.511 -0.3357 -0.1332  0.6849
  190SLPC   H7X22009   4.345   0.545   7.467 -1.4629 -0.5988  0.4781
  190SLPC   H7Y22010   4.486   0.452   7.535 -0.3426  0.6228  0.6323
  190SLPC   C3822011   4.296   0.426   7.643 -0.3476  0.1138  0.7746
  190SLPC   H8X22012   4.314   0.322   7.680  2.2882 -1.3989 -4.3084
  190SLPC   H8Y22013   4.188   0.438   7.622 -0.3383 -1.9146 -0.5882
  190SLPC   C3922014   4.335   0.527   7.749  0.1611 -0.7222 -0.7281
  190SLPC   H9X22015   4.313   0.630   7.714  0.5902 -0.6639 -0.8383
  190SLPC   H9Y22016   4.444   0.517   7.770  0.0303 -0.0203  0.3191
  190SLPC  C31022017   4.271   0.498   7.885  0.0492 -0.1914  0.0433
  190SLPC  H10X22018   4.324   0.415   7.935  0.6892  0.5773  0.6486
  190SLPC  H10Y22019   4.169   0.459   7.867  0.0100  0.3090 -0.9017
  190SLPC  C31122020   4.267   0.625   7.969  0.3936  0.4642  0.5376
  190SLPC  H11X22021   4.232   0.702   7.896 -0.1634 -1.3492 -1.1462
  190SLPC  H11Y22022   4.371   0.638   8.005  0.2939  0.2407  0.9077
  190SLPC  C31222023   4.182   0.611   8.096  0.2826 -0.0152  0.5189
  190SLPC  H12X22024   4.234   0.556   8.177  1.7144  2.2694  1.1682
  190SLPC  H12Y22025   4.099   0.542   8.067  1.1437  0.0934 -2.3656
  190SLPC  C31322026   4.135   0.743   8.149 -0.6080 -0.4081  0.1890
  190SLPC  H13X22027   4.081   0.810   8.077  2.2007  1.5963 -0.1171
  190SLPC  H13Y22028   4.226   0.803   8.167 -0.9306 -0.2276  1.2288
  190SLPC  C31422029   4.070   0.723   8.283  0.3368  0.1797 -1.0332
  190SLPC  H14X22030   4.136   0.682   8.363  0.0501 -0.8170 -1.3129
  190SLPC  H14Y22031   3.985   0.652   8.279  1.8521 -1.6561 -1.5811
  190SLPC  C31522032   4.043   0.857   8.354  0.2801 -0.9098  0.7567
  190SLPC  H15X22033   3.980   0.911   8.280  0.5259  0.9668  1.8966
  190SLPC  H15Y22034   4.132   0.916   8.383 -0.8264  1.9590 -1.4187
  190SLPC  C31622035   3.948   0.845   8.476  0.2402  0.7288  1.4208
  190SLPC  H16X22036   3.938   0.944   8.526 -1.2744  0.0216  2.5435
  190SLPC  H16Y22037   3.988   0.773   8.550  1.0364 -0.5749 -0.2335
  190SLPC  C31722038   3.805   0.798   8.443  0.6742 -0.3096  0.1872
  190SLPC  H17X22039   3.769   0.719   8.513 -0.0726  0.8062  1.0730
  190SLPC  H17Y22040   3.802   0.754   8.341 -2.4842  0.6435 -0.1784
  190SLPC  C31822041   3.704   0.916   8.434  0.2160  0.1719  0.5530
  190SLPC  H18X22042   3.730   0.981   8.347  1.9370 -0.5368  0.5216
  190SLPC  H18Y22043   3.703   0.976   8.527 -0.5510 -0.2399  0.8179
  190SLPC  H18Z22044   3.595   0.894   8.427  0.0987  0.3483  1.7249
  191SLPC     N22045   4.170   1.994   5.932  0.1159  0.1652  0.3432
  191SLPC   C1322046   4.195   2.070   5.807 -0.3660  0.4557  0.6717
  191SLPC  H13A22047   4.185   2.006   5.721 -0.7807 -0.1692  1.1827
  191SLPC  H13B22048   4.121   2.146   5.791 -1.3331  0.3464  4.2433
  191SLPC  H13C22049   4.290   2.122   5.815  0.3183 -0.8869  1.5235
  191SLPC   C1422050   4.052   1.907   5.898  0.0360 -0.1046 -0.0441
  191SLPC  H14A22051   3.974   1.980   5.883 -0.4499 -0.5089  0.5193
  191SLPC  H14B22052   4.074   1.852   5.808 -0.2149 -0.7160  0.2707
  191SLPC  H14C22053   4.023   1.854   5.987 -0.4101  0.9515  0.4499
  191SLPC   C1522054   4.131   2.089   6.043  0.0782 -0.5886 -0.1204
  191SLPC  H15A22055   4.218   2.149   6.065  0.6719 -1.9808  1.4242
  191SLPC  H15B22056   4.051   2.156   6.017  0.0034 -1.3744 -1.9915
  191SLPC  H15C22057   4.094   2.037   6.130 -1.0565 -0.2048 -0.3756
  191SLPC   C1222058   4.284   1.905   5.972  0.7681 -0.5924  0.1775
  191SLPC  H12A22059   4.322   1.851   5.887  0.7685  1.0504 -0.8735
  191SLPC  H12B22060   4.252   1.823   6.036  0.1342 -2.7952 -2.8723
  191SLPC   C1122061   4.396   1.973   6.057  0.0620 -0.2649 -0.2638
  191SLPC  H11A22062   4.460   1.883   6.073 -0.9366 -1.1022 -0.9206
  191SLPC  H11B22063   4.369   2.014   6.157 -0.4179  0.8927 -0.8694
  191SLPC     P22064   4.479   2.214   6.008 -0.1029  0.2560  0.1232
  191SLPC   O1322065   4.618   2.253   5.987  0.5306  0.4394 -0.4623
  191SLPC   O1422066   4.383   2.285   5.922  0.2563  1.0244  0.2903
  191SLPC   O1222067   4.473   2.066   5.976  0.6141  0.1292 -0.1282
  191SLPC   O1122068   4.440   2.238   6.153  0.1336 -0.9852 -0.5334
  191SLPC    C122069   4.533   2.224   6.261  0.2098 -0.1350 -0.1284
  191SLPC    HA22070   4.610   2.146   6.242  2.0211  1.1435  1.7865
  191SLPC    HB22071   4.602   2.311   6.263  0.3418 -0.2312 -0.3864
  191SLPC    C222072   4.475   2.205   6.402 -0.2125  0.0813  0.1439
  191SLPC    HS22073   4.450   2.098   6.422 -0.2509 -0.1067 -0.8681
  191SLPC   O2122074   4.365   2.289   6.419 -0.2955 -0.2469 -0.2658
  191SLPC   C2122075   4.266   2.245   6.495  0.4107 -0.2882  0.2009
  191SLPC   O2222076   4.269   2.134   6.552 -0.2099 -0.6204 -0.0505
  191SLPC   C2222077   4.160   2.353   6.503  0.1766 -0.3913  0.0657
  191SLPC   H2R22078   4.220   2.440   6.538 -0.4937 -0.1365  0.5946
  191SLPC   H2S22079   4.112   2.370   6.405 -1.1884 -3.6307  0.0751
  191SLPC    C322080   4.583   2.251   6.503 -0.2987  0.2845 -0.0134
  191SLPC    HX22081   4.623   2.354   6.495 -0.3355  0.1715 -1.8234
  191SLPC    HY22082   4.668   2.181   6.487 -1.0358 -0.7230  0.3781
  191SLPC   O3122083   4.540   2.234   6.634 -0.5072  0.1547  0.2354
  191SLPC   C3122084   4.550   2.116   6.684 -0.4363  0.6606  0.4753
  191SLPC   O3222085   4.586   2.013   6.632 -0.2137 -0.1560 -0.0013
  191SLPC   C3222086   4.499   2.125   6.828  0.1202 -1.2875  0.0261
  191SLPC   H2X22087   4.398   2.172   6.829  1.0385  0.8122 -1.1110
  191SLPC   H2Y22088   4.554   2.212   6.870  0.3634 -2.2377  1.7101
  191SLPC   C2322089   4.064   2.319   6.619 -0.1580  0.2379 -0.5295
  191SLPC   H3R22090   4.014   2.221   6.603 -1.4529  0.7128  0.4997
  191SLPC   H3S22091   3.975   2.383   6.634 -1.6485 -1.4912 -1.7141
  191SLPC   C2422092   4.126   2.341   6.762  0.0837  0.4472  0.0502
  191SLPC   H4R22093   4.235   2.320   6.765  0.3166  1.3845 -1.4739
  191SLPC   H4S22094   4.086   2.265   6.833 -0.9623  0.6301 -0.3316
  191SLPC   C2522095   4.123   2.487   6.812  0.0640  0.0472  0.2247
  191SLPC   H5R22096   4.020   2.521   6.833  0.7368  0.9753  2.1480
  191SLPC   H5S22097   4.155   2.560   6.735 -1.0727  0.3367  0.0216
  191SLPC   C2622098   4.195   2.507   6.942  0.6232  0.6381  0.0430
  191SLPC   H6R22099   4.144   2.435   7.010 -2.0732  1.1260 -1.3878
  191SLPC   H6S22100   4.182   2.608   6.987 -0.4497  0.8507 -0.7323
  191SLPC   C2722101   4.345   2.464   6.937  0.2473  0.0572 -0.2429
  191SLPC   H7R22102   4.382   2.519   6.847 -0.3987 -1.0133 -1.1664
  191SLPC   H7S22103   4.343   2.354   6.928  0.0951 -0.0020  0.4762
  191SLPC   C2822104   4.424   2.479   7.069  0.0187  0.0790 -0.0269
  191SLPC   H8R22105   4.480   2.388   7.098  2.0048  1.6979  1.2942
  191SLPC   H8S22106   4.339   2.488   7.140 -0.6199  1.2733 -0.9280
  191SLPC   C2922107   4.512   2.600   7.076 -0.6050 -0.1051 -0.2338
  191SLPC   H9R22108   4.592   2.601   7.001  1.8777 -2.3815  2.2266
  191SLPC  C21022109   4.506   2.702   7.160 -0.1986 -0.8518  0.1342
  191SLPC  H10R22110   4.579   2.783   7.145 -0.4423 -0.5658  0.4803
  191SLPC  C21122111   4.402   2.726   7.267 -0.2751  0.5425  0.3185
  191SLPC  H11R22112   4.450   2.772   7.356 -2.4997  0.1653  1.7621
  191SLPC  H11S22113   4.362   2.628   7.301 -0.0577  0.1887 -0.4568
  191SLPC  C21222114   4.275   2.796   7.218 -0.5873 -0.5064 -1.1178
  191SLPC  H12R22115   4.180   2.743   7.232 -0.2469 -0.7768  0.3011
  191SLPC  C21322116   4.274   2.924   7.169 -0.4453  0.5004 -0.0898
  191SLPC  H13R22117   4.176   2.963   7.136 -0.5580 -0.5859 -1.1002
  191SLPC  C21422118   4.385   3.018   7.131 -0.1127  0.0783 -0.5395
  191SLPC  H14R22119   4.478   2.958   7.136 -1.6221 -2.2690 -0.0123
  191SLPC  H14S22120   4.383   3.109   7.194  0.6129 -1.3411  1.5546
  191SLPC  C21522121   4.377   3.058   6.979  0.0486  0.2850  0.4956
  191SLPC  H15R22122   4.445   3.144   6.964  0.0891  0.4907  1.8307
  191SLPC  H15S22123   4.278   3.106   6.961 -0.9179 -0.0356  4.4556
  191SLPC  C21622124   4.401   2.935   6.887  0.4713 -0.7267 -0.1585
  191SLPC  H16R22125   4.315   2.865   6.890 -0.3586  0.2943  0.4200
  191SLPC  H16S22126   4.482   2.879   6.938  0.4838 -0.3775  0.2086
  191SLPC  C21722127   4.425   2.986   6.743  0.1534 -0.7214  0.8423
  191SLPC  H17R22128   4.506   3.061   6.734 -1.4449  0.6636 -2.6984
  191SLPC  H17S22129   4.339   3.049   6.711  0.1611 -0.9251  0.4174
  191SLPC  C21822130   4.440   2.883   6.629  0.3022  1.0923  0.3035
  191SLPC  H18R22131   4.511   2.803   6.658  0.3275  1.2322  0.6239
  191SLPC  H18S22132   4.482   2.929   6.537 -1.1799  0.7749 -0.5593
  191SLPC  H18T22133   4.350   2.823   6.601 -0.2021  1.4214  1.2147
  191SLPC   C3322134   4.537   2.001   6.912 -0.1143  0.2127  0.1369
  191SLPC   H3X22135   4.647   1.987   6.903  0.0546  0.3721  1.7232
  191SLPC   H3Y22136   4.478   1.910   6.889  1.3342 -0.9333  0.8236
  191SLPC   C3422137   4.520   2.032   7.064 -0.4111  0.0103 -0.0612
  191SLPC   H4X22138   4.589   2.115   7.092  0.0923 -0.2406 -0.5613
  191SLPC   H4Y22139   4.567   1.941   7.106 -2.3585 -0.5333  1.0252
  191SLPC   C3522140   4.374   2.064   7.100 -0.3726 -0.2249 -0.3905
  191SLPC   H5X22141   4.307   1.979   7.074  0.1263 -2.4796  5.0715
  191SLPC   H5Y22142   4.331   2.151   7.046 -0.3306  0.0200 -0.0289
  191SLPC   C3622143   4.352   2.082   7.254  0.5607 -0.3773  0.0720
  191SLPC   H6X22144   4.427   2.155   7.290  0.8135 -1.2499  1.3865
  191SLPC   H6Y22145   4.370   1.984   7.304  1.2741  0.8267  2.2801
  191SLPC   C3722146   4.211   2.126   7.295 -0.2446 -0.4451 -0.1529
  191SLPC   H7X22147   4.195   2.122   7.405  0.7592 -0.8971 -0.0127
  191SLPC   H7Y22148   4.140   2.053   7.250 -1.3929  0.9820 -0.6884
  191SLPC   C3822149   4.166   2.262   7.238 -0.0857  0.7006  0.9497
  191SLPC   H8X22150   4.072   2.239   7.183 -0.0610  0.0948  1.1599
  191SLPC   H8Y22151   4.236   2.290   7.156 -1.4644 -1.2458 -0.9623
  191SLPC   C3922152   4.162   2.359   7.351  0.5242 -0.9163 -0.3902
  191SLPC   H9X22153   4.141   2.464   7.319 -1.9377 -1.8736 -2.0315
  191SLPC   H9Y22154   4.263   2.358   7.397  0.4565  0.8903 -0.1450
  191SLPC  C31022155   4.047   2.316   7.452 -0.4587  0.1830  0.4979
  191SLPC  H10X22156   4.089   2.248   7.529  0.3898  1.9708  1.6768
  191SLPC  H10Y22157   3.959   2.274   7.399  1.4767 -1.3218 -1.5846
  191SLPC  C31122158   3.998   2.443   7.533 -0.6556  0.7145  0.0495
  191SLPC  H11X22159   3.964   2.516   7.456 -2.3619 -0.1802 -0.0720
  191SLPC  H11Y22160   4.080   2.483   7.595 -0.2711 -1.1784  0.8199
  191SLPC  C31222161   3.879   2.418   7.629  0.9696  0.0112 -0.3316
  191SLPC  H12X22162   3.901   2.329   7.691  2.9386  0.1881 -0.7329
  191SLPC  H12Y22163   3.793   2.391   7.565  0.3172 -0.6814  0.8329
  191SLPC  C31322164   3.849   2.541   7.723  0.4853  0.1298  0.0990
  191SLPC  H13X22165   3.746   2.533   7.764 -0.5548 -0.6876 -2.5261
  191SLPC  H13Y22166   3.843   2.633   7.661 -0.4341 -0.0390 -0.0788
  191SLPC  C31422167   3.954   2.564   7.823 -0.2455  0.1583  0.5844
  191SLPC  H14X22168   3.952   2.665   7.869  1.9368 -0.0308  1.1654
  191SLPC  H14Y22169   4.056   2.540   7.786  0.1302  1.9414  0.4493
  191SLPC  C31522170   3.938   2.471   7.938  0.4085 -0.1719 -0.7727
  191SLPC  H15X22171   4.031   2.461   7.999 -0.6463 -2.0411  0.6233
  191SLPC  H15Y22172   3.922   2.369   7.896 -2.2266 -0.6369  1.1834
  191SLPC  C31622173   3.818   2.494   8.024  0.7252  0.1197  0.6921
  191SLPC  H16X22174   3.730   2.529   7.966  0.1154 -0.3866  1.3047
  191SLPC  H16Y22175   3.828   2.572   8.102 -0.3085  1.7129 -0.7317
  191SLPC  C31722176   3.770   2.366   8.096 -0.4334  0.1506  0.0965
  191SLPC  H17X22177   3.862   2.318   8.135  1.2744  2.4660 -1.0192
  191SLPC  H17Y22178   3.720   2.294   8.028 -0.3600 -0.0796  0.2847
  191SLPC  C31822179   3.674   2.391   8.213 -0.0199 -0.2296  0.1904
  191SLPC  H18X22180   3.572   2.401   8.170 -0.5318 -2.0800  0.9453
  191SLPC  H18Y22181   3.698   2.479   8.276  1.1579  0.2170 -0.8550
  191SLPC  H18Z22182   3.663   2.301   8.277  0.6043 -0.3450  0.1347
  192SLPC     N22183   5.103   3.507   6.694 -0.0766  0.2759  0.2647
  192SLPC   C1322184   5.221   3.472   6.775 -0.1078 -0.2408 -0.1673
  192SLPC  H13A22185   5.267   3.561   6.815 -1.0608 -0.3390  1.1573
  192SLPC  H13B22186   5.206   3.404   6.858  1.8218  0.0522  0.4592
  192SLPC  H13C22187   5.297   3.424   6.714  0.4292  1.6339 -1.0164
  192SLPC   C1422188   5.139   3.590   6.578  0.2167 -0.4549  0.4536
  192SLPC  H14A22189   5.215   3.546   6.516  1.1715 -0.7545  1.8117
  192SLPC  H14B22190   5.052   3.625   6.525  1.2405  2.5941  0.7041
  192SLPC  H14C22191   5.183   3.678   6.622 -0.8411  0.9348 -1.2348
  192SLPC   C1522192   4.992   3.565   6.781 -0.9297  0.2357  0.0339
  192SLPC  H15A22193   5.031   3.651   6.833  1.0160  0.2050 -1.3096
  192SLPC  H15B22194   4.896   3.584   6.735 -0.6239  0.1908 -0.6318
  192SLPC  H15C22195   4.977   3.489   6.856  1.7445 -0.3876 -0.0137
  192SLPC   C1222196   5.046   3.377   6.639  0.2802  0.1676 -0.3842
  192SLPC  H12A22197   5.122   3.330   6.577  2.2988  2.6353  0.1343
  192SLPC  H12B22198   4.962   3.393   6.573  1.8814 -0.3945 -2.6306
  192SLPC   C1122199   5.014   3.262   6.735  0.0953  0.4036  0.2075
  192SLPC  H11A22200   4.958   3.292   6.826  0.5698  1.4619  0.1635
  192SLPC  H11B22201   5.110   3.231   6.781  0.8959 -0.3388 -1.8825
  192SLPC     P22202   5.019   3.060   6.575 -0.0195  0.0374  0.1093
  192SLPC   O1322203   5.057   3.139   6.454 -0.3427 -0.0726  0.6084
  192SLPC   O1422204   5.125   2.986   6.640  0.2016  0.0672  0.2025
  192SLPC   O1222205   4.940   3.162   6.668  0.2379 -0.1667 -0.0597
  192SLPC   O1122206   4.918   2.952   6.533  0.3204 -0.1827  0.6277
  192SLPC    C122207   4.814   2.908   6.622 -0.3993 -0.1644 -0.3458
  192SLPC    HA22208   4.763   2.998   6.663  0.7858  1.3579 -2.1429
  192SLPC    HB22209   4.734   2.863   6.559  0.6606 -0.4928 -1.4765
  192SLPC    C222210   4.851   2.793   6.722 -0.0417  0.8526 -0.7969
  192SLPC    HS22211   4.759   2.740   6.755  0.6987  0.4030  0.5879
  192SLPC   O2122212   4.926   2.841   6.840 -0.0621  0.2599 -0.0256
  192SLPC   C2122213   4.881   2.941   6.907  0.0490 -0.6055  0.5903
  192SLPC   O2222214   4.780   3.004   6.885 -0.3073 -0.1772 -0.0418
  192SLPC   C2222215   4.972   2.971   7.021 -0.4289  0.8555 -0.8362
  192SLPC   H2R22216   4.990   2.876   7.076 -2.3243  0.8717 -0.1551
  192SLPC   H2S22217   5.064   3.016   6.977  0.4938 -0.0413  0.1659
  192SLPC    C322218   4.936   2.686   6.656 -0.1166 -1.0291  0.1879
  192SLPC    HX22219   5.028   2.728   6.611 -0.2262 -0.3733  0.5678
  192SLPC    HY22220   4.877   2.642   6.573 -1.6600 -1.8111  1.6640
  192SLPC   O3122221   4.976   2.578   6.750  0.3338 -0.3707  0.2143
  192SLPC   C3122222   4.894   2.481   6.785 -0.3408 -0.4721 -0.2581
  192SLPC   O3222223   4.773   2.473   6.757 -0.1016 -0.1665 -0.6830
  192SLPC   C3222224   4.980   2.362   6.837 -0.6889 -0.2604  0.2378
  192SLPC   H2X22225   5.059   2.396   6.907 -1.2618  0.4740  0.5303
  192SLPC   H2Y22226   5.022   2.318   6.744 -1.5266  2.3196 -1.4303
  192SLPC   C2322227   4.910   3.066   7.131  0.1488 -0.2314  0.1766
  192SLPC   H3R22228   4.869   3.164   7.097  1.6087 -0.3234 -1.9809
  192SLPC   H3S22229   4.997   3.097   7.193  0.0643  0.2857  0.0437
  192SLPC   C2422230   4.805   2.996   7.222  0.0739 -0.2210 -0.1585
  192SLPC   H4R22231   4.848   2.902   7.264 -1.1748  0.3577  2.5604
  192SLPC   H4S22232   4.717   2.975   7.158  0.0019 -2.3667  0.6233
  192SLPC   C2522233   4.760   3.090   7.332  0.6549  0.8639  0.0031
  192SLPC   H5R22234   4.734   3.191   7.293  0.0919  1.1166  1.0211
  192SLPC   H5S22235   4.836   3.104   7.411  0.5529  0.0817  0.2443
  192SLPC   C2622236   4.634   3.036   7.392 -0.1140  0.1858 -1.1680
  192SLPC   H6R22237   4.616   2.928   7.372 -2.1685 -0.3383  2.9975
  192SLPC   H6S22238   4.556   3.099   7.343 -0.3515  0.9349  0.1670
  192SLPC   C2722239   4.630   3.064   7.545  0.0539  0.2373  1.0218
  192SLPC   H7R22240   4.659   3.171   7.539  1.0281 -0.1511 -2.0132
  192SLPC   H7S22241   4.703   3.008   7.607  0.1049  2.3702  2.9803
  192SLPC   C2822242   4.500   3.037   7.613  0.3858 -0.7576  0.1679
  192SLPC   H8R22243   4.425   3.113   7.583 -1.5227 -2.7308 -0.2033
  192SLPC   H8S22244   4.509   3.063   7.721 -0.1786  0.7000 -0.1273
  192SLPC   C2922245   4.464   2.890   7.597  0.3289 -0.9679 -0.7497
  192SLPC   H9R22246   4.544   2.815   7.606  0.9278  0.0458  3.4888
  192SLPC  C21022247   4.340   2.845   7.597 -0.5539  0.1702  0.3548
  192SLPC  H10R22248   4.330   2.735   7.599 -1.1771  0.2131 -0.2832
  192SLPC  C21122249   4.212   2.925   7.602  0.2077 -0.3357 -0.3933
  192SLPC  H11R22250   4.151   2.899   7.513 -0.3443 -0.8101  0.1241
  192SLPC  H11S22251   4.235   3.033   7.596 -1.4334  0.0080 -0.7150
  192SLPC  C21222252   4.129   2.891   7.724 -0.1271 -0.0613 -0.7101
  192SLPC  H12R22253   4.089   2.789   7.727  0.1198 -0.1176  1.1585
  192SLPC  C21322254   4.109   2.975   7.830 -0.4389 -0.5260 -0.2146
  192SLPC  H13R22255   4.029   2.947   7.900 -0.8070 -1.1268 -0.8658
  192SLPC  C21422256   4.170   3.111   7.851  0.1800  0.4309  0.2946
  192SLPC  H14R22257   4.111   3.182   7.790 -1.7801 -0.5746  0.9636
  192SLPC  H14S22258   4.274   3.115   7.811 -0.0055  1.0374 -0.1329
  192SLPC  C21522259   4.150   3.162   7.998 -0.1777  0.3048 -0.0701
  192SLPC  H15R22260   4.212   3.093   8.059 -0.5672 -1.3318 -1.4956
  192SLPC  H15S22261   4.048   3.146   8.036 -1.0751  0.6388 -2.2660
  192SLPC  C21622262   4.208   3.301   8.038  0.2589 -0.1112  0.0846
  192SLPC  H16R22263   4.152   3.378   7.981  1.9041 -0.3088 -1.8450
  192SLPC  H16S22264   4.314   3.317   8.009  0.0660 -0.5909 -0.9051
  192SLPC  C21722265   4.205   3.329   8.195  0.0422  0.2896  0.2220
  192SLPC  H17R22266   4.109   3.284   8.229 -2.5496  2.8571 -3.3089
  192SLPC  H17S22267   4.298   3.290   8.242 -0.5597 -0.9989  0.3578
  192SLPC  C21822268   4.196   3.483   8.241  0.1747  0.1688 -0.2118
  192SLPC  H18R22269   4.290   3.535   8.212 -0.4786  0.4858 -1.8772
  192SLPC  H18S22270   4.178   3.485   8.350  0.8489 -1.2418 -0.0648
  192SLPC  H18T22271   4.122   3.532   8.174 -2.0099  1.2573  2.8780
  192SLPC   C3322272   4.904   2.253   6.916  0.2242  0.7415  0.7012
  192SLPC   H3X22273   4.963   2.159   6.911 -0.5770  0.3602 -3.1874
  192SLPC   H3Y22274   4.812   2.229   6.859  1.2856 -1.2498 -0.2143
  192SLPC   C3422275   4.874   2.271   7.066 -0.0645  0.2751 -0.2363
  192SLPC   H4X22276   4.781   2.329   7.083 -0.3595 -0.7795  1.8176
  192SLPC   H4Y22277   4.950   2.338   7.111  1.1243 -1.2377  0.0124
  192SLPC   C3522278   4.866   2.142   7.147  0.1807  0.1894  0.0517
  192SLPC   H5X22279   4.961   2.084   7.142 -1.3732 -2.4016 -0.7638
  192SLPC   H5Y22280   4.790   2.072   7.105  0.2713  0.3093 -0.3096
  192SLPC   C3622281   4.821   2.159   7.292 -0.1912 -0.3608  0.1197
  192SLPC   H6X22282   4.714   2.190   7.300 -0.5490 -2.0999  2.7146
  192SLPC   H6Y22283   4.876   2.245   7.336 -0.0856 -0.6082  0.4633
  192SLPC   C3722284   4.838   2.036   7.386  0.3282  0.2492 -0.1462
  192SLPC   H7X22285   4.935   1.988   7.363 -0.5799 -2.7994  2.0467
  192SLPC   H7Y22286   4.763   1.960   7.356  1.3885 -0.8286 -0.1137
  192SLPC   C3822287   4.821   2.061   7.539  0.3673 -0.0523 -0.2600
  192SLPC   H8X22288   4.717   2.099   7.551  0.7669  1.0495 -0.2437
  192SLPC   H8Y22289   4.897   2.136   7.568 -0.1076  1.1865 -2.1361
  192SLPC   C3922290   4.847   1.932   7.618 -0.0562 -0.3919 -0.0372
  192SLPC   H9X22291   4.946   1.896   7.585  0.1062 -0.4676  0.5331
  192SLPC   H9Y22292   4.767   1.862   7.585  1.5488 -1.1378 -2.4230
  192SLPC  C31022293   4.849   1.947   7.775 -0.4860 -0.0089  0.2304
  192SLPC  H10X22294   4.911   2.035   7.805 -0.6816 -0.7845  3.0099
  192SLPC  H10Y22295   4.904   1.862   7.821  0.5454  0.0114 -0.9479
  192SLPC  C31122296   4.706   1.955   7.832 -0.8680 -0.3028  0.1795
  192SLPC  H11X22297   4.657   1.862   7.865 -0.6196 -0.3877  0.3099
  192SLPC  H11Y22298   4.641   2.013   7.763  0.5008  2.2040  0.9310
  192SLPC  C31222299   4.706   2.032   7.957 -0.8434  0.4567 -0.0858
  192SLPC  H12X22300   4.743   2.134   7.933  1.2854 -0.8028 -2.4313
  192SLPC  H12Y22301   4.774   1.983   8.030 -0.3956 -0.7707 -1.2961
  192SLPC  C31322302   4.567   2.050   8.016  0.6080 -0.6142  0.2588
  192SLPC  H13X22303   4.515   1.953   7.995 -2.1611  0.9163 -0.2034
  192SLPC  H13Y22304   4.511   2.137   7.977 -2.0156 -1.8871  1.0642
  192SLPC  C31422305   4.562   2.067   8.167 -0.2731  0.5968 -0.5043
  192SLPC  H14X22306   4.619   2.151   8.211 -0.6138  2.7885 -4.1078
  192SLPC  H14Y22307   4.622   1.986   8.214  1.1307  1.0997 -1.4239
  192SLPC  C31522308   4.420   2.072   8.227 -0.3515  0.1648  0.1025
  192SLPC  H15X22309   4.359   1.991   8.182  1.1193  0.0630 -1.7333
  192SLPC  H15Y22310   4.371   2.166   8.195 -0.2363  0.6685  1.3814
  192SLPC  C31622311   4.418   2.060   8.381  0.5328  0.2854  0.0930
  192SLPC  H16X22312   4.320   2.107   8.403  0.9216  0.0088  2.5322
  192SLPC  H16Y22313   4.493   2.127   8.429  0.8686 -3.1218  4.6461
  192SLPC  C31722314   4.406   1.913   8.436  0.0431 -0.5936  0.7248
  192SLPC  H17X22315   4.506   1.867   8.426  0.1991 -0.1170  0.0617
  192SLPC  H17Y22316   4.322   1.855   8.392 -0.8538  0.1627  1.3833
  192SLPC  C31822317   4.353   1.917   8.578 -0.2231 -0.1851 -0.5568
  192SLPC  H18X22318   4.335   1.816   8.620 -0.0221 -0.6511 -1.5653
  192SLPC  H18Y22319   4.264   1.983   8.586  0.2716  0.1992  2.0131
  192SLPC  H18Z22320   4.430   1.962   8.643 -1.4248  2.3123 -0.8181
  193SOD    SOD22321   3.046   1.749  17.015 -0.1104 -0.1268 -0.1191
  194SOD    SOD22322   2.112   6.774  15.396  0.0939  0.4990  0.0521
  195SOD    SOD22323   1.148   1.110  13.463 -0.4348 -0.3914  0.2426
  196SOD    SOD22324   4.361   3.651   5.402 -0.0759 -0.1083 -0.1809
  197SOD    SOD22325   5.530   3.151  17.038 -0.1698 -0.0628  0.1038
  198SOD    SOD22326   2.720   4.410   5.739 -0.2692  0.0531  0.2089
  199SOD    SOD22327   1.794   2.788   0.649  0.1689 -0.6267 -0.0889
  200SOD    SOD22328   4.942   1.646  13.266 -0.9228 -0.1843  0.4451
  201SOD    SOD22329   3.195   5.185  10.518  0.2814 -0.1986  0.5238
  202SOD    SOD22330   1.813   4.007  11.480  0.2803  0.1103  0.0763
  203SOD    SOD22331   6.159   6.584   3.715 -0.6516 -0.0352 -0.0613
  204SOD    SOD22332   5.118   0.057   2.800 -0.5498 -0.6690 -0.0111
  205SOD    SOD22333   2.033   2.076  11.722 -0.2240 -0.4566  0.2721
  206SOD    SOD22334   3.847   2.018  15.792 -0.3910 -0.1549 -0.0159
  207SOD    SOD22335   0.158   5.836   5.004  0.5495 -0.5373  0.4314
  208SOD    SOD22336   2.726   6.589   6.013 -0.2086  0.1974  0.2232
  209SOD    SOD22337   3.796   6.257  13.101 -0.5376 -0.0835 -0.4948
  210SOD    SOD22338   4.931   0.353  11.407  0.1899 -0.2820  0.0637
  211SOD    SOD22339   4.579   6.422  11.944  0.2042 -0.2006  0.1615
  212SOD    SOD22340   3.581   0.326   4.404  0.3555 -0.1974 -0.0074
  213SOD    SOD22341   5.548   3.356  14.699  0.2190  0.3300  0.4312
  214SOD    SOD22342   5.620   6.004   6.335 -0.2010  0.1348 -0.3591
  215SOD    SOD22343   0.570   6.149   6.510  0.0021  0.5942 -0.2931
  216SOD    SOD22344   1.538   1.416   3.390 -0.2429 -0.0120  0.0667
  217SOD    SOD22345   0.595   4.858   3.892  0.2835  0.0213  0.3745
  218SOD    SOD22346   4.382   0.008   3.401 -0.2966  0.2023 -0.1658
  219SOD    SOD22347   4.387   5.657   3.937  0.1604  0.0341  0.1947
  220SOD    SOD22348   5.641   2.331  13.292 -0.4953 -0.1344  0.2599
  221SOD    SOD22349   5.972   5.973  14.966 -0.0415 -0.5628  0.0556
  222SOD    SOD22350   4.801   4.379  11.426  0.0902 -0.3246 -0.3280
  223SOD    SOD22351   2.444   6.738   0.712 -0.1023  0.3391 -0.1621
  224SOD    SOD22352   0.923   0.373   5.814  0.0112  0.1308  0.3663
  225SOD    SOD22353   6.051   6.427   6.578  0.9105 -0.1412  0.2654
  226SOD    SOD22354   1.993   5.747   5.454 -0.2159 -0.4105  0.4588
  227SOD    SOD22355   4.563   5.291  16.132  0.1722 -0.6169  0.0600
  228SOD    SOD22356   4.439   6.559   4.909 -0.0920  0.0217 -0.5953
  229SOD    SOD22357   2.908   1.322  10.730  0.4464 -0.4990 -0.1529
  230SOD    SOD22358   4.200   0.233  13.992  0.1152 -0.1710 -0.1247
  231SOD    SOD22359   6.507   1.215   5.866  0.2743  0.2490 -0.2725
  232SOD    SOD22360   4.454   5.710   5.975 -0.4083  0.0513 -0.0967
  233SOD    SOD22361   2.820   5.578  15.744  0.3013  0.0692  0.2085
  234SOD    SOD22362   1.172   4.877   5.204 -0.0815  0.0694  0.2057
  235SOD    SOD22363   4.646   2.440  11.199  0.1063 -0.3724  0.0875
  236SOD    SOD22364   6.572   3.169   4.668  0.0459  0.1072  0.4562
  237SOD    SOD22365   4.836   6.311  13.240  0.3477 -0.0680  0.2880
  238SOD    SOD22366   6.756   2.013   1.167  0.6223 -0.1239 -0.0885
  239SOD    SOD22367   3.069   6.682   0.018  0.2326  0.4179  0.4493
  240SOD    SOD22368   1.660   0.174  13.429  0.0783  0.1106 -0.0678
  241SOD    SOD22369   4.160   1.619   3.317  0.6578  0.0068 -0.2701
  242SOD    SOD22370   4.291   5.382   2.463 -0.0173 -0.4660  0.2000
  243SOD    SOD22371   2.344   2.803  11.181  0.0543  0.0649 -0.2087
  244SOD    SOD22372   4.169   2.007   2.504 -0.1293  0.2027 -0.2974
  245SOD    SOD22373   1.418   1.267   4.381 -0.1173  0.3914 -0.2235
  246SOD    SOD22374   5.793   3.230   1.654  0.3323  0.1386  0.2454
  247SOD    SOD22375   3.232   0.972  15.845 -0.5310 -0.1516  0.0600
  248SOD    SOD22376   5.978   2.925   1.900 -0.7435 -0.3530  0.2379
  249SOD    SOD22377   0.813   3.581  16.093 -0.2800  0.3101 -0.6296
  250SOD    SOD22378   6.402   5.409  17.190  0.8490 -0.5316 -0.2195
  251SOD    SOD22379   3.813   2.706   4.980 -0.3896 -0.3173 -0.0499
  252SOD    SOD22380   4.118   2.982  12.379 -0.0626  0.3270  0.2533
  253SOD    SOD22381   1.547   6.654   3.787  0.0759 -0.1706  0.5067
  254SOD    SOD22382   1.186   4.212  16.368 -1.0689  0.0574 -0.0438
  255SOD    SOD22383   0.957   3.778  12.390 -0.0114  0.2665  0.2804
  256SOD    SOD22384   1.789   2.519  16.436  0.2838  0.1980  0.3109
  257SOD    SOD22385   6.151   3.863  17.121  0.1799 -0.3096 -0.1093
  258SOD    SOD22386   3.308   0.484  14.761 -0.1401 -0.1496 -0.0825
  259SOD    SOD22387   5.787   4.761   3.368 -0.6195  0.5718  0.1624
  260SOD    SOD22388   1.769   1.757   5.722  0.0770 -0.5624  0.3345
  261SOD    SOD22389   0.147   5.302  12.042 -0.4261 -0.1586  0.3491
  262SOD    SOD22390   6.077   3.300   6.005 -0.0088 -0.2519 -0.3424
  263SOD    SOD22391   1.568   0.731   3.626 -0.0707 -0.3125 -0.5794
  264SOD    SOD22392   0.988   2.442  14.225  0.1065 -0.5661  0.4817
  265SOD    SOD22393   3.977   3.783  14.885 -0.0967  0.1095  0.3292
  266CLA    CLA22394   4.988   3.580  17.041  0.1164 -0.1159 -0.7450
  267CLA    CLA22395   3.216   0.934  16.832 -0.2822 -0.1278  0.1995
  268CLA    CLA22396   4.576   1.826  12.491 -0.3990  0.3008 -0.0109
  269CLA    CLA22397   2.246   6.115   5.413  0.1602  0.4349 -0.2415
  270CLA    CLA22398   3.187   0.901   0.681 -0.0889 -0.1612  0.0507
  271CLA    CLA22399   4.125   4.860   5.834  0.3022  0.4080  0.1660
  272CLA    CLA22400   3.241   2.431  15.705  0.0752  0.1151 -0.0556
  273CLA    CLA22401   1.123   0.451  11.374  0.4037 -0.2351  0.2901
  274CLA    CLA22402   0.986   5.836  15.566  0.0495 -0.3090  0.0804
  275CLA    CLA22403   0.187   4.537   5.508 -0.2776 -0.3742  0.1747
  276CLA    CLA22404   4.858   5.455   1.524  0.1701 -0.0618 -0.0142
  277CLA    CLA22405   4.940   5.611   3.821 -0.3870  0.2589 -0.0495
  278CLA    CLA22406   6.411   2.157   0.016  0.1841 -0.0934  0.3587
  279CLA    CLA22407   3.352   6.173   3.500  0.3675 -0.1107  0.2236
  280CLA    CLA22408   6.456   2.915   6.002  0.1713 -0.2502  0.3598
  281CLA    CLA22409   0.231   0.278   4.613 -0.1835  0.1639  0.0116
  282CLA    CLA22410   6.140   4.448   3.578  0.2216 -0.4438 -0.0985
  283CLA    CLA22411   1.680   4.443   2.956  0.1511  0.2414 -0.0849
  284CLA    CLA22412   3.034   1.241   4.042  0.0630  0.3520 -0.0088
  285CLA    CLA22413   4.877   3.979  12.122 -0.3697 -0.0962  0.0715
  286CLA    CLA22414   4.582   1.177  13.637 -0.1109 -0.6245  0.5200
  287CLA    CLA22415   6.651   3.923   0.172 -0.6316 -0.2353 -0.0168
  288CLA    CLA22416   1.705   0.551  13.159  0.1599 -0.5868 -0.0551
  289CLA    CLA22417   3.135   1.763   0.229  0.1549  0.1376  0.4093
  290CLA    CLA22418   3.876   2.223   0.323 -0.0676  0.3545  0.0446
  291CLA    CLA22419   6.797   6.224   5.024 -0.0719  0.1271 -0.0331
  292CLA    CLA22420   4.699   4.460   2.363 -0.3286  0.3427  0.2217
  293CLA    CLA22421   3.106   6.309  11.492  0.1850 -0.1179 -0.4665
  294CLA    CLA22422   1.725   1.984  14.114  0.4625 -0.2971  0.1588
  295CLA    CLA22423   2.583   0.715  14.826 -0.4061  0.0777 -0.1329
  296CLA    CLA22424   2.147   2.264  17.275  0.4612  0.3548  0.3994
  297CLA    CLA22425   0.259   0.666  15.522 -0.1892  0.2685  0.0332
  298CLA    CLA22426   5.641   1.907  12.961 -0.3810  0.4827  0.0713
  299CLA    CLA22427   5.071   4.758  16.518 -0.0453 -0.1161  0.2187
  300CLA    CLA22428   4.666   2.876  12.097 -0.0927 -0.1552  0.0368
  301CLA    CLA22429   3.367   4.463  13.493 -0.0263  0.0384  0.3719
  302CLA    CLA22430   2.487   2.951  14.466  0.2192 -0.0059  0.3556
  303CLA    CLA22431   0.103   5.828  16.319 -0.1864  0.3371  0.4813
  304CLA    CLA22432   3.833   0.248   2.191 -0.0135  0.1081  0.0935
  305CLA    CLA22433   5.739   2.995   0.385 -0.1214 -0.1165  0.2192
  306CLA    CLA22434   0.200   1.433  12.625  0.0428 -0.3107 -0.5557
  307CLA    CLA22435   4.742   2.571  15.784  0.0291 -0.3467  0.0912
  308CLA    CLA22436   5.176   0.279   3.217  0.5989 -0.0299  0.2034
  309CLA    CLA22437   1.011   0.993   4.332 -0.1348  0.0753 -0.1655
  310CLA    CLA22438   6.305   0.442   2.573 -0.0291 -0.2333  0.1710
  311CLA    CLA22439   4.132   1.120   4.915  0.1409  0.0538 -0.1855
  312CLA    CLA22440   3.232   4.302   0.217  0.4769 -0.2772  0.1006
  313CLA    CLA22441   4.084   5.345  16.069 -0.1886 -0.2899 -0.2444
  314CLA    CLA22442   3.735   5.717   3.392 -0.1093 -0.0316 -0.0764
  315CLA    CLA22443   0.692   6.333  13.830 -0.0424  0.0649 -0.0243
  316CLA    CLA22444   5.516   6.315  14.170  0.1338 -0.1892 -0.3815
  317CLA    CLA22445   1.039   6.701   4.388  0.3088  0.1800 -0.0230
  318CLA    CLA22446   2.134   4.783  16.668 -0.3205 -0.2413  0.6867
  319TIP3   OH222447   2.187   5.484  12.701 -0.6247  0.2536  0.3867
  319TIP3    H122448   2.107   5.464  12.653 -0.2784  3.0351 -1.5207
  319TIP3    H222449   2.258   5.459  12.641 -0.1382  1.1514  0.5777
  320TIP3   OH222450   4.985   0.321   5.387 -0.0868  0.1688  0.2844
  320TIP3    H122451   5.054   0.264   5.353 -1.0393 -0.2013 -1.0603
  320TIP3    H222452   4.921   0.327   5.316 -0.9580  1.3189  1.1407
  321TIP3   OH222453   2.206   2.039  13.185  0.1653  0.6968  0.4953
  321TIP3    H122454   2.279   2.000  13.137  0.7375  1.4076  0.7848
  321TIP3    H222455   2.194   1.982  13.260 -0.4804 -0.2023 -0.2771
  322TIP3   OH222456   3.886   1.407  14.401 -0.2788 -0.4322 -0.1073
  322TIP3    H122457   3.972   1.382  14.434 -0.4658 -3.1726 -1.5290
  322TIP3    H222458   3.876   1.356  14.320 -4.2965 -2.2144  1.3854
  323TIP3   OH222459   5.900   1.603  14.298 -0.1164 -0.2966  0.1275
  323TIP3    H122460   5.900   1.601  14.394  0.2922  2.1363  0.2256
  323TIP3    H222461   5.854   1.684  14.276  0.3081 -0.5295 -1.7246
  324TIP3   OH222462   2.428   1.391  13.166  0.4969  0.4176  0.0968
  324TIP3    H122463   2.422   1.448  13.090  2.3277  3.4855  2.1416
  324TIP3    H222464   2.346   1.343  13.167 -0.2588  1.5400 -2.8234
  325TIP3   OH222465   6.434   2.931   3.440  0.1531 -0.0383  0.1236
  325TIP3    H122466   6.430   2.931   3.535 -1.1319 -1.0067  0.0908
  325TIP3    H222467   6.519   2.969   3.419  0.7505 -0.4983  1.6650
  326TIP3   OH222468   5.427   0.452   2.610 -0.9332 -0.1648 -0.0805
  326TIP3    H122469   5.439   0.463   2.515  0.1617 -0.8799 -0.0349
  326TIP3    H222470   5.453   0.362   2.627  1.4922  0.7546  1.2995
  327TIP3   OH222471   1.518   0.260   1.443 -0.1862  0.3455 -0.0273
  327TIP3    H122472   1.542   0.346   1.410 -1.1732 -0.0514 -1.9183
  327TIP3    H222473   1.468   0.277   1.523  0.0618  1.4894 -0.1165
  328TIP3   OH222474   4.365   3.608  13.442  0.0021  0.2528  0.6714
  328TIP3    H122475   4.284   3.628  13.396 -0.1516  1.0215  1.2638
  328TIP3    H222476   4.421   3.684  13.425  0.5616 -0.2284  0.3473
  329TIP3   OH222477   6.518   3.782   6.170 -0.2463  0.1758 -0.1350
  329TIP3    H122478   6.476   3.786   6.256  0.3985  0.0579  0.1888
  329TIP3    H222479   6.604   3.744   6.187 -1.0525 -2.2655 -1.1895
  330TIP3   OH222480   0.319   6.725  11.575  0.2088 -0.0154 -0.2468
  330TIP3    H122481   0.404   6.684  11.558  0.7477  0.1160  1.9931
  330TIP3    H222482   0.255   6.661  11.544  1.1076 -0.1702 -1.8382
  331TIP3   OH222483   4.930   1.259  13.576  0.3160 -0.0795 -0.1073
  331TIP3    H122484   4.835   1.251  13.576  0.4566 -1.7353 -0.1321
  331TIP3    H222485   4.948   1.319  13.648 -0.6024 -1.5833  1.3984
  332TIP3   OH222486   0.781   0.253   1.508  0.2325 -0.4686  0.1842
  332TIP3    H122487   0.785   0.325   1.570  0.2638 -0.3189  0.0086
  332TIP3    H222488   0.814   0.290   1.426  0.6199 -0.7878  0.1969
  333TIP3   OH222489   3.288   2.880   2.225  0.1078 -0.1653 -0.4300
  333TIP3    H122490   3.199   2.895   2.255  0.1999  1.0799 -0.7341
  333TIP3    H222491   3.339   2.870   2.305 -0.4236 -1.6375 -0.2679
  334TIP3   OH222492   0.515   0.725  16.470  0.8476 -0.0643 -0.5304
  334TIP3    H122493   0.436   0.763  16.508  1.8191  1.0971  0.3546
  334TIP3    H222494   0.544   0.661  16.535  0.5192 -0.6802 -0.9738
  335TIP3   OH222495   5.832   5.986   3.616 -0.7147  0.2121 -0.0435
  335TIP3    H122496   5.913   5.974   3.665  0.4021  0.5059 -1.8022
  335TIP3    H222497   5.859   6.020   3.531 -2.8599  3.0171  0.3143
  336TIP3   OH222498   2.583   4.891  12.378  0.0244  0.1184 -0.2629
  336TIP3    H122499   2.502   4.921  12.420 -0.3621 -1.0881 -0.1205
  336TIP3    H222500   2.576   4.920  12.288  0.5124  2.0810  0.3061
  337TIP3   OH222501   3.560   1.623   3.665 -0.2990 -0.0091 -0.6000
  337TIP3    H122502   3.617   1.566   3.718  1.6726 -0.1036 -2.7354
  337TIP3    H222503   3.537   1.695   3.724  0.3613 -1.0341  0.9426
  338TIP3   OH222504   3.161   4.219   6.076  0.3194  0.3250  0.3788
  338TIP3    H122505   3.081   4.177   6.107  0.3736 -1.1612 -1.4262
  338TIP3    H222506   3.224   4.208   6.148 -0.0395 -1.6193  0.4204
  339TIP3   OH222507   0.343   5.823   0.063 -0.3229 -0.7786  0.5480
  339TIP3    H122508   0.353   5.826  -0.033  1.6225 -0.4684  0.7577
  339TIP3    H222509   0.300   5.905   0.085 -0.7165 -0.8159 -0.0556
  340TIP3   OH222510   5.391   4.543   5.602 -0.1176  0.4101  0.4797
  340TIP3    H122511   5.359   4.464   5.558 -1.5428  1.3635 -0.2296
  340TIP3    H222512   5.456   4.579   5.541 -0.5587  0.5984  0.1231
  341TIP3   OH222513   0.073   2.815  15.402  0.4613 -0.7398  0.0164
  341TIP3    H122514   0.028   2.899  15.401  1.3700 -0.2454 -1.6175
  341TIP3    H222515   0.049   2.774  15.319  0.9169 -1.5985  0.3074
  342TIP3   OH222516   1.127   1.711   0.434 -0.1456  0.1115 -0.3883
  342TIP3    H122517   1.152   1.802   0.418 -0.9404  0.3017 -0.5913
  342TIP3    H222518   1.135   1.669   0.348 -0.0269  0.0544 -0.3486
  343TIP3   OH222519   3.004   2.520   5.040 -0.4866  0.3666  0.3375
  343TIP3    H122520   3.032   2.606   5.007 -1.5005  0.3794 -0.5347
  343TIP3    H222521   2.992   2.533   5.134  1.0288  0.7255  0.4909
  344TIP3   OH222522   1.071   4.691  13.456 -0.2981 -0.2099  0.3810
  344TIP3    H122523   1.015   4.728  13.388 -0.3287  0.2945  0.6729
  344TIP3    H222524   1.013   4.682  13.532 -0.2806 -0.8272  0.3237
  345TIP3   OH222525   6.606   4.592  15.202 -0.1039  0.6107  0.0941
  345TIP3    H122526   6.673   4.598  15.134  0.1481 -1.7851  0.0773
  345TIP3    H222527   6.648   4.544  15.273 -0.9748  1.3986  1.1581
  346TIP3   OH222528   6.498   0.522  10.409  0.3314  0.1206  0.0431
  346TIP3    H122529   6.518   0.571  10.489  1.8499 -0.5757  0.1039
  346TIP3    H222530   6.567   0.547  10.348 -0.3919  0.0641 -0.7983
  347TIP3   OH222531   2.786   5.940  13.379  0.0215  0.2933  0.2499
  347TIP3    H122532   2.794   5.977  13.292 -0.8325 -0.1394 -0.0184
  347TIP3    H222533   2.784   6.016  13.438 -3.5437  0.7816 -0.4289
  348TIP3   OH222534   5.946   4.745  11.990  0.1458  0.6492 -0.0776
  348TIP3    H122535   5.887   4.684  12.033 -0.1183  2.1429  1.7328
  348TIP3    H222536   6.032   4.727  12.028  0.1776  0.9919  0.0184
  349TIP3   OH222537   3.358   1.497   5.169  0.4832 -0.0080  0.1680
  349TIP3    H122538   3.389   1.424   5.224  1.1725  0.7107  0.7528
  349TIP3    H222539   3.286   1.535   5.219 -0.0981 -0.5032 -0.2984
  350TIP3   OH222540   2.342   3.193   6.489  0.6781  0.0233 -0.0263
  350TIP3    H122541   2.402   3.265   6.471  0.1653  0.5061  0.2091
  350TIP3    H222542   2.388   3.116   6.455  1.0989  0.4947 -0.5447
  351TIP3   OH222543   6.736   4.413   1.135  0.1925  0.0413 -0.0672
  351TIP3    H122544   6.684   4.478   1.088 -1.0716 -1.1732 -0.3646
  351TIP3    H222545   6.825   4.449   1.134 -0.5276  1.8739 -0.0221
  352TIP3   OH222546   4.547   5.386  16.357  0.0339 -0.1276 -0.1380
  352TIP3    H122547   4.485   5.407  16.427 -0.6097 -0.0000 -0.7414
  352TIP3    H222548   4.633   5.395  16.398 -0.3654 -2.7216  1.3950
  353TIP3   OH222549   0.013   1.494   1.401 -0.2307 -0.7329  0.2295
  353TIP3    H122550  -0.028   1.558   1.342 -0.8239 -0.6688  0.7109
  353TIP3    H222551   0.085   1.543   1.443 -2.2774  0.3928  2.5310
  354TIP3   OH222552   4.429   3.652   5.946 -0.1852  0.1289  0.1466
  354TIP3    H122553   4.493   3.605   5.999  2.3322  0.9600 -2.0754
  354TIP3    H222554   4.424   3.739   5.985 -0.2259 -0.0360  0.5128
  355TIP3   OH222555   3.612   0.950  14.807  0.2069  0.6161 -0.2318
  355TIP3    H122556   3.526   0.920  14.836  0.2228 -1.3600 -2.1039
  355TIP3    H222557   3.597   0.984  14.719  1.2194  0.9917 -0.2638
  356TIP3   OH222558   6.522   2.009   3.844 -0.2093 -0.2189  0.6922
  356TIP3    H122559   6.447   1.965   3.882  0.0652 -0.1212  1.3464
  356TIP3    H222560   6.591   1.942   3.842  0.4711  0.4153  2.4855
  357TIP3   OH222561   5.760   1.562  15.530  0.6824 -1.0665  0.0686
  357TIP3    H122562   5.759   1.657  15.537  0.7031 -1.1408  1.1298
  357TIP3    H222563   5.670   1.536  15.551  0.6433 -1.2825 -0.3440
  358TIP3   OH222564   0.445   3.848  15.060 -0.6277  0.1401  0.4326
  358TIP3    H122565   0.399   3.856  14.976 -0.0745 -1.0331  0.0068
  358TIP3    H222566   0.458   3.938  15.088 -1.0232  0.5455 -0.6318
  359TIP3   OH222567   4.445   5.044   1.102  0.5112  0.0519  0.1369
  359TIP3    H122568   4.475   5.124   1.144 -1.3772 -0.0494  1.7172
  359TIP3    H222569   4.409   4.991   1.173 -1.3551 -0.7609 -1.3896
  360TIP3   OH222570   3.605   5.804  15.508 -0.0422  0.2715 -1.0308
  360TIP3    H122571   3.535   5.868  15.497 -0.6800 -0.2287  0.1387
  360TIP3    H222572   3.605   5.755  15.426 -1.8818 -0.5531 -0.5529
  361TIP3   OH222573   0.076   0.573   3.643 -0.2445  0.3596 -0.9436
  361TIP3    H122574   0.108   0.651   3.689 -0.6365  0.6237 -1.1049
  361TIP3    H222575   0.017   0.531   3.706  0.0935  0.1050 -0.7983
  362TIP3   OH222576   3.408   3.919  15.039  0.0161 -0.3136 -0.4577
  362TIP3    H122577   3.349   3.865  14.987 -1.0320  1.7344 -1.4493
  362TIP3    H222578   3.383   3.901  15.130  0.3520 -2.2033 -0.7131
  363TIP3   OH222579   5.091   5.711   5.284  0.3123  0.6242 -0.2439
  363TIP3    H122580   5.000   5.725   5.311  0.6603  0.1432  1.2615
  363TIP3    H222581   5.131   5.669   5.360  1.7847  0.8184 -0.9107
  364TIP3   OH222582   4.678   0.851  15.924 -0.2836 -0.5443  0.0942
  364TIP3    H122583   4.623   0.836  16.000 -0.5306 -4.5596 -0.7735
  364TIP3    H222584   4.758   0.801  15.942 -0.4615 -1.7641 -2.3614
  365TIP3   OH222585   4.242   5.794  16.006 -0.1010 -0.4520 -0.3017
  365TIP3    H122586   4.206   5.848  16.076  0.9230 -1.2594  0.8831
  365TIP3    H222587   4.329   5.831  15.990 -0.3967 -0.1653 -1.2772
  366TIP3   OH222588   0.035   1.358  13.201  0.3878  0.3676 -0.0227
  366TIP3    H122589   0.018   1.427  13.136  0.1578  1.1894  0.8992
  366TIP3    H222590   0.125   1.375  13.230 -0.0222  0.9108  0.9494
  367TIP3   OH222591   3.670   2.861   4.901  0.8077  0.4360  0.0377
  367TIP3    H122592   3.690   2.931   4.964 -1.1215  1.0308  0.0206
  367TIP3    H222593   3.598   2.895   4.849 -0.6133 -1.8143  0.4631
  368TIP3   OH222594   4.884   4.916   5.515  0.1313 -0.1974  0.4621
  368TIP3    H122595   4.803   4.903   5.563  0.0646 -0.6201  0.2351
  368TIP3    H222596   4.921   4.828   5.506  1.2296  0.1273  1.6385
  369TIP3   OH222597   3.819   0.363  11.745 -0.1904  0.1388  0.0463
  369TIP3    H122598   3.734   0.319  11.740 -0.1516  0.0423  0.2383
  369TIP3    H222599   3.861   0.343  11.662 -0.5222  0.5287 -0.2209
  370TIP3   OH222600   2.591   4.086   2.688  0.5253 -0.1489 -0.3551
  370TIP3    H122601   2.629   4.102   2.601  1.4636 -1.1397 -0.1349
  370TIP3    H222602   2.507   4.132   2.686  1.6911  2.0361 -0.8704
  371TIP3   OH222603   5.802   4.954   3.524  0.1652 -0.3661 -0.3290
  371TIP3    H122604   5.810   4.941   3.618  0.9019  1.2669 -0.1469
  371TIP3    H222605   5.774   5.045   3.514  2.0557  0.1031 -1.7194
  372TIP3   OH222606   0.424   1.456  15.793  0.0611  0.0211 -0.4913
  372TIP3    H122607   0.394   1.536  15.835 -0.3776  0.1051 -0.9546
  372TIP3    H222608   0.401   1.467  15.700  0.4997 -0.4011 -0.6555
  373TIP3   OH222609   1.206   5.940  13.272  0.3349 -0.2160  0.2485
  373TIP3    H122610   1.290   5.893  13.272 -1.4802 -3.6004  1.6935
  373TIP3    H222611   1.179   5.939  13.180  1.2554 -0.2241 -0.0337
  374TIP3   OH222612   1.499   3.344  13.727 -0.1436 -0.2351 -0.2469
  374TIP3    H122613   1.557   3.312  13.658  2.2113  0.2315  1.4686
  374TIP3    H222614   1.515   3.286  13.801  0.5121  1.8156  1.2788
  375TIP3   OH222615   4.715   6.317   2.896 -0.3183  0.1089  0.3526
  375TIP3    H122616   4.636   6.268   2.874  1.3149 -1.7628 -1.6628
  375TIP3    H222617   4.769   6.256   2.945 -0.1660  1.4216  1.8602
  376TIP3   OH222618   3.906   2.042   5.599  0.1528  0.1825  0.3225
  376TIP3    H122619   3.892   1.948   5.606 -0.3323  0.3576  1.6562
  376TIP3    H222620   3.830   2.082   5.640  0.8037  1.1531  0.6213
  377TIP3   OH222621   3.725   0.561   3.667  0.6858  0.3427 -0.3021
  377TIP3    H122622   3.729   0.548   3.762 -0.5535  1.1456 -0.1206
  377TIP3    H222623   3.700   0.653   3.658  0.4757  0.1732 -1.4085
  378TIP3   OH222624   6.716   1.471  17.076 -0.1411  0.3753  0.0259
  378TIP3    H122625   6.736   1.450  17.167 -0.7910 -2.7443 -0.4988
  378TIP3    H222626   6.683   1.561  17.079 -2.2240 -0.4269  3.1616
  379TIP3   OH222627   3.678   1.277  12.718 -0.1436  0.0360 -0.1219
  379TIP3    H122628   3.727   1.296  12.638  2.6430  0.3002  1.5609
  379TIP3    H222629   3.619   1.351  12.728 -1.9530 -0.9429 -2.9372
  380TIP3   OH222630   6.613   3.355   3.052  0.0902 -0.1944 -1.0501
  380TIP3    H122631   6.584   3.435   3.007 -3.6479 -0.1811  1.1824
  380TIP3    H222632   6.649   3.386   3.135 -0.1918 -0.7515 -0.7177
  381TIP3   OH222633   6.804   3.113   1.980  0.7199 -0.1430 -1.0066
  381TIP3    H122634   6.720   3.131   2.022  0.7586  1.0543 -1.4198
  381TIP3    H222635   6.852   3.060   2.044 -0.1229 -0.3513 -0.5351
  382TIP3   OH222636   5.638   3.173   1.844 -0.3641 -0.1303 -0.0808
  382TIP3    H122637   5.677   3.231   1.910 -1.3001 -0.0447  0.4002
  382TIP3    H222638   5.630   3.089   1.888  1.7027 -0.8695 -1.0157
  383TIP3   OH222639   4.496   0.019  13.752  0.0633 -0.1203  0.0548
  383TIP3    H122640   4.539   0.082  13.809  0.4096  1.0797 -1.5190
  383TIP3    H222641   4.461   0.071  13.679  1.7902 -1.9131 -2.1211
  384TIP3   OH222642   3.663   4.320  16.870  0.0072  0.2782 -0.1481
  384TIP3    H122643   3.749   4.287  16.847  0.0243  0.8504 -0.9120
  384TIP3    H222644   3.659   4.312  16.966  0.0156 -1.8862 -0.3125
  385TIP3   OH222645   3.377   4.994   4.142  0.0710 -0.4463 -0.2405
  385TIP3    H122646   3.426   4.970   4.063  1.7955  0.1700  0.6015
  385TIP3    H222647   3.348   4.911   4.179  0.4471 -0.8232 -0.7831
  386TIP3   OH222648   3.660   5.798  16.739 -0.0474  0.5336  0.5032
  386TIP3    H122649   3.588   5.798  16.802 -0.0682 -1.0363  0.4996
  386TIP3    H222650   3.625   5.750  16.664  0.7383  0.4684  0.1797
  387TIP3   OH222651   0.978   3.930   1.090 -0.3025  0.8762 -0.1568
  387TIP3    H122652   0.894   3.890   1.066  0.2841  0.4821 -1.6142
  387TIP3    H222653   1.039   3.899   1.024  1.1078  0.8028  1.1410
  388TIP3   OH222654   4.948   5.462   4.332  0.8666 -0.1999  0.4457
  388TIP3    H122655   4.874   5.492   4.280  0.1323 -0.6343  1.2389
  388TIP3    H222656   5.007   5.538   4.336  0.4507  0.1562 -0.1382
  389TIP3   OH222657   4.683   2.910  14.680 -0.2697  0.1850  0.3453
  389TIP3    H122658   4.699   2.829  14.631  4.0101  0.4230  1.1344
  389TIP3    H222659   4.732   2.976  14.632  0.6135  1.2320  2.6627
  390TIP3   OH222660   2.160   6.111   0.830  0.2294  0.0194 -0.4685
  390TIP3    H122661   2.092   6.149   0.885  0.3209 -1.1141  0.4462
  390TIP3    H222662   2.204   6.187   0.791  0.1448  0.8517  0.9952
  391TIP3   OH222663   0.901   1.511  16.531  0.0410  0.1595 -0.6167
  391TIP3    H122664   0.993   1.514  16.557  0.8141  1.5992 -3.3427
  391TIP3    H222665   0.868   1.429  16.568  2.6619 -0.8221 -0.3748
  392TIP3   OH222666   1.564   1.615   4.567  0.1915  0.0298 -0.2266
  392TIP3    H122667   1.596   1.695   4.608 -0.7435 -0.2773  1.1557
  392TIP3    H222668   1.583   1.626   4.474  0.6612  1.5725  0.0358
  393TIP3   OH222669   2.980   1.897   1.526 -0.1013 -0.2121  0.0205
  393TIP3    H122670   2.978   1.835   1.598 -2.2791  1.6418  1.6054
  393TIP3    H222671   3.072   1.925   1.522  0.7233 -2.7769 -0.1290
  394TIP3   OH222672   4.156   1.145  16.330 -0.1199 -0.1822  0.3832
  394TIP3    H122673   4.158   1.106  16.418 -1.3729  1.8369  1.3362
  394TIP3    H222674   4.071   1.118  16.295 -0.1565  0.0684  0.2839
  395TIP3   OH222675   5.769   3.259  14.467  0.1801 -0.2311 -0.0036
  395TIP3    H122676   5.692   3.309  14.440 -0.2104 -0.9373 -0.2099
  395TIP3    H222677   5.840   3.290  14.411  0.3658  1.3934  1.0952
  396TIP3   OH222678   6.662   2.738   0.181 -0.1082  0.1206 -0.3133
  396TIP3    H122679   6.607   2.743   0.259  0.8013 -2.3690  0.5341
  396TIP3    H222680   6.615   2.680   0.122 -0.1038  0.8498 -1.0390
  397TIP3   OH222681   5.075   6.059   3.466 -0.0184 -0.0028  0.7213
  397TIP3    H122682   5.048   5.968   3.461  1.2025 -0.2902 -1.2364
  397TIP3    H222683   5.090   6.075   3.559 -0.5250 -1.7130  1.1061
  398TIP3   OH222684   2.452   6.685  11.248  0.8162 -0.1393  0.8953
  398TIP3    H122685   2.379   6.623  11.248 -0.3369  1.1934  1.7840
  398TIP3    H222686   2.423   6.756  11.192  2.3895 -0.6646 -0.6284
  399TIP3   OH222687   5.465   5.335  12.441 -0.3692  0.3224 -0.3428
  399TIP3    H122688   5.493   5.261  12.496 -2.3561 -0.3068 -0.1666
  399TIP3    H222689   5.546   5.385  12.426  0.4391 -0.1594  2.1548
  400TIP3   OH222690   5.997   4.097  12.884  0.3246 -0.2856  0.4124
  400TIP3    H122691   6.077   4.144  12.861  0.0069 -0.5071 -1.2513
  400TIP3    H222692   6.008   4.011  12.844 -0.2456 -0.7146  1.1739
  401TIP3   OH222693   3.321   3.422  13.311  0.0022  0.5516 -0.0391
  401TIP3    H122694   3.304   3.448  13.402  0.7192  0.0079  0.2538
  401TIP3    H222695   3.236   3.429  13.268 -0.9765 -2.0915  1.3873
  402TIP3   OH222696   6.412   2.763  15.938  0.3041  0.1249 -0.5625
  402TIP3    H122697   6.493   2.792  15.980  0.8077 -0.9893 -0.7623
  402TIP3    H222698   6.353   2.838  15.946  1.2385  0.8184 -0.1120
  403TIP3   OH222699   3.381   6.778  12.805  0.0613  0.0647 -0.0527
  403TIP3    H122700   3.422   6.857  12.769  0.6012 -0.3517 -0.3493
  403TIP3    H222701   3.346   6.806  12.890 -0.3150  0.7881 -0.4343
  404TIP3   OH222702   3.126   6.324   1.416  0.1475 -0.1944 -0.4660
  404TIP3    H122703   3.076   6.344   1.337 -0.6339 -0.7560 -0.1281
  404TIP3    H222704   3.080   6.370   1.486 -0.2175 -1.1283 -0.0735
  405TIP3   OH222705   1.839   5.116   5.232  0.3236 -0.1548  0.1186
  405TIP3    H122706   1.758   5.167   5.239  0.8127  1.0517 -2.3262
  405TIP3    H222707   1.909   5.181   5.241  0.9930 -0.8155 -0.2799
  406TIP3   OH222708   3.771   1.893  12.661  0.0184 -0.6862 -0.2858
  406TIP3    H122709   3.775   1.902  12.756 -1.2687  0.2491 -0.3020
  406TIP3    H222710   3.843   1.833  12.639  2.1415  1.2898  0.9867
  407TIP3   OH222711   2.743   4.362   3.516  0.2521 -0.2508 -0.2647
  407TIP3    H122712   2.740   4.452   3.484 -0.0189  0.2444  1.1360
  407TIP3    H222713   2.687   4.313   3.455 -0.6927  0.7740 -0.2421
  408TIP3   OH222714   4.094   6.023   0.521  0.2745 -0.2829  0.0059
  408TIP3    H122715   4.054   6.109   0.511 -0.4073 -0.3575  1.9856
  408TIP3    H222716   4.093   6.006   0.615  1.0522 -2.1495 -0.2950
  409TIP3   OH222717   1.493   0.286  13.324 -0.1783 -0.0363 -0.4990
  409TIP3    H122718   1.423   0.282  13.389  0.0955  0.5431 -0.1706
  409TIP3    H222719   1.451   0.260  13.242 -0.0909 -2.7134  0.2665
  410TIP3   OH222720   5.701   0.606   2.008 -0.3075 -0.3563  0.5087
  410TIP3    H122721   5.632   0.584   1.945  0.6511  0.5996 -0.9211
  410TIP3    H222722   5.735   0.522   2.037  0.8805 -0.8654 -2.1394
  411TIP3   OH222723   1.656   2.688   3.421  0.0730  0.1599 -0.4819
  411TIP3    H122724   1.641   2.654   3.509 -2.2321  2.2122 -0.0312
  411TIP3    H222725   1.717   2.761   3.434  3.6894 -2.5530 -1.2529
  412TIP3   OH222726   6.445   1.810  15.582  0.0111 -0.4223  0.7263
  412TIP3    H122727   6.447   1.782  15.674 -1.6448 -2.1144  0.2683
  412TIP3    H222728   6.360   1.781  15.549 -0.2327  1.8803 -0.8395
  413TIP3   OH222729   6.233   2.405  11.732  0.1769 -0.1581 -0.4967
  413TIP3    H122730   6.138   2.401  11.718 -0.0421  0.3344  0.7119
  413TIP3    H222731   6.249   2.343  11.803  0.8169 -0.5233 -0.9631
  414TIP3   OH222732   2.687   2.867  12.598  0.2693  0.0275  0.4031
  414TIP3    H122733   2.769   2.834  12.562  0.1556  1.9441 -1.7321
  414TIP3    H222734   2.620   2.836  12.538 -0.3806  0.0662  1.0925
  415TIP3   OH222735   6.694   6.465  14.643 -0.4266 -0.7413  0.2138
  415TIP3    H122736   6.614   6.434  14.602 -0.3048  0.2720 -0.8063
  415TIP3    H222737   6.742   6.509  14.573  0.2395  0.1434  1.1989
  416TIP3   OH222738   6.083   2.498   2.431 -0.1826  0.4354 -0.2462
  416TIP3    H122739   6.106   2.548   2.510  0.4264 -1.2986  0.7108
  416TIP3    H222740   6.001   2.454   2.455  1.1452 -1.8353  0.2484
  417TIP3   OH222741   2.134   3.721  16.950 -0.1834 -0.3364  0.1634
  417TIP3    H122742   2.219   3.700  16.991  0.0546  2.4262  1.2012
  417TIP3    H222743   2.126   3.658  16.879  2.5348 -0.9668  0.3466
  418TIP3   OH222744   0.265   2.618   0.246  0.0223  0.6224  0.8502
  418TIP3    H122745   0.343   2.671   0.228  0.4018 -0.0111  0.6154
  418TIP3    H222746   0.285   2.533   0.209 -0.8222  0.4789  0.7201
  419TIP3   OH222747   3.245   0.827  11.928 -0.2731 -0.4768 -0.4567
  419TIP3    H122748   3.307   0.837  11.999 -0.0774  0.2140 -0.7173
  419TIP3    H222749   3.179   0.767  11.962 -1.0790  1.1382  0.9233
  420TIP3   OH222750   5.014   5.268  11.200 -0.2478 -0.0494  0.1213
  420TIP3    H122751   4.975   5.335  11.143  1.1250 -1.1101 -2.1201
  420TIP3    H222752   5.067   5.214  11.141 -0.2283 -2.2910  2.1125
  421TIP3   OH222753   3.628   3.819  14.158  0.6654 -0.2702 -0.0743
  421TIP3    H122754   3.717   3.788  14.141  0.1149 -2.1427  0.3364
  421TIP3    H222755   3.618   3.811  14.253 -0.1339 -0.6694 -0.1877
  422TIP3   OH222756   4.615   2.254  13.532  0.5096  0.1974 -0.7852
  422TIP3    H122757   4.645   2.270  13.622  0.9523 -0.7946 -0.7535
  422TIP3    H222758   4.524   2.284  13.532  0.8025  1.1008 -0.2698
  423TIP3   OH222759   2.104   1.544  15.711 -0.0081  0.2733  0.1494
  423TIP3    H122760   2.180   1.515  15.760 -0.9921  0.9439  2.1317
  423TIP3    H222761   2.128   1.630  15.677  0.7617 -0.2952 -0.7679
  424TIP3   OH222762   2.471   2.564  16.026  0.8177  0.1381  1.1174
  424TIP3    H122763   2.498   2.533  15.939 -0.5243 -0.3724  0.8684
  424TIP3    H222764   2.529   2.519  16.087  1.8312  0.5613  0.4850
  425TIP3   OH222765   5.810   2.143  16.764 -0.2654 -0.3174  0.3337
  425TIP3    H122766   5.720   2.176  16.773 -0.6555 -1.8101  2.3159
  425TIP3    H222767   5.831   2.154  16.672 -1.9075  1.5511  0.1680
  426TIP3   OH222768   3.029   5.841   0.635 -0.2465 -0.6045 -0.3095
  426TIP3    H122769   2.942   5.873   0.660 -0.3539 -1.6272  0.6472
  426TIP3    H222770   3.082   5.851   0.714  0.2171 -1.0088 -0.5646
  427TIP3   OH222771   4.447   4.122   3.595 -0.5280 -0.2448 -0.0888
  427TIP3    H122772   4.392   4.104   3.518 -0.1659  1.1848 -0.7089
  427TIP3    H222773   4.438   4.044   3.650 -1.9975 -0.6542 -0.8729
  428TIP3   OH222774   1.321   3.153  15.924 -0.2200 -0.4369 -0.3557
  428TIP3    H122775   1.285   3.241  15.933  1.0042  0.1438 -1.0125
  428TIP3    H222776   1.319   3.136  15.829  0.2174 -0.8121 -0.3017
  429TIP3   OH222777   5.182   2.675  15.530 -0.2036  0.5665 -0.4327
  429TIP3    H122778   5.147   2.763  15.520  0.7482  0.9908 -0.0324
  429TIP3    H222779   5.215   2.652  15.442  2.7945  2.0120  0.2595
  430TIP3   OH222780   0.505   4.960   5.241  0.1611 -0.1641  0.1333
  430TIP3    H122781   0.467   4.904   5.173 -0.1904 -1.6370  1.5096
  430TIP3    H222782   0.463   5.045   5.229  0.2373 -0.3489 -1.5929
  431TIP3   OH222783   5.889   5.422   5.205 -0.2251  0.2822 -0.4384
  431TIP3    H122784   5.958   5.372   5.249 -1.0207  0.8518  1.5194
  431TIP3    H222785   5.933   5.460   5.129  1.4111 -0.0686  0.2905
  432TIP3   OH222786   6.612   2.142   1.506  0.2407  0.4730 -0.5844
  432TIP3    H122787   6.679   2.115   1.569 -1.8758 -0.1962  1.4621
  432TIP3    H222788   6.611   2.237   1.511 -1.9705  0.3941  2.7766
  433TIP3   OH222789   4.718   2.760   6.018 -0.3320 -0.2951  0.8591
  433TIP3    H122790   4.718   2.672   5.979  0.3006 -0.9893  2.4189
  433TIP3    H222791   4.628   2.791   6.004 -0.0179 -0.3189 -1.5713
  434TIP3   OH222792   1.097   4.289  12.555 -0.2977  0.2300 -0.4580
  434TIP3    H122793   1.190   4.296  12.577 -0.5727 -0.2668  0.9335
  434TIP3    H222794   1.061   4.376  12.574 -0.4671 -0.1015  0.8204
  435TIP3   OH222795   5.833   5.356   3.176  0.0666 -0.1424 -0.3404
  435TIP3    H122796   5.910   5.402   3.209  0.2938 -0.6934 -0.1055
  435TIP3    H222797   5.852   5.263   3.190 -1.5741 -0.1883  1.7281
  436TIP3   OH222798   5.760   2.079  16.401 -0.4873 -0.0747 -0.0758
  436TIP3    H122799   5.667   2.087  16.381  0.2506  3.5533 -2.6069
  436TIP3    H222800   5.798   2.037  16.324 -0.0274 -1.7720  1.0513
  437TIP3   OH222801   6.366   0.265  13.630 -0.6383  0.9413  0.3667
  437TIP3    H122802   6.387   0.244  13.539  4.4851  0.3888  1.5215
  437TIP3    H222803   6.346   0.358  13.629 -0.1452  1.0492 -1.2672
  438TIP3   OH222804   0.830   6.251  14.945 -0.6125  1.0024 -0.4746
  438TIP3    H122805   0.846   6.169  14.993  0.3996  2.3019  1.4570
  438TIP3    H222806   0.770   6.226  14.875 -0.6855 -1.3103  0.3698
  439TIP3   OH222807   4.245   3.120   5.527  0.4674  0.3803  0.2725
  439TIP3    H122808   4.155   3.085   5.527  0.9825 -0.9965  0.1336
  439TIP3    H222809   4.236   3.210   5.497 -0.5567 -0.6180 -2.5303
  440TIP3   OH222810   2.531   6.372   3.720  0.0819 -0.0502  0.4938
  440TIP3    H122811   2.610   6.328   3.687 -0.9172 -0.9845 -0.6950
  440TIP3    H222812   2.513   6.329   3.804  0.1910 -0.6325  0.2240
  441TIP3   OH222813   5.952   1.162   3.341  0.3644  0.0919  0.2833
  441TIP3    H122814   5.870   1.206   3.319  0.9011  0.4652 -1.0599
  441TIP3    H222815   6.016   1.234   3.348  0.9294 -0.3374 -0.4075
  442TIP3   OH222816   5.887   2.090   2.432 -0.8924  0.2141 -0.0770
  442TIP3    H122817   5.908   2.047   2.515  3.2222  2.7282  0.3359
  442TIP3    H222818   5.905   2.024   2.365  2.1600  0.1642  0.7204
  443TIP3   OH222819   6.804   5.323  12.952  0.0231  0.1675 -0.0488
  443TIP3    H122820   6.806   5.377  12.872  0.2369 -0.9002 -0.7756
  443TIP3    H222821   6.718   5.280  12.950  0.4024 -0.5874 -0.1959
  444TIP3   OH222822   3.649   2.476  11.534  0.1091 -0.1397 -0.2047
  444TIP3    H122823   3.596   2.552  11.509 -0.8194 -0.4735  0.7429
  444TIP3    H222824   3.701   2.457  11.455 -0.1648  1.0339 -0.6841
  445TIP3   OH222825   1.745   6.171  13.233  0.1385  0.3150 -0.1363
  445TIP3    H122826   1.671   6.167  13.292  0.0611  0.4020 -0.2268
  445TIP3    H222827   1.748   6.084  13.193  0.4867  0.1003  0.3514
  446TIP3   OH222828   3.089   0.295   1.196  0.0143 -0.1970 -0.0587
  446TIP3    H122829   3.152   0.261   1.260 -0.4116 -2.0842 -0.6133
  446TIP3    H222830   3.005   0.292   1.241 -0.0790 -0.2110 -0.2332
  447TIP3   OH222831   2.470   3.457   6.420 -0.3469  0.0681 -0.2707
  447TIP3    H122832   2.491   3.431   6.330 -0.5897 -0.6413 -0.1302
  447TIP3    H222833   2.554   3.485   6.457  0.1106 -1.4166 -0.1460
  448TIP3   OH222834   2.863   2.217  13.160  0.0825 -0.4321 -0.1136
  448TIP3    H122835   2.849   2.124  13.177  0.5937 -0.4869 -0.0041
  448TIP3    H222836   2.944   2.239  13.206 -0.6954  0.3553  0.8997
  449TIP3   OH222837   6.405   3.634   4.385  0.0182  0.5473 -0.1572
  449TIP3    H122838   6.330   3.653   4.440  1.1850  1.4386  1.1451
  449TIP3    H222839   6.372   3.571   4.320 -2.1489  1.8833 -0.3851
  450TIP3   OH222840   5.856   3.330  15.346  0.3252 -0.4795  0.0230
  450TIP3    H122841   5.920   3.332  15.417  0.9139 -2.1271 -0.4339
  450TIP3    H222842   5.772   3.315  15.390  0.3277  1.0837  0.5744
  451TIP3   OH222843   2.137   6.741   4.022 -0.1875 -0.0463 -0.1100
  451TIP3    H122844   2.111   6.781   3.940 -1.6871  1.3088  0.9836
  451TIP3    H222845   2.176   6.657   3.997 -1.6378 -0.1535 -2.1197
  452TIP3   OH222846   5.616   5.298  15.166 -0.1126  0.0832  0.1214
  452TIP3    H122847   5.523   5.315  15.150 -0.3152  0.9288  2.0073
  452TIP3    H222848   5.617   5.253  15.251  1.1117 -1.0336 -0.4751
  453TIP3   OH222849   2.578   5.845   0.306 -0.1201  0.6464  0.1534
  453TIP3    H122850   2.570   5.930   0.351 -0.4960 -0.0242  1.3809
  453TIP3    H222851   2.667   5.815   0.326 -0.0208  0.7061 -0.1992
  454TIP3   OH222852   4.626   2.864  15.340 -0.3202  0.5930  0.2435
  454TIP3    H122853   4.560   2.807  15.299  0.6490 -0.7445  0.4872
  454TIP3    H222854   4.611   2.854  15.434  0.6833 -0.3057  0.3231
  455TIP3   OH222855   2.165   4.683   2.991  0.1203 -0.3275 -0.3121
  455TIP3    H122856   2.081   4.716   2.960 -0.4353 -0.7461  0.7165
  455TIP3    H222857   2.204   4.756   3.039 -0.2131 -0.5219  0.2595
  456TIP3   OH222858   4.997   2.911  15.205  0.7104  0.0585 -0.2148
  456TIP3    H122859   4.963   2.833  15.160  0.3636 -0.9509  1.7542
  456TIP3    H222860   5.074   2.879  15.252  0.0045  0.6771  1.3965
  457TIP3   OH222861   2.355   3.856   0.143  0.4981 -0.2360 -0.1370
  457TIP3    H122862   2.405   3.938   0.143  0.3894 -0.1274  2.2227
  457TIP3    H222863   2.285   3.871   0.079 -0.1924  1.9802  1.0830
  458TIP3   OH222864   4.738   1.349   2.701  0.2440 -0.0932  0.1636
  458TIP3    H122865   4.731   1.378   2.792 -0.5743  0.2798 -0.0117
  458TIP3    H222866   4.719   1.428   2.650 -2.0078 -0.9075 -0.3276
  459TIP3   OH222867   3.635   4.822   5.370  0.0723  0.1667 -0.2316
  459TIP3    H122868   3.698   4.764   5.328  0.0486  0.8514 -1.2333
  459TIP3    H222869   3.686   4.874   5.432  0.4726  0.6356 -0.9540
  460TIP3   OH222870   6.089   3.382  13.558  0.0896  0.9866  0.0192
  460TIP3    H122871   5.999   3.348  13.559  0.5010 -0.1478  2.4177
  460TIP3    H222872   6.129   3.341  13.481 -1.8674  2.7912 -2.0341
  461TIP3   OH222873   4.733   5.994  12.974 -0.0568 -0.0223  0.5491
  461TIP3    H122874   4.762   5.937  12.903 -1.0367  0.6079 -0.3767
  461TIP3    H222875   4.647   6.026  12.945 -0.7217 -0.1809  2.2558
  462TIP3   OH222876   1.992   3.401   5.714 -0.3257 -0.3252 -0.0444
  462TIP3    H122877   1.933   3.459   5.665  0.8978  0.1552 -0.9738
  462TIP3    H222878   2.078   3.416   5.675  0.6025 -0.2634  1.9847
  463TIP3   OH222879   6.024   6.417   3.745 -0.4001 -0.3382  0.2058
  463TIP3    H122880   5.949   6.415   3.685  0.3533 -0.9319 -0.7298
  463TIP3    H222881   6.067   6.333   3.732 -0.9684 -1.0253  2.5614
  464TIP3   OH222882   3.193   4.436  11.353 -0.1472 -0.0210  0.5857
  464TIP3    H122883   3.150   4.352  11.338  0.3660 -0.5406  1.9630
  464TIP3    H222884   3.193   4.479  11.267 -0.4208 -1.4161 -0.1190
  465TIP3   OH222885   2.368   2.292   1.417  0.6901  0.3942  0.1186
  465TIP3    H122886   2.322   2.218   1.378 -0.2366  2.1929 -2.3202
  465TIP3    H222887   2.455   2.258   1.437  0.3755 -1.2808 -1.2228
  466TIP3   OH222888   3.240   1.577  11.493 -0.0437 -0.2718 -0.3578
  466TIP3    H122889   3.281   1.626  11.564 -0.5099 -1.2463  0.5965
  466TIP3    H222890   3.225   1.642  11.424 -0.7383  0.9428  0.9218
  467TIP3   OH222891   1.819   2.731  15.372  0.1113  0.0756 -0.6919
  467TIP3    H122892   1.774   2.738  15.288  2.1048 -0.0217 -1.7889
  467TIP3    H222893   1.840   2.822  15.395  2.3555 -0.1122 -1.8724
  468TIP3   OH222894   0.675   4.717   5.533  0.4790 -0.7885 -0.2874
  468TIP3    H122895   0.613   4.673   5.591  0.5354 -0.3618  0.1091
  468TIP3    H222896   0.677   4.664   5.454  0.3326 -1.3311  0.0730
  469TIP3   OH222897   3.985   4.887  13.494  0.0393  0.4164 -0.2765
  469TIP3    H122898   3.992   4.981  13.508  0.3436  0.5968 -1.6264
  469TIP3    H222899   4.057   4.866  13.434  0.3594 -0.7785  0.5042
  470TIP3   OH222900   6.005   5.657   4.150  0.3458  0.3343 -0.5633
  470TIP3    H122901   5.956   5.690   4.225  0.3802  0.2553 -0.5053
  470TIP3    H222902   6.097   5.673   4.172  0.2762  2.0943 -1.4414
  471TIP3   OH222903   0.521   3.743   0.820 -0.8686  0.1879 -0.2115
  471TIP3    H122904   0.432   3.749   0.854 -0.7404 -0.0360  0.1586
  471TIP3    H222905   0.518   3.792   0.737 -1.9174 -1.8249 -1.4139
  472TIP3   OH222906   2.378   0.544  12.991 -0.1331 -0.0589  0.2054
  472TIP3    H122907   2.397   0.501  13.074  0.7087 -0.5774 -0.2577
  472TIP3    H222908   2.294   0.506  12.964 -0.8909  0.8011  1.2689
  473TIP3   OH222909   1.388   4.819   0.093  0.3170  0.3061 -0.6678
  473TIP3    H122910   1.423   4.777   0.015  1.5769 -2.8182  1.4870
  473TIP3    H222911   1.448   4.893   0.109  1.2003 -0.2065 -1.5415
  474TIP3   OH222912   4.568   5.947  11.383 -0.5056 -0.2738  0.0241
  474TIP3    H122913   4.608   5.868  11.420 -1.0510 -0.0331  1.1342
  474TIP3    H222914   4.640   5.994  11.342 -0.0892 -1.1007 -0.1923
  475TIP3   OH222915   3.760   1.758   3.055  0.0420 -0.5303  0.4137
  475TIP3    H122916   3.732   1.677   3.097  2.2361 -1.5956 -0.1287
  475TIP3    H222917   3.824   1.730   2.990  1.2373  1.7000  0.6057
  476TIP3   OH222918   3.512   2.973  12.355  0.0293 -0.3863  0.8411
  476TIP3    H122919   3.530   2.902  12.417 -2.5959  0.6019  2.8413
  476TIP3    H222920   3.506   3.052  12.409 -2.2440  0.5222 -0.6409
  477TIP3   OH222921   6.791   2.096   4.082  0.2155  0.1672 -0.5282
  477TIP3    H122922   6.704   2.059   4.098 -0.0302  0.7900 -0.4056
  477TIP3    H222923   6.839   2.081   4.163  0.0079  0.4232 -0.3582
  478TIP3   OH222924   0.533   0.265  10.542  0.1134  0.1431 -0.1145
  478TIP3    H122925   0.567   0.349  10.573 -0.1259 -0.4711  1.8885
  478TIP3    H222926   0.490   0.286  10.459  3.6648  1.2628 -1.7624
  479TIP3   OH222927   2.442   0.046  13.477 -0.6316 -0.1961 -0.4224
  479TIP3    H122928   2.419   0.091  13.558  0.1732  0.0463 -0.3164
  479TIP3    H222929   2.532   0.016  13.491 -0.7108 -0.7120 -0.9860
  480TIP3   OH222930   2.913   0.679  15.410 -0.1827  0.0618  0.6796
  480TIP3    H122931   2.913   0.747  15.342 -0.0947 -0.7404 -0.1296
  480TIP3    H222932   3.005   0.656  15.422 -0.2581 -0.3277  0.5274
  481TIP3   OH222933   3.127   3.041  12.583 -0.5552  0.0141 -0.3103
  481TIP3    H122934   3.086   3.127  12.591 -0.8813  0.1058 -2.5019
  481TIP3    H222935   3.061   2.980  12.617 -0.5439  0.5782  0.7253
  482TIP3   OH222936   4.922   5.464   4.975  0.1695 -1.0097  0.1282
  482TIP3    H122937   5.001   5.473   5.029 -0.3201 -0.7655  0.8120
  482TIP3    H222938   4.905   5.552   4.943 -0.0565 -0.9854  0.3143
  483TIP3   OH222939   4.855   2.563  17.003  0.0615 -0.2534 -0.1914
  483TIP3    H122940   4.930   2.519  17.042 -1.0877 -1.0670  1.1758
  483TIP3    H222941   4.867   2.656  17.023  0.6330 -0.3983  0.1240
  484TIP3   OH222942   3.183   3.098   5.973  0.1333  0.1725 -0.2078
  484TIP3    H122943   3.097   3.139   5.982  0.0444 -0.2273  0.7951
  484TIP3    H222944   3.223   3.107   6.059  1.5204  1.2891 -0.9483
  485TIP3   OH222945   5.906   5.180  12.188 -0.0925  0.0022 -0.5450
  485TIP3    H122946   5.958   5.138  12.120  2.1690  2.0153 -0.0992
  485TIP3    H222947   5.863   5.253  12.144 -1.2356 -0.6593 -0.5389
  486TIP3   OH222948   5.735   3.346  15.084  0.2796  0.2643 -0.3958
  486TIP3    H122949   5.777   3.322  15.167 -0.3977 -0.3210 -0.2156
  486TIP3    H222950   5.756   3.438  15.072  0.2586  0.3911  0.5009
  487TIP3   OH222951   4.996   6.781   1.946  0.6577 -0.1221  0.1330
  487TIP3    H122952   5.017   6.766   1.854  0.7863  0.0095  0.1415
  487TIP3    H222953   5.039   6.709   1.992  0.8496 -0.0146  0.1215
  488TIP3   OH222954   2.865   0.496   3.011  0.3818 -0.0467 -0.4062
  488TIP3    H122955   2.916   0.573   3.036 -2.0729  1.3199  0.5959
  488TIP3    H222956   2.826   0.520   2.927  1.2263 -1.0146 -1.0808
  489TIP3   OH222957   6.221   3.410  16.867  0.0438 -0.1011  0.1791
  489TIP3    H122958   6.195   3.493  16.827 -0.8151 -1.1829 -1.5677
  489TIP3    H222959   6.165   3.344  16.824  1.6457 -1.7378  0.5549
  490TIP3   OH222960   3.247   2.039   1.580 -0.4669  0.2097 -0.5187
  490TIP3    H122961   3.288   2.114   1.623  0.4421 -0.9645  0.7111
  490TIP3    H222962   3.276   2.043   1.489  0.2472  0.8714 -0.2579
  491TIP3   OH222963   2.120   6.554   0.900  0.1481 -0.4312 -0.0650
  491TIP3    H122964   2.114   6.600   0.983 -1.7112  0.4453 -0.6599
  491TIP3    H222965   2.207   6.576   0.867  0.1113  0.8938  0.6725
  492TIP3   OH222966   3.555   1.819   0.893 -0.5579  0.0958 -0.1046
  492TIP3    H122967   3.627   1.766   0.859 -0.1854  1.0019 -0.7409
  492TIP3    H222968   3.513   1.855   0.815 -0.7540  0.8072  0.3290
  493TIP3   OH222969   2.965   1.223  15.033  1.0366 -0.1986 -0.2316
  493TIP3    H122970   3.040   1.249  15.085  1.2256  0.3249 -0.7573
  493TIP3    H222971   2.923   1.305  15.007  1.3884 -0.4121 -1.5418
  494TIP3   OH222972   1.626   3.022  13.800  0.5660  0.1609  0.2750
  494TIP3    H122973   1.553   2.963  13.781  0.0192  0.9986 -0.2539
  494TIP3    H222974   1.665   2.987  13.880  0.7585 -1.3908 -0.4703
  495TIP3   OH222975   3.092   4.192  13.552  0.3988 -0.0902  0.5949
  495TIP3    H122976   3.018   4.185  13.493 -0.8261  0.4519  2.0375
  495TIP3    H222977   3.158   4.240  13.502 -0.9791  1.2256 -0.0090
  496TIP3   OH222978   1.392   5.301   3.181 -0.1075  0.2834  0.1965
  496TIP3    H122979   1.450   5.377   3.173 -1.1601  1.1381  0.5875
  496TIP3    H222980   1.332   5.324   3.251 -0.7464 -0.7189 -0.0169
  497TIP3   OH222981   3.357   2.344  17.102  0.1986 -0.0619 -0.0596
  497TIP3    H122982   3.447   2.347  17.135 -0.7323  0.6302  2.5516
  497TIP3    H222983   3.307   2.303  17.172 -1.7043  0.5070 -1.0380
  498TIP3   OH222984   4.755   3.029  13.495 -0.3251 -0.4562  0.4758
  498TIP3    H122985   4.697   2.974  13.549 -1.5334 -0.4989 -0.8365
  498TIP3    H222986   4.726   3.012  13.405  0.5461  0.9067 -0.0638
  499TIP3   OH222987   0.835   6.676   2.834 -0.0495 -0.0634  0.5583
  499TIP3    H122988   0.840   6.731   2.912  1.6258 -0.9406  1.1032
  499TIP3    H222989   0.889   6.599   2.855 -0.0492 -0.5884 -1.2330
  500TIP3   OH222990   6.369   2.361  14.768 -0.0940  0.1763 -0.5822
  500TIP3    H122991   6.359   2.307  14.846 -3.4074  2.4158  0.6437
  500TIP3    H222992   6.311   2.322  14.703  0.9638 -0.3808 -1.2002
  501TIP3   OH222993   5.756   4.312   5.473  0.4086 -0.4024 -0.2010
  501TIP3    H122994   5.770   4.308   5.379  0.3292 -0.9649 -0.1885
  501TIP3    H222995   5.682   4.254   5.489 -0.5615  0.8700  0.0126
  502TIP3   OH222996   3.405   1.134  16.464 -0.2728  0.2180  0.3082
  502TIP3    H122997   3.490   1.092  16.475 -0.1865  0.4093  0.3834
  502TIP3    H222998   3.344   1.063  16.448  0.1648  0.1975 -1.2980
  503TIP3   OH222999   3.084   2.965   4.200 -0.0510 -0.0843  0.0853
  503TIP3    H123000   3.107   2.901   4.132 -0.7965 -0.2760  0.0113
  503TIP3    H223001   3.042   3.036   4.152 -1.5142 -0.6835  0.4555
  504TIP3   OH223002   0.548   0.696   5.896  0.2253  0.0483 -0.3115
  504TIP3    H123003   0.601   0.667   5.970 -0.2015 -1.1818 -0.4750
  504TIP3    H223004   0.495   0.768   5.931  0.7137  0.0936  0.3241
  505TIP3   OH223005   1.778   2.941   6.029  0.2342 -0.7207 -0.0853
  505TIP3    H123006   1.685   2.961   6.035  0.5886  0.4982  1.9674
  505TIP3    H223007   1.786   2.854   6.069  0.1304 -0.2955  0.8757
  506TIP3   OH223008   3.025   4.115   3.744 -0.4758  0.4799 -0.4671
  506TIP3    H123009   3.098   4.059   3.718 -1.4844 -0.5813 -1.0426
  506TIP3    H223010   2.949   4.078   3.701 -2.1636 -1.1689  3.6597
  507TIP3   OH223011   4.778   1.336   5.891  0.2345  0.3784 -0.0222
  507TIP3    H123012   4.709   1.279   5.857  0.2681  0.2730  0.0842
  507TIP3    H223013   4.783   1.408   5.828  1.9384 -1.0148 -1.5783
  508TIP3   OH223014   4.654   2.568   5.410  0.4390 -0.0345  0.3434
  508TIP3    H123015   4.606   2.494   5.375  0.5830 -0.7501  1.6522
  508TIP3    H223016   4.600   2.601   5.481  0.3121  1.2094 -0.3000
  509TIP3   OH223017   0.308   1.673  14.450  0.4625  0.2068  1.0416
  509TIP3    H123018   0.364   1.751  14.449  1.7072 -0.6611  2.0507
  509TIP3    H223019   0.224   1.703  14.414  1.0479  1.9189  1.0809
  510TIP3   OH223020   1.230   5.639  13.407 -0.2157 -0.3896  0.7126
  510TIP3    H123021   1.213   5.579  13.335  1.0350  0.9861 -0.7607
  510TIP3    H223022   1.161   5.705  13.400  0.9559  0.7443 -0.3548
  511TIP3   OH223023   6.714   1.823  13.166 -0.2366 -0.3919 -0.2179
  511TIP3    H123024   6.668   1.800  13.084 -0.6797  0.3934 -0.1883
  511TIP3    H223025   6.683   1.758  13.229  0.9316 -1.6763 -0.9463
  512TIP3   OH223026   3.953   1.728  11.932 -0.1585  0.0712  0.3828
  512TIP3    H123027   3.969   1.642  11.895 -1.1554 -1.0562  2.4413
  512TIP3    H223028   4.000   1.789  11.875 -0.7764 -1.6551 -2.0390
  513TIP3   OH223029   0.326   1.878   1.756  0.0115 -0.2763  0.1582
  513TIP3    H123030   0.283   1.905   1.675 -0.1286 -3.0887 -0.7761
  513TIP3    H223031   0.409   1.926   1.757 -0.8118  1.2076 -0.6752
  514TIP3   OH223032   4.660   2.596   0.831  0.6447  0.1014  0.4399
  514TIP3    H123033   4.664   2.517   0.885 -0.3730  0.9802  1.8183
  514TIP3    H223034   4.635   2.666   0.891  0.5735  1.3082 -0.9511
  515TIP3   OH223035   1.565   0.965  10.998  0.1753  0.1941 -0.7483
  515TIP3    H123036   1.554   1.058  11.016 -0.6384  0.0464 -0.4985
  515TIP3    H223037   1.491   0.943  10.941  0.8874 -0.0862 -1.5754
  516TIP3   OH223038   0.119   1.287  17.076  0.2665  0.1282  0.2692
  516TIP3    H123039   0.136   1.275  16.983  0.9524  2.7419  0.0110
  516TIP3    H223040   0.041   1.343  17.080 -1.3370 -2.0874  1.3372
  517TIP3   OH223041   1.908   2.610   4.626  0.1473  0.4464 -0.3567
  517TIP3    H123042   1.880   2.646   4.710 -2.3617 -0.9004 -0.5331
  517TIP3    H223043   1.951   2.682   4.581 -1.5975  2.1949  0.7071
  518TIP3   OH223044   3.860   0.568   3.338  0.2249 -0.5613  0.5202
  518TIP3    H123045   3.864   0.565   3.433  0.4147 -0.7746  0.5056
  518TIP3    H223046   3.840   0.479   3.312 -0.0238 -0.4609  0.3700
  519TIP3   OH223047   3.423   2.280  11.529 -0.0072  0.5571 -0.2675
  519TIP3    H123048   3.441   2.225  11.453 -0.4063  0.4697 -0.3023
  519TIP3    H223049   3.506   2.323  11.549  0.4939 -0.5849  0.1904
  520TIP3   OH223050   2.151   1.844   3.648  0.0045  0.6266 -0.0630
  520TIP3    H123051   2.118   1.920   3.695 -0.9101 -0.2207  0.6992
  520TIP3    H223052   2.246   1.855   3.646 -0.1655  2.0300 -0.3997
  521TIP3   OH223053   3.789   5.261  13.955 -0.0381 -0.2033  0.3627
  521TIP3    H123054   3.839   5.235  13.878  0.3185 -2.2477  1.2509
  521TIP3    H223055   3.698   5.253  13.929  0.0744  0.7676 -0.3627
  522TIP3   OH223056   0.357   1.749   2.001  0.5832 -0.3665  0.1984
  522TIP3    H123057   0.282   1.703   2.040  0.5328 -0.8510 -0.4490
  522TIP3    H223058   0.327   1.773   1.913  0.8097  0.4152  0.3307
  523TIP3   OH223059   0.989   2.800   0.899  0.5267  0.3325 -0.1560
  523TIP3    H123060   0.938   2.766   0.825  1.0248  0.0717 -0.3784
  523TIP3    H223061   1.031   2.722   0.936  0.3226  0.4728  0.3658
  524TIP3   OH223062   5.031   4.470  17.275 -0.1315 -0.0320 -0.1418
  524TIP3    H123063   4.989   4.493  17.192  0.6879 -0.6345 -0.7490
  524TIP3    H223064   5.028   4.374  17.277  2.1437 -0.1597 -0.7389
  525TIP3   OH223065   5.701   4.094   4.903 -0.3823  0.2088 -0.1579
  525TIP3    H123066   5.797   4.090   4.909 -0.3440  1.1430 -0.1160
  525TIP3    H223067   5.673   4.003   4.910  0.5010 -0.0626 -0.0851
  526TIP3   OH223068   5.152   4.638  12.703 -0.2019 -0.1655 -0.2163
  526TIP3    H123069   5.208   4.566  12.733  0.7007 -0.1292 -1.7389
  526TIP3    H223070   5.202   4.717  12.725 -0.5176 -0.0593  0.1222
  527TIP3   OH223071   6.259   5.779   2.314 -0.1962  0.5168 -0.0512
  527TIP3    H123072   6.209   5.829   2.249 -1.4932  0.2052  0.6831
  527TIP3    H223073   6.339   5.753   2.268 -1.0508  0.3941 -1.4983
  528TIP3   OH223074   5.748   1.633   6.124  0.3596  0.3685  0.9703
  528TIP3    H123075   5.761   1.552   6.172  0.0590  0.0606  0.5332
  528TIP3    H223076   5.745   1.701   6.191 -3.1185 -0.3781  1.6783
  529TIP3   OH223077   6.674   4.020   5.619 -0.2436  0.5771 -0.6279
  529TIP3    H123078   6.657   4.113   5.606 -1.8072  0.2364 -1.0398
  529TIP3    H223079   6.591   3.984   5.650 -0.1305 -1.0068 -2.1146
  530TIP3   OH223080   3.049   6.048   6.615 -0.6082  0.2873 -0.2796
  530TIP3    H123081   3.104   6.058   6.537  0.3145  1.9287  0.5483
  530TIP3    H223082   2.967   6.011   6.582  1.0097 -2.3106 -1.5136
  531TIP3   OH223083   4.795   4.283  15.318  0.3305  0.8537  0.5883
  531TIP3    H123084   4.757   4.237  15.243  2.4473 -0.1227  0.1001
  531TIP3    H223085   4.781   4.224  15.392  1.2127  0.3532  0.3490
  532TIP3   OH223086   1.896   0.279  14.894  0.3072 -0.5075 -0.1563
  532TIP3    H123087   1.958   0.350  14.904  0.9161 -1.0969  0.2772
  532TIP3    H223088   1.891   0.238  14.981 -1.0343 -0.1756 -0.0607
  533TIP3   OH223089   3.511   5.730   4.943 -0.7453 -0.3211 -0.0713
  533TIP3    H123090   3.481   5.719   4.852  1.3107 -0.8632 -0.7078
  533TIP3    H223091   3.483   5.650   4.987  0.6541 -1.2871 -0.9131
  534TIP3   OH223092   6.074   6.009   5.432  0.2700  0.2766 -0.3361
  534TIP3    H123093   6.009   5.946   5.401  0.1407  0.0159  0.4549
  534TIP3    H223094   6.158   5.973   5.404  0.2070 -0.3210  0.2498
  535TIP3   OH223095   2.057   4.609   0.120 -0.5097 -0.0310  0.1972
  535TIP3    H123096   2.077   4.697   0.151 -3.5493  0.6209  0.5301
  535TIP3    H223097   1.984   4.581   0.176  0.2012 -2.6077 -0.1375
  536TIP3   OH223098   2.447   0.491  11.843  0.5630 -0.6142  0.4504
  536TIP3    H123099   2.483   0.404  11.863 -1.4027 -1.6853 -0.5170
  536TIP3    H223100   2.356   0.474  11.818  0.3941  1.6457 -0.5971
  537TIP3   OH223101   0.922   6.797  13.192  0.0408  0.6052  0.4912
  537TIP3    H123102   0.986   6.866  13.175  0.5055  0.0621 -0.0073
  537TIP3    H223103   0.849   6.841  13.236  1.0472  1.0996  1.6630
  538TIP3   OH223104   1.295   0.016   2.410  0.2150  0.1249 -0.4187
  538TIP3    H123105   1.263  -0.021   2.493 -0.3315 -0.0490 -0.7067
  538TIP3    H223106   1.256   0.104   2.407  0.8755  0.4360 -0.1154
  539TIP3   OH223107   4.929   6.286   0.656 -0.1682  0.1195 -0.2653
  539TIP3    H123108   4.879   6.361   0.625  0.1689  0.2190 -0.5873
  539TIP3    H223109   4.883   6.210   0.620 -0.3284  0.1882 -0.2060
  540TIP3   OH223110   5.098   3.421   2.343 -0.0028 -0.1795 -0.1332
  540TIP3    H123111   5.042   3.355   2.301 -1.0266  1.0961 -0.8170
  540TIP3    H223112   5.123   3.382   2.426 -0.3452 -1.5534 -0.6586
  541TIP3   OH223113   6.090   1.612  10.652 -0.4466  0.0991 -0.6052
  541TIP3    H123114   6.045   1.538  10.693 -1.9559  1.1756 -0.2408
  541TIP3    H223115   6.023   1.681  10.648  0.5308  0.9788 -2.2155
  542TIP3   OH223116   6.375   1.990   0.289  0.0196  0.5499 -0.0416
  542TIP3    H123117   6.466   1.977   0.314 -0.0565  1.0330  0.4890
  542TIP3    H223118   6.379   2.045   0.211  0.0970  2.7435  1.4638
  543TIP3   OH223119   2.844   5.689  15.263  0.3154 -0.1112  0.3928
  543TIP3    H123120   2.770   5.688  15.202  1.7107  3.8138 -1.5662
  543TIP3    H223121   2.919   5.660  15.211  0.9664  0.2637  1.1084
  544TIP3   OH223122   5.155   4.769   6.005 -0.7269  0.2637  0.2769
  544TIP3    H123123   5.187   4.818   6.080 -1.0642 -0.1428  0.6962
  544TIP3    H223124   5.194   4.682   6.015  1.5493  1.0372 -1.5965
  545TIP3   OH223125   2.954   0.237   6.362  0.2975  0.0038  0.1610
  545TIP3    H123126   2.913   0.204   6.282 -0.0139  1.2396 -0.1974
  545TIP3    H223127   2.967   0.159   6.416 -1.4478 -0.5843 -0.2176
  546TIP3   OH223128   5.581   6.069   5.819 -0.0221  0.3251  0.3880
  546TIP3    H123129   5.585   6.032   5.907  0.1656 -2.2178 -0.6566
  546TIP3    H223130   5.672   6.084   5.794  0.1369 -1.8749 -0.5192
  547TIP3   OH223131   3.500   2.984  13.158 -0.5515 -0.1448 -0.3709
  547TIP3    H123132   3.590   3.015  13.151 -0.6542  0.2953  0.1497
  547TIP3    H223133   3.461   3.040  13.226 -1.2362 -0.2770 -0.6509
  548TIP3   OH223134   3.446   6.333   5.464 -0.1594 -0.9610  0.4733
  548TIP3    H123135   3.502   6.259   5.439 -0.4575 -1.0348  0.0169
  548TIP3    H223136   3.507   6.404   5.481  0.1736 -1.4943  1.5690
  549TIP3   OH223137   6.613   1.106   3.727 -0.1949  0.0332 -0.5754
  549TIP3    H123138   6.618   1.199   3.703  1.1928  0.3884  1.0038
  549TIP3    H223139   6.695   1.069   3.695  0.1326 -0.2204  0.5455
  550TIP3   OH223140   0.539   2.141  10.969 -0.0327  0.3391  1.0476
  550TIP3    H123141   0.536   2.045  10.963  1.1872  0.3075  0.8996
  550TIP3    H223142   0.524   2.171  10.879  1.2492  0.2500  0.8048
  551TIP3   OH223143   3.105   0.099  14.138  0.1665 -0.4981  0.2073
  551TIP3    H123144   3.048   0.168  14.172  1.1794  0.2821  0.3336
  551TIP3    H223145   3.151   0.066  14.215 -0.0201 -1.0422  0.0880
  552TIP3   OH223146   6.230   2.467  12.447  0.0534 -0.5305 -0.1081
  552TIP3    H123147   6.162   2.455  12.381  2.0056  0.9347 -2.4702
  552TIP3    H223148   6.251   2.378  12.477  0.2910 -1.3777 -2.6773
  553TIP3   OH223149   1.357   3.034   5.121 -0.0708  0.2836  0.0539
  553TIP3    H123150   1.422   3.101   5.097  1.6845 -1.3220  0.2271
  553TIP3    H223151   1.389   2.997   5.203 -2.0648  0.5456  0.9830
  554TIP3   OH223152   4.031   1.755  12.673 -0.6027  0.1358  0.4359
  554TIP3    H123153   4.112   1.803  12.692  0.6533 -0.9089 -2.0287
  554TIP3    H223154   4.055   1.663  12.686 -0.8924 -0.2892 -1.8966
  555TIP3   OH223155   5.605   6.558  13.734 -0.6082 -0.1703  0.2992
  555TIP3    H123156   5.671   6.610  13.780  0.2007 -0.2756 -0.7292
  555TIP3    H223157   5.621   6.575  13.641 -0.5402 -1.9984 -0.0440
  556TIP3   OH223158   3.321   4.978  11.286  0.2574  0.7527 -0.4011
  556TIP3    H123159   3.388   4.969  11.218 -0.3879 -0.5157 -0.8834
  556TIP3    H223160   3.271   4.897  11.282 -0.3242  1.0135  1.0264
  557TIP3   OH223161   3.913   4.220   0.144 -0.1201 -0.8098 -0.6880
  557TIP3    H123162   3.989   4.201   0.089  0.8181 -1.5715  0.8548
  557TIP3    H223163   3.861   4.282   0.092  2.4042  1.0762 -1.0440
  558TIP3   OH223164   0.857   0.474  12.574 -0.2500 -0.1198 -0.0392
  558TIP3    H123165   0.793   0.485  12.503 -1.0965  0.1639  0.7446
  558TIP3    H223166   0.941   0.499  12.536 -0.3342 -2.0283 -1.5601
  559TIP3   OH223167   0.198   4.731  12.000 -0.0667  0.4627  0.3476
  559TIP3    H123168   0.128   4.668  11.982  0.0951 -0.4225  2.6664
  559TIP3    H223169   0.270   4.702  11.944  0.0189 -1.4696  1.4207
  560TIP3   OH223170   3.312   4.992  11.578 -0.1727  0.3031 -0.1270
  560TIP3    H123171   3.362   5.065  11.614  1.4276 -1.7163  1.9812
  560TIP3    H223172   3.313   5.005  11.484 -0.0563  3.0480  0.2186
  561TIP3   OH223173   5.690   0.653   3.352 -0.0701  0.1919  0.7038
  561TIP3    H123174   5.663   0.623   3.265 -1.5237 -0.6286  1.4336
  561TIP3    H223175   5.771   0.604   3.370 -1.7881 -2.4762  1.3908
  562TIP3   OH223176   5.369   1.395  14.669  0.3608  0.0526  0.0093
  562TIP3    H123177   5.429   1.337  14.621  0.2542 -0.1843  0.1606
  562TIP3    H223178   5.369   1.360  14.759 -0.1795 -0.0902 -0.0443
  563TIP3   OH223179   3.866   3.547  16.044  0.0541 -0.3082 -0.0049
  563TIP3    H123180   3.828   3.503  16.119  2.4567  2.7803  3.1811
  563TIP3    H223181   3.806   3.620  16.026  1.8732  1.7326  1.9813
  564TIP3   OH223182   2.987   1.889  11.756 -0.0833  0.0151 -0.4071
  564TIP3    H123183   3.037   1.878  11.675 -0.9826 -0.4351 -0.9163
  564TIP3    H223184   2.955   1.801  11.777 -3.1310  0.7311 -1.7387
  565TIP3   OH223185   3.101   0.463  15.113  0.2614  0.1681  0.2465
  565TIP3    H123186   3.101   0.466  15.209 -1.0769  1.6640  0.2159
  565TIP3    H223187   3.085   0.371  15.092  1.0769 -0.2677  1.4543
  566TIP3   OH223188   3.221   4.242  10.904 -0.0630 -0.0102 -0.3473
  566TIP3    H123189   3.282   4.201  10.843 -0.4296  0.6554 -1.1596
  566TIP3    H223190   3.267   4.319  10.937 -0.1712  0.0780 -0.3992
  567TIP3   OH223191   2.123   0.997   1.617 -0.3130  0.0105  0.0938
  567TIP3    H123192   2.112   1.088   1.642  0.0405 -0.2322  1.1631
  567TIP3    H223193   2.217   0.981   1.622 -0.2477 -0.1049 -1.2297
  568TIP3   OH223194   2.284   0.005  11.092 -0.9445 -0.5089  0.5804
  568TIP3    H123195   2.264  -0.074  11.043  4.2420 -1.7033  0.0723
  568TIP3    H223196   2.299   0.072  11.025  1.8491 -1.0400  0.6113
  569TIP3   OH223197   3.419   1.666  16.316 -0.0879  0.3670  0.5038
  569TIP3    H123198   3.513   1.681  16.316 -0.2592  1.6086 -0.6095
  569TIP3    H223199   3.403   1.606  16.389  1.7271 -0.9360 -0.1344
  570TIP3   OH223200   6.277   6.306   4.722 -0.1335  0.3533  0.5115
  570TIP3    H123201   6.337   6.287   4.794  0.5458  0.8754  0.0872
  570TIP3    H223202   6.199   6.254   4.742  0.4223 -0.2628  1.1115
  571TIP3   OH223203   5.309   3.442  14.722  0.0328 -0.2687  0.1997
  571TIP3    H123204   5.282   3.451  14.814 -0.1080 -0.5943  0.1922
  571TIP3    H223205   5.266   3.514  14.677 -0.3208 -0.4151  0.2989
  572TIP3   OH223206   3.163   5.486  11.159 -0.1555 -0.7561  0.1643
  572TIP3    H123207   3.097   5.483  11.089 -0.0465  0.0432  0.0144
  572TIP3    H223208   3.229   5.548  11.126  0.4339 -1.2030  0.5112
  573TIP3   OH223209   4.721   2.277   0.401  0.4440 -0.2847 -0.1845
  573TIP3    H123210   4.658   2.265   0.329 -1.5116 -0.6642  1.5277
  573TIP3    H223211   4.743   2.188   0.429  0.1745 -0.1264  0.5362
  574TIP3   OH223212   2.784   6.356  17.092  0.2930  0.0401  0.1434
  574TIP3    H123213   2.757   6.266  17.071  1.0229 -0.9871  3.3274
  574TIP3    H223214   2.878   6.357  17.073  0.3944 -0.0350  0.6444
  575TIP3   OH223215   4.056   5.697   0.382 -0.3447  0.4719  0.3948
  575TIP3    H123216   4.018   5.611   0.362  3.2077 -1.6601  2.3259
  575TIP3    H223217   4.018   5.720   0.467  1.0005 -0.6632  1.3236
  576TIP3   OH223218   5.850   6.762  16.969  0.3720  0.1207 -0.1213
  576TIP3    H123219   5.789   6.718  16.909  0.3789  0.3696 -0.3106
  576TIP3    H223220   5.813   6.848  16.983  0.5659  0.1962 -0.0629
  577TIP3   OH223221   2.617   2.475  12.506  0.0270 -0.0231  0.3991
  577TIP3    H123222   2.524   2.498  12.497 -0.3262 -1.0724  1.2863
  577TIP3    H223223   2.663   2.557  12.490 -1.0341  0.4398 -0.4155
  578TIP3   OH223224   2.057   1.160   0.923  0.2680 -0.5002 -0.0130
  578TIP3    H123225   2.052   1.073   0.963 -1.8593 -1.3155 -1.9510
  578TIP3    H223226   2.084   1.144   0.833  0.3540  0.8793 -0.2440
  579TIP3   OH223227   2.366   1.285   4.657  0.1691  0.5376  0.3446
  579TIP3    H123228   2.278   1.271   4.692 -0.0501 -1.9648 -1.1266
  579TIP3    H223229   2.355   1.286   4.562  1.8154 -0.4992  0.1228
  580TIP3   OH223230   2.168   6.714   3.288  0.6291 -0.2522  0.0002
  580TIP3    H123231   2.147   6.649   3.355  0.8792  1.0160  1.3474
  580TIP3    H223232   2.086   6.761   3.274  0.8441  0.1938  0.2211
  581TIP3   OH223233   0.642   2.654  13.693 -0.1614 -0.0570  0.5442
  581TIP3    H123234   0.549   2.631  13.693  0.5492 -3.1392  0.4125
  581TIP3    H223235   0.645   2.742  13.656 -3.0862  0.4240  1.3025
  582TIP3   OH223236   0.139   0.663   1.042  0.1897 -0.0462 -0.3016
  582TIP3    H123237   0.081   0.733   1.072  1.6346  0.4003  1.5017
  582TIP3    H223238   0.200   0.649   1.114  1.6703 -1.2483 -1.7415
  583TIP3   OH223239   0.567   5.370  15.195  0.3757 -0.3036  0.2072
  583TIP3    H123240   0.518   5.433  15.248 -2.5474 -0.8812 -1.6564
  583TIP3    H223241   0.627   5.423  15.144  0.4971  0.6178  1.2842
  584TIP3   OH223242   2.685   1.210  13.367 -0.3596  0.1399  0.2532
  584TIP3    H123243   2.779   1.200  13.354 -0.0936  1.3938  1.1445
  584TIP3    H223244   2.667   1.167  13.450 -0.2858  1.3231  0.8969
  585TIP3   OH223245   6.526   4.051   6.157 -0.6058  0.2154  0.0360
  585TIP3    H123246   6.535   3.955   6.153  0.6570  0.3366 -0.0428
  585TIP3    H223247   6.605   4.081   6.200 -1.8070  1.1059  1.6521
  586TIP3   OH223248   2.992   1.568   0.888  0.2726  0.0273  0.2219
  586TIP3    H123249   2.927   1.630   0.922  1.3581  0.3683  1.7555
  586TIP3    H223250   2.947   1.520   0.819 -1.4409  0.5995  0.9313
  587TIP3   OH223251   6.611   3.400   0.958  0.1883  0.0847  0.3133
  587TIP3    H123252   6.643   3.427   0.871  0.4832  2.1094  1.0299
  587TIP3    H223253   6.682   3.346   0.993  1.4688  1.8706  0.5569
  588TIP3   OH223254   2.096   6.120   5.853 -0.6363  0.0024  0.5805
  588TIP3    H123255   2.159   6.052   5.876  0.6878  1.3769  1.0915
  588TIP3    H223256   2.080   6.166   5.935 -1.5619  0.2720  0.2468
  589TIP3   OH223257   3.829   1.944   1.069 -0.2915 -0.6972  0.2136
  589TIP3    H123258   3.735   1.955   1.064 -0.1405 -0.0966 -1.4955
  589TIP3    H223259   3.865   2.032   1.058  0.4817 -0.9522  0.6072
  590TIP3   OH223260   0.406   6.624  16.204 -0.1576  0.9900 -0.0744
  590TIP3    H123261   0.420   6.533  16.229 -0.6928  1.1100  0.6830
  590TIP3    H223262   0.380   6.620  16.112 -0.2006  0.3800 -0.0404
  591TIP3   OH223263   1.903   1.407   0.883 -0.2889 -0.0056 -0.0280
  591TIP3    H123264   1.947   1.322   0.883 -1.7574 -0.7800 -0.3524
  591TIP3    H223265   1.972   1.469   0.907  0.8957 -1.2274 -0.1821
  592TIP3   OH223266   1.953   2.577  14.080  0.2878  0.4667  0.1724
  592TIP3    H123267   1.932   2.604  13.991 -0.2259  0.0352  0.1581
  592TIP3    H223268   2.036   2.530  14.073 -0.2504 -0.4279 -0.2270
  593TIP3   OH223269   2.134   4.571   3.548 -0.2952 -0.2626 -0.5258
  593TIP3    H123270   2.141   4.654   3.595  0.0141  0.5012 -1.8846
  593TIP3    H223271   2.144   4.595   3.456 -0.8970 -1.7221 -0.9868
  594TIP3   OH223272   3.387   5.135  16.656  0.3401  0.3717  0.4293
  594TIP3    H123273   3.439   5.054  16.656  2.3444  1.6249 -1.5250
  594TIP3    H223274   3.314   5.117  16.596  1.3008  0.3174 -0.7394
  595TIP3   OH223275   5.901   1.808  14.960  0.1923 -0.3933  0.3801
  595TIP3    H123276   5.901   1.832  15.053 -0.2173 -0.5242  0.4140
  595TIP3    H223277   5.809   1.815  14.934  0.2249 -0.9428  0.1321
  596TIP3   OH223278   5.573   3.236  13.028 -0.3464  0.1366 -0.3602
  596TIP3    H123279   5.579   3.143  13.050 -0.7995  0.0138 -0.7610
  596TIP3    H223280   5.597   3.240  12.935 -1.3787  0.2917 -0.6182
  597TIP3   OH223281   4.207   0.904  14.267 -0.5385 -0.5722  0.2713
  597TIP3    H123282   4.168   0.959  14.336 -0.0125 -1.5032  1.3326
  597TIP3    H223283   4.285   0.952  14.239 -0.6699 -0.2585  0.4357
  598TIP3   OH223284   3.960   0.802  10.885  0.9501  0.0031  0.3684
  598TIP3    H123285   4.040   0.813  10.834  1.0408 -1.2287  0.2377
  598TIP3    H223286   3.987   0.754  10.963  0.1800 -1.2511 -0.1214
  599TIP3   OH223287   4.615   3.219  13.673 -0.3531 -0.0401 -0.4536
  599TIP3    H123288   4.520   3.218  13.684 -0.0296 -3.0343  3.0465
  599TIP3    H223289   4.632   3.155  13.604 -0.8678 -0.0025 -0.6161
  600TIP3   OH223290   0.557   2.833   4.388 -0.0364  0.8056 -0.3058
  600TIP3    H123291   0.570   2.763   4.453  0.8598  1.0866 -0.1834
  600TIP3    H223292   0.549   2.787   4.305  3.1016  0.6787 -0.5934
  601TIP3   OH223293   4.031   1.116  11.394 -0.5300 -1.1600 -0.1948
  601TIP3    H123294   3.951   1.135  11.444  1.4843  3.4668  1.5441
  601TIP3    H223295   4.004   1.127  11.303 -2.3112 -1.5352  0.2500
  602TIP3   OH223296   3.236   5.515   4.133 -0.0625  0.3296  0.2670
  602TIP3    H123297   3.248   5.607   4.155  3.4755 -0.2949  1.3845
  602TIP3    H223298   3.321   5.488   4.097 -0.6121 -2.7612  1.1000
  603TIP3   OH223299   3.306   6.387  14.842  0.1843  0.2188 -0.1990
  603TIP3    H123300   3.233   6.418  14.789  0.2316 -0.5293 -0.7048
  603TIP3    H223301   3.384   6.399  14.788  0.6271  2.2191  0.8205
  604TIP3   OH223302   0.582   1.995  13.597 -0.2559  0.1082 -0.0678
  604TIP3    H123303   0.496   1.956  13.615 -0.1838 -0.2266 -0.4527
  604TIP3    H223304   0.578   2.019  13.504  0.2289 -0.3197 -0.2029
  605TIP3   OH223305   3.671   4.424   2.253 -0.1452 -0.4955  0.4378
  605TIP3    H123306   3.612   4.354   2.225  1.4216 -1.4389 -0.6006
  605TIP3    H223307   3.757   4.398   2.219  0.3514  2.2416 -0.5459
  606TIP3   OH223308   4.714   0.418  13.394 -0.3632  0.4364 -0.1620
  606TIP3    H123309   4.703   0.323  13.392 -2.6190  0.6822 -1.3850
  606TIP3    H223310   4.727   0.443  13.303 -0.4210  1.3663  0.0719
  607TIP3   OH223311   6.689   4.719  11.631 -0.2399  0.3124 -0.2883
  607TIP3    H123312   6.762   4.780  11.623 -1.0723  1.4674  0.7718
  607TIP3    H223313   6.720   4.653  11.694  1.6202 -1.8482 -3.3288
  608TIP3   OH223314   6.352   4.745  16.764  0.1779  0.2283  0.2222
  608TIP3    H123315   6.423   4.793  16.720  0.5400 -1.6544 -1.3082
  608TIP3    H223316   6.394   4.666  16.798 -1.1890 -0.9007 -0.6918
  609TIP3   OH223317   5.096   1.114   5.473  0.7057 -0.8760  0.1799
  609TIP3    H123318   5.047   1.146   5.549 -1.7224 -0.6214 -1.4295
  609TIP3    H223319   5.170   1.067   5.510 -1.7980 -2.9799  2.8050
  610TIP3   OH223320   4.673   2.238  15.123 -0.1243  0.5955  0.1212
  610TIP3    H123321   4.722   2.209  15.200 -2.0106  0.5268  1.3238
  610TIP3    H223322   4.635   2.322  15.149 -1.5893  0.1030 -0.3640
  611TIP3   OH223323   1.731   3.246   5.515 -0.4209  0.0279  0.3019
  611TIP3    H123324   1.699   3.280   5.599  0.4665  1.3926  0.1062
  611TIP3    H223325   1.688   3.301   5.449  0.2524  0.1208 -0.0643
  612TIP3   OH223326   5.047   0.321  12.349 -0.0337  0.3123 -0.2909
  612TIP3    H123327   5.058   0.265  12.272  1.3468  1.3186 -0.8396
  612TIP3    H223328   5.005   0.400  12.315  3.3246  2.0342 -0.6007
  613TIP3   OH223329   3.722   3.288  14.050  0.1762 -0.1047 -0.0223
  613TIP3    H123330   3.684   3.368  14.015  0.1395 -0.2850 -0.4007
  613TIP3    H223331   3.671   3.269  14.129 -0.9919 -0.7281 -0.9016
  614TIP3   OH223332   1.587   4.228   0.141  0.2307 -0.0921 -0.0441
  614TIP3    H123333   1.670   4.199   0.180  0.2294 -0.5842 -0.4047
  614TIP3    H223334   1.602   4.320   0.119 -0.0700  0.4494  1.9327
  615TIP3   OH223335   2.484   1.079  11.255 -0.1551  0.0123 -0.2047
  615TIP3    H123336   2.474   1.054  11.347 -2.7309 -1.6295 -0.8523
  615TIP3    H223337   2.575   1.061  11.235 -0.1223 -1.8588  1.4257
  616TIP3   OH223338   5.004   1.680  13.707 -0.3171 -0.5463  0.0491
  616TIP3    H123339   5.059   1.724  13.772  1.0808 -0.8056 -0.9411
  616TIP3    H223340   4.927   1.737  13.698  0.4561  0.5544  0.3798
  617TIP3   OH223341   3.647   3.453   5.560 -0.0649  0.0587 -0.3444
  617TIP3    H123342   3.674   3.540   5.531  0.7403  0.2545  0.9741
  617TIP3    H223343   3.701   3.435   5.637 -0.2645 -1.5847 -0.5704
  618TIP3   OH223344   2.918   0.260   5.024 -0.5349  0.1586  0.5213
  618TIP3    H123345   2.878   0.250   4.938 -0.5033  1.5251  0.3374
  618TIP3    H223346   2.945   0.171   5.048  0.4013 -0.0947 -1.3281
  619TIP3   OH223347   2.597   2.457   2.527 -0.3044  0.2024  0.5210
  619TIP3    H123348   2.567   2.525   2.586 -1.1888  0.2839 -0.0162
  619TIP3    H223349   2.653   2.502   2.464  0.7675  0.0896  1.3775
  620TIP3   OH223350   5.435   0.894  16.619 -0.1184  0.1370  0.5805
  620TIP3    H123351   5.436   0.953  16.544  1.1585 -0.6756 -0.0592
  620TIP3    H223352   5.372   0.933  16.679 -0.2711  1.4377 -0.3981
  621TIP3   OH223353   3.736   1.499   3.139 -0.2582  0.1385  0.6278
  621TIP3    H123354   3.653   1.452   3.144 -0.9474  1.3201  0.7209
  621TIP3    H223355   3.783   1.458   3.067 -1.0930 -0.3000  0.3258
  622TIP3   OH223356   2.439   1.954  16.611  0.2460 -0.3766 -0.2237
  622TIP3    H123357   2.528   1.939  16.578  0.3076  1.1502 -0.7835
  622TIP3    H223358   2.452   2.003  16.692 -0.0389 -1.5177  0.5314
  623TIP3   OH223359   2.656   3.677   0.366 -0.3549 -0.2768 -0.2553
  623TIP3    H123360   2.618   3.759   0.398  1.8811  0.3800  0.8365
  623TIP3    H223361   2.751   3.690   0.375  0.0996 -2.2529 -1.8871
  624TIP3   OH223362   5.583   6.118   3.688  0.0170 -0.0307  0.3632
  624TIP3    H123363   5.560   6.136   3.597 -0.2830  3.1198  1.0051
  624TIP3    H223364   5.663   6.065   3.683  1.0975  1.7176 -1.7608
  625TIP3   OH223365   1.283   2.903   0.134 -0.2697 -0.2214 -0.0567
  625TIP3    H123366   1.333   2.982   0.152 -0.4721 -0.3482  1.1128
  625TIP3    H223367   1.249   2.915   0.046 -0.2476  0.9603  0.0933
  626TIP3   OH223368   5.021   2.313   2.651  0.0534  0.0430 -0.1489
  626TIP3    H123369   5.090   2.353   2.703 -0.1787  0.2448  0.0062
  626TIP3    H223370   4.940   2.333   2.698  0.0842 -2.0829  0.8688
  627TIP3   OH223371   0.465   2.232  12.104  0.1191 -0.7021 -0.3388
  627TIP3    H123372   0.549   2.185  12.113  0.1850 -0.7583 -1.2259
  627TIP3    H223373   0.399   2.166  12.124  0.2270 -1.0995 -1.2595
  628TIP3   OH223374   0.738   4.383  12.796 -0.2542  0.1025 -0.0721
  628TIP3    H123375   0.739   4.380  12.892 -4.0859 -1.2780 -0.0089
  628TIP3    H223376   0.675   4.452  12.774  0.3890  0.2256 -1.6447
  629TIP3   OH223377   3.391   1.560   0.420  0.1766 -0.4538  0.4916
  629TIP3    H123378   3.452   1.521   0.481  0.7344  1.5275  1.2309
  629TIP3    H223379   3.444   1.621   0.368 -0.2390 -2.2817 -2.1365
  630TIP3   OH223380   5.656   3.065   1.102 -0.2415 -0.0101 -0.1540
  630TIP3    H123381   5.561   3.056   1.094 -0.5341  1.0759  1.7357
  630TIP3    H223382   5.677   3.143   1.051 -0.0180 -1.5978 -2.5421
  631TIP3   OH223383   4.803   1.491  15.521  0.0111  0.1143  0.3095
  631TIP3    H123384   4.764   1.545  15.589 -0.0609 -1.2020  1.3321
  631TIP3    H223385   4.758   1.407  15.528 -1.6452  0.6493 -2.8942
  632TIP3   OH223386   2.538   0.603  10.843 -0.1428 -0.0523  0.0021
  632TIP3    H123387   2.509   0.624  10.754  1.7272 -1.6684 -1.0412
  632TIP3    H223388   2.473   0.643  10.900 -2.4607 -0.6533 -2.1401
  633TIP3   OH223389   6.760   0.997   5.343  0.7807 -0.8111 -0.5814
  633TIP3    H123390   6.822   1.026   5.409  0.5153 -2.7636  0.5387
  633TIP3    H223391   6.675   0.997   5.387  0.5048 -1.4873 -1.0964
  634TIP3   OH223392   5.644   3.692   0.882 -0.2582  0.3834 -0.0623
  634TIP3    H123393   5.703   3.669   0.954 -1.1417  1.3995  1.0149
  634TIP3    H223394   5.584   3.756   0.920 -1.7835 -0.2936 -1.2545
  635TIP3   OH223395   0.085   1.405  11.999 -0.1885 -0.2744 -0.2562
  635TIP3    H123396   0.103   1.357  12.079  0.9261  1.3418  0.5048
  635TIP3    H223397   0.050   1.489  12.029  0.3180  0.3806 -1.4508
  636TIP3   OH223398   5.954   4.047   3.878 -0.3288  0.4271  0.1727
  636TIP3    H123399   5.918   4.033   3.966 -2.4756  2.7091 -0.3098
  636TIP3    H223400   5.892   4.004   3.819  1.7071 -2.1136 -0.2322
  637TIP3   OH223401   4.107   1.065  14.079 -0.3592  0.4709  0.2208
  637TIP3    H123402   4.114   0.987  14.134  0.7932  1.8028  2.0458
  637TIP3    H223403   4.036   1.046  14.018 -0.2333 -1.9008  0.7744
  638TIP3   OH223404   0.723   6.786  11.170 -1.2980 -0.0533 -0.6105
  638TIP3    H123405   0.757   6.720  11.110 -0.0939  0.8010 -0.9083
  638TIP3    H223406   0.798   6.810  11.225 -1.2872  2.1079 -1.4888
  639TIP3   OH223407   3.714   0.214   0.385  0.2124  0.4739 -0.2082
  639TIP3    H123408   3.769   0.268   0.329  0.3088  1.1470  0.5310
  639TIP3    H223409   3.626   0.223   0.348  0.1897  1.3197  0.0475
  640TIP3   OH223410   4.910   6.654  11.193 -0.2972 -0.1574 -0.0796
  640TIP3    H123411   4.991   6.655  11.143  0.3262  0.8030  0.9137
  640TIP3    H223412   4.897   6.563  11.218  0.0078 -0.4493 -0.9894
  641TIP3   OH223413   5.749   0.887  12.567  0.2912  0.2189  0.3635
  641TIP3    H123414   5.675   0.932  12.608 -1.1644  0.0312 -1.9716
  641TIP3    H223415   5.817   0.953  12.560 -0.5083  1.0486  0.3437
  642TIP3   OH223416   2.817   6.131  13.571  0.0590  0.2738 -0.1838
  642TIP3    H123417   2.855   6.186  13.503  0.7565  1.1389  0.8839
  642TIP3    H223418   2.739   6.179  13.599  1.8102  1.8114  2.2127
  643TIP3   OH223419   2.534   4.028  16.642  0.2550  0.3676  0.3762
  643TIP3    H123420   2.543   3.935  16.666  1.0938  0.3586  0.0473
  643TIP3    H223421   2.449   4.033  16.598 -0.9871  0.2457  2.6920
  644TIP3   OH223422   0.281   3.414   0.796  0.3379  0.4366  0.3039
  644TIP3    H123423   0.301   3.491   0.743  1.4325  0.5060  0.8076
  644TIP3    H223424   0.240   3.353   0.735  2.1171  0.2868 -0.7641
  645TIP3   OH223425   0.654   4.073  16.006  0.4280  0.0064  0.1026
  645TIP3    H123426   0.571   4.049  16.048  0.6104 -0.1983  0.3573
  645TIP3    H223427   0.636   4.155  15.961  0.3858  0.5664  1.1123
  646TIP3   OH223428   1.133   2.575   3.379 -0.1199  0.6667  0.2387
  646TIP3    H123429   1.168   2.495   3.340 -1.4933 -1.2928  2.8663
  646TIP3    H223430   1.210   2.626   3.403  0.8012 -0.5777 -0.0475
  647TIP3   OH223431   2.106   0.135  12.998  0.3467  0.0035  0.7745
  647TIP3    H123432   2.169   0.091  13.054  1.2257 -0.4639 -0.5502
  647TIP3    H223433   2.055   0.190  13.057  2.2077  0.6277  1.8399
  648TIP3   OH223434   1.820   3.723   2.516  0.2068 -0.5190  0.1737
  648TIP3    H123435   1.867   3.784   2.460 -2.8596  1.8613  0.0775
  648TIP3    H223436   1.758   3.679   2.457 -0.5861 -0.5528  1.0188
  649TIP3   OH223437   2.122   4.462   0.463  0.2600 -0.0079  0.1051
  649TIP3    H123438   2.152   4.429   0.548 -0.1843  0.9908  0.6717
  649TIP3    H223439   2.201   4.498   0.422  0.4736 -0.4808  0.1052
  650TIP3   OH223440   0.479   0.326   3.445  1.3169  0.0907  0.7585
  650TIP3    H123441   0.556   0.377   3.419  0.8845  0.8711  0.9902
  650TIP3    H223442   0.493   0.240   3.406  1.2541  0.8759 -1.0484
  651TIP3   OH223443   5.863   0.198   1.032  0.0233 -0.1181 -0.0015
  651TIP3    H123444   5.830   0.200   0.942  3.3851 -0.3126 -1.2887
  651TIP3    H223445   5.903   0.284   1.044  3.6552 -1.6966 -0.3173
  652TIP3   OH223446   1.794   0.794  15.585 -0.0051  0.1983 -0.2580
  652TIP3    H123447   1.859   0.846  15.538  0.7991  1.2735  1.9725
  652TIP3    H223448   1.709   0.825  15.552  0.5138  1.5532 -0.3298
  653TIP3   OH223449   5.642   3.221  12.751  0.0195 -0.5013 -1.1152
  653TIP3    H123450   5.594   3.203  12.670 -2.7604 -2.3782  0.8423
  653TIP3    H223451   5.689   3.140  12.770 -0.9565 -0.7903  0.1645
  654TIP3   OH223452   1.595   1.888  15.180  0.0451  0.1007 -0.4277
  654TIP3    H123453   1.677   1.925  15.213 -0.2710 -1.4933  2.2994
  654TIP3    H223454   1.616   1.796  15.162 -1.1728 -0.3843  0.5404
  655TIP3   OH223455   5.934   5.032   5.169 -0.0706 -0.0826  0.2033
  655TIP3    H123456   5.975   5.037   5.256 -0.3675 -0.2051  0.3515
  655TIP3    H223457   5.998   4.986   5.115  0.4699  0.7288  0.1451
  656TIP3   OH223458   1.170   2.146  13.528  0.2062  0.0305  0.0511
  656TIP3    H123459   1.126   2.200  13.594 -0.9739  0.6435 -1.2146
  656TIP3    H223460   1.255   2.190  13.515 -0.8336  1.7657 -1.1442
  657TIP3   OH223461   6.404   3.915   4.994 -0.3370 -0.0043 -0.0858
  657TIP3    H123462   6.371   3.960   5.072 -0.1272 -0.4503  0.2616
  657TIP3    H223463   6.478   3.863   5.026 -1.4630 -1.7295 -0.2115
  658TIP3   OH223464   1.209   0.178   0.771  0.1053 -0.0475  0.1139
  658TIP3    H123465   1.246   0.245   0.714 -2.5089 -0.0029 -1.6243
  658TIP3    H223466   1.150   0.128   0.715  0.2010 -2.3071  1.9503
  659TIP3   OH223467   4.442   2.502   0.696  0.3582 -0.0473 -0.0619
  659TIP3    H123468   4.453   2.547   0.613  1.1345  0.4475  0.3043
  659TIP3    H223469   4.515   2.531   0.750 -0.5458  0.2156  1.0581
  660TIP3   OH223470   6.031   3.852  15.880  0.0938 -0.7877  0.0726
  660TIP3    H123471   6.058   3.793  15.810 -0.5236  1.1671 -1.8778
  660TIP3    H223472   6.107   3.909  15.894 -0.2724 -0.2786  0.0072
  661TIP3   OH223473   6.815   5.724   6.582  0.6744 -0.8700  0.7634
  661TIP3    H123474   6.744   5.699   6.641  3.4486  0.0758  4.7070
  661TIP3    H223475   6.828   5.817   6.597  1.7872 -0.7192 -0.9814
  662TIP3   OH223476   5.824   5.461   4.056 -0.1015 -0.0555 -0.0765
  662TIP3    H123477   5.905   5.513   4.051 -1.0661  1.5657  0.8214
  662TIP3    H223478   5.786   5.483   4.141 -1.8923 -0.1947 -0.8204
  663TIP3   OH223479   0.279   3.102  16.187  0.2477  0.4496 -0.4487
  663TIP3    H123480   0.332   3.178  16.165  0.0219  0.2933 -1.5512
  663TIP3    H223481   0.329   3.027  16.154  0.8625  0.0380  1.3549
  664TIP3   OH223482   4.554   2.160   1.680  0.3970  0.0638  0.1879
  664TIP3    H123483   4.589   2.089   1.627  0.1333 -0.4145  0.6504
  664TIP3    H223484   4.501   2.212   1.620  1.6679  0.6378 -0.4577
  665TIP3   OH223485   3.471   2.314  14.369  0.3890 -0.5796  0.0497
  665TIP3    H123486   3.400   2.327  14.306 -0.9006  1.0704  1.7925
  665TIP3    H223487   3.546   2.359  14.330 -0.2396 -0.0524 -0.5640
  666TIP3   OH223488   2.231   1.721   0.131 -0.1056  0.1048  0.7186
  666TIP3    H123489   2.189   1.683   0.053  2.5567 -1.5531  0.0383
  666TIP3    H223490   2.245   1.813   0.108  0.1885 -0.2504 -0.5376
  667TIP3   OH223491   5.092   3.098  17.162  0.2716  0.5608  0.1563
  667TIP3    H123492   5.087   3.052  17.078 -0.3708  0.0164  0.4809
  667TIP3    H223493   5.183   3.091  17.188  0.8266  2.1097 -1.2515
  668TIP3   OH223494   4.792   3.641  14.044 -0.0813 -0.4151 -0.3875
  668TIP3    H123495   4.886   3.640  14.025  0.4146  2.7078  1.4527
  668TIP3    H223496   4.753   3.692  13.974 -0.3523 -1.3229 -0.9033
  669TIP3   OH223497   2.105   1.093   3.740 -0.2429  0.1056  0.0069
  669TIP3    H123498   2.167   1.039   3.690 -1.0956 -0.7760 -0.1004
  669TIP3    H223499   2.046   1.129   3.674  0.8002  1.8223 -0.0147
  670TIP3   OH223500   5.036   0.642   0.203  0.5391  0.2936 -0.5959
  670TIP3    H123501   5.029   0.556   0.161  0.0755  0.1919 -0.3201
  670TIP3    H223502   5.073   0.622   0.289 -0.6960  0.2165 -0.0624
  671TIP3   OH223503   6.591   6.361   6.554  0.2740 -0.0200  0.1149
  671TIP3    H123504   6.682   6.332   6.548  0.2220  0.2453 -2.2159
  671TIP3    H223505   6.575   6.367   6.648  1.8562 -2.5775  0.6087
  672TIP3   OH223506   6.819   5.844  13.845  0.0905  0.0357  0.0741
  672TIP3    H123507   6.734   5.884  13.828 -0.1271 -0.9074 -1.1429
  672TIP3    H223508   6.866   5.909  13.897 -1.8128  0.0582  1.8358
  673TIP3   OH223509   1.834   4.541  15.541  0.1321  0.2945 -0.5493
  673TIP3    H123510   1.874   4.470  15.491 -1.6871 -1.3015  0.2318
  673TIP3    H223511   1.819   4.504  15.628  1.1456  2.3245  0.5166
  674TIP3   OH223512   4.988   5.499  13.627 -0.0779  0.6485 -0.0144
  674TIP3    H123513   4.911   5.532  13.581 -1.1089  0.1121  1.2938
  674TIP3    H223514   5.059   5.505  13.563 -1.0586  1.7796 -1.0154
  675TIP3   OH223515   5.885   5.310   5.898 -0.3150  0.5738 -0.1502
  675TIP3    H123516   5.872   5.236   5.958  2.1790  1.5662  1.7297
  675TIP3    H223517   5.913   5.270   5.816  0.2837 -0.6146  0.6185
  676TIP3   OH223518   2.223   1.852   2.791 -0.2790  0.1957 -0.1669
  676TIP3    H123519   2.261   1.829   2.876  1.4286  2.4807 -0.2666
  676TIP3    H223520   2.234   1.774   2.737  0.9847 -0.3905  0.9178
  677TIP3   OH223521   6.486   1.204   0.864 -0.0761 -0.2613  0.2774
  677TIP3    H123522   6.499   1.146   0.939 -0.9121 -0.8228 -0.0009
  677TIP3    H223523   6.495   1.147   0.788  0.3153  0.2171 -0.0345
  678TIP3   OH223524   3.394   2.632   4.968 -0.0780  0.3832 -0.1840
  678TIP3    H123525   3.483   2.602   4.955  0.3960  1.0721  1.3558
  678TIP3    H223526   3.367   2.595   5.052 -0.8178  1.1289 -0.0777
  679TIP3   OH223527   1.449   4.288   5.703  0.1839 -0.0067 -0.5654
  679TIP3    H123528   1.466   4.335   5.785 -1.1226  0.5390 -0.6012
  679TIP3    H223529   1.506   4.211   5.708 -0.2524 -0.2492  1.1004
  680TIP3   OH223530   6.555   2.816   1.677  0.5906  0.3308 -0.2810
  680TIP3    H123531   6.584   2.905   1.696  1.0584 -0.1694  1.4824
  680TIP3    H223532   6.635   2.769   1.653  0.4912  0.1671 -0.2912
  681TIP3   OH223533   1.219   1.897   1.826 -0.0548  0.6779  0.0536
  681TIP3    H123534   1.137   1.860   1.858 -1.4249  1.4887 -2.3905
  681TIP3    H223535   1.278   1.822   1.817 -1.6737 -0.4546 -1.4955
  682TIP3   OH223536   5.843   0.159  11.998  0.2148 -0.5020 -0.3540
  682TIP3    H123537   5.848   0.167  12.093 -1.1013  1.1691 -0.4049
  682TIP3    H223538   5.773   0.096  11.983  0.4832 -0.8333 -0.2142
  683TIP3   OH223539   4.960   1.846  16.332 -0.2182  0.7201 -0.2423
  683TIP3    H123540   4.902   1.806  16.267  1.7280 -0.0677 -1.5405
  683TIP3    H223541   4.963   1.938  16.309 -1.6139  0.9375  0.3671
  684TIP3   OH223542   5.029   0.035  14.549  0.9942  0.1936 -0.8200
  684TIP3    H123543   4.940   0.061  14.525 -0.4075 -0.6894  3.1190
  684TIP3    H223544   5.085   0.089  14.493 -1.9755  2.0297 -2.1519
  685TIP3   OH223545   3.319   4.269   3.293 -0.0254 -0.4906 -0.7785
  685TIP3    H123546   3.315   4.188   3.345 -0.2517  0.7817  1.2472
  685TIP3    H223547   3.380   4.249   3.222  1.0433 -1.9841  0.5254
  686TIP3   OH223548   3.041   3.136  12.952  0.2283 -0.0568  0.1765
  686TIP3    H123549   3.002   3.073  12.891  2.8544 -0.7601 -0.8051
  686TIP3    H223550   3.107   3.087  12.999 -0.3793  1.0145  2.2068
  687TIP3   OH223551   1.927   0.952   5.736 -0.0362  0.5605  0.7862
  687TIP3    H123552   1.883   1.024   5.782 -0.5004  0.6374  0.2366
  687TIP3    H223553   1.881   0.873   5.766 -2.2140  0.8397 -1.6109
  688TIP3   OH223554   2.639   1.168  15.324  0.0733 -0.2777  0.4125
  688TIP3    H123555   2.679   1.122  15.250 -1.0441  0.2957 -0.5703
  688TIP3    H223556   2.708   1.224  15.358 -0.0679  1.2593 -1.7343
  689TIP3   OH223557   0.044   0.120   5.918 -0.1898 -0.8575  0.6014
  689TIP3    H123558   0.035   0.073   5.836  1.1146 -0.8841  0.4625
  689TIP3    H223559  -0.040   0.107   5.963 -1.1876 -0.2393 -1.0214
  690TIP3   OH223560   6.485   0.123   4.885  0.5800  0.2007  0.0465
  690TIP3    H123561   6.397   0.098   4.913 -0.0462  1.1815 -0.9768
  690TIP3    H223562   6.525   0.161   4.963 -0.4869  1.2296  0.1017
  691TIP3   OH223563   1.471   3.736  11.388 -0.1560 -0.3248 -0.2189
  691TIP3    H123564   1.524   3.664  11.421  1.7734  1.2075  0.1887
  691TIP3    H223565   1.496   3.744  11.296  0.1291  0.2077 -0.1018
  692TIP3   OH223566   3.500   1.789  17.080  0.8405  0.4514 -0.2167
  692TIP3    H123567   3.486   1.749  17.166  2.1308 -2.4016 -1.2581
  692TIP3    H223568   3.591   1.821  17.083  0.9261  0.2424 -0.5547
  693TIP3   OH223569   6.811   0.293   5.187 -0.2993 -0.1243  0.5280
  693TIP3    H123570   6.809   0.341   5.104  3.4770 -0.5007  0.1235
  693TIP3    H223571   6.794   0.202   5.162  0.1956 -0.1418  0.2522
  694TIP3   OH223572   3.537   3.578   0.038 -0.1785  0.5445  0.3407
  694TIP3    H123573   3.481   3.594   0.114 -0.4449 -0.0068  0.2591
  694TIP3    H223574   3.489   3.514  -0.014 -0.1884  1.2282 -0.4916
  695TIP3   OH223575   5.888   5.525  14.029  0.1873 -0.0501  0.4381
  695TIP3    H123576   5.906   5.432  14.011 -1.6032 -0.0438 -1.5330
  695TIP3    H223577   5.794   5.533  14.019  0.1306  1.6969  2.1450
  696TIP3   OH223578   4.653   4.230  10.898  0.2109  0.1234 -0.0177
  696TIP3    H123579   4.735   4.280  10.901  1.8236 -2.4393  0.7376
  696TIP3    H223580   4.652   4.190  10.811  1.0270 -1.8057  0.8276
  697TIP3   OH223581   3.686   6.384  13.277  0.5103 -0.3001  0.1402
  697TIP3    H123582   3.617   6.321  13.257  1.6093 -1.6143  0.3900
  697TIP3    H223583   3.676   6.402  13.370  0.5661 -0.5850  0.2038
  698TIP3   OH223584   0.091   5.266  16.397 -0.1736 -0.0570 -0.7324
  698TIP3    H123585  -0.003   5.282  16.387  0.0989  0.8534 -1.9034
  698TIP3    H223586   0.118   5.228  16.314  0.4304 -0.6903 -0.2547
  699TIP3   OH223587   1.988   4.877   5.267 -0.1204 -0.1375 -0.6613
  699TIP3    H123588   1.985   4.804   5.206 -0.7690 -1.2506  0.6800
  699TIP3    H223589   1.935   4.945   5.226  0.1612 -0.5506 -1.7295
  700TIP3   OH223590   6.127   3.644  17.092  0.1282  0.4372  0.0717
  700TIP3    H123591   6.125   3.671  17.000  0.4418  0.4330  0.0639
  700TIP3    H223592   6.056   3.580  17.100 -0.6520  1.2904  0.0981
  701TIP3   OH223593   2.746   2.430   5.280  0.1458 -0.3044 -0.2548
  701TIP3    H123594   2.737   2.526   5.275 -1.6124 -0.4403  0.2195
  701TIP3    H223595   2.790   2.407   5.198 -0.8878  0.7408 -1.1224
  702TIP3   OH223596   0.153   0.430  10.788 -0.2432  0.1274 -0.1262
  702TIP3    H123597   0.223   0.489  10.759  0.6119  0.2079  2.0515
  702TIP3    H223598   0.158   0.356  10.727  1.9411  0.0003  0.1585
  703TIP3   OH223599   6.255   0.800   0.228 -0.0490 -0.7722  0.2383
  703TIP3    H123600   6.273   0.716   0.186  0.7090 -0.5390  0.0968
  703TIP3    H223601   6.288   0.865   0.167 -0.7024 -0.3647  0.3163
  704TIP3   OH223602   1.351   5.736   0.905 -0.2552  0.1317 -0.8613
  704TIP3    H123603   1.408   5.727   0.829  0.5103  2.9454 -0.6508
  704TIP3    H223604   1.280   5.792   0.875 -1.0518 -0.4564 -0.0916
  705TIP3   OH223605   2.442   5.307   4.731  0.3492 -0.1960 -0.3636
  705TIP3    H123606   2.506   5.363   4.687  0.1097 -0.9395 -1.6825
  705TIP3    H223607   2.466   5.218   4.706 -1.3389 -0.4746 -1.0806
  706TIP3   OH223608   6.478   5.542  13.010 -0.1800 -0.1133 -0.1336
  706TIP3    H123609   6.473   5.578  13.098 -0.4456  0.5609 -0.4211
  706TIP3    H223610   6.452   5.614  12.953 -0.2290 -0.6124 -0.7505
  707TIP3   OH223611   4.430   5.447   3.492  0.2411  0.1744 -0.0745
  707TIP3    H123612   4.479   5.431   3.411  0.5518 -0.6061  0.2725
  707TIP3    H223613   4.496   5.441   3.561 -0.0977  0.4785  0.2760
  708TIP3   OH223614   6.686   4.425  11.049 -0.0391 -0.1287 -0.3171
  708TIP3    H123615   6.629   4.456  10.979 -0.8397 -0.8053  0.0134
  708TIP3    H223616   6.769   4.470  11.035  0.1128 -0.9671 -2.2558
  709TIP3   OH223617   2.634   4.519  15.783 -0.5513 -0.1178 -0.8373
  709TIP3    H123618   2.552   4.520  15.832 -1.4185 -1.7444 -2.1727
  709TIP3    H223619   2.607   4.532  15.692  0.8953  1.4468 -1.0691
  710TIP3   OH223620   4.223   2.005   5.424  0.4694 -0.0300 -0.3367
  710TIP3    H123621   4.285   2.077   5.428  0.0877  0.4372 -2.3676
  710TIP3    H223622   4.147   2.036   5.473  0.5017  0.7488 -0.7765
  711TIP3   OH223623   2.038   5.906   5.314 -0.1170 -0.7781 -0.3690
  711TIP3    H123624   2.023   5.936   5.224  0.3830 -0.6958 -0.4266
  711TIP3    H223625   2.110   5.960   5.346 -0.8763 -0.2113  0.3870
  712TIP3   OH223626   0.365   1.863   3.149 -0.4650  0.1997 -0.1789
  712TIP3    H123627   0.280   1.852   3.106 -1.4757  0.6511  1.6629
  712TIP3    H223628   0.411   1.927   3.094 -1.8262  0.9625 -0.4679
  713TIP3   OH223629   1.791   1.874   3.012 -0.5808  0.1012  0.0027
  713TIP3    H123630   1.843   1.955   3.016 -0.4836  0.0415 -0.0560
  713TIP3    H223631   1.703   1.901   3.038 -0.8655  0.5073 -1.2992
  714TIP3   OH223632   5.350   1.094   1.739  0.4841 -0.4920 -0.0680
  714TIP3    H123633   5.348   1.035   1.814 -0.6726 -0.8629 -0.3862
  714TIP3    H223634   5.438   1.132   1.741  1.0766 -1.8704  0.3987
  715TIP3   OH223635   0.532   4.548   0.523 -0.4221 -0.5982 -0.2719
  715TIP3    H123636   0.518   4.640   0.499  0.0710  0.1672  2.2194
  715TIP3    H223637   0.625   4.533   0.508 -0.8584 -1.2276 -2.3914
  716TIP3   OH223638   6.335   0.219  14.408 -0.3027  0.0388  0.4793
  716TIP3    H123639   6.259   0.249  14.458 -0.3013  1.6046 -0.4358
  716TIP3    H223640   6.338   0.125  14.424  0.1141  0.5598  4.0113
  717TIP3   OH223641   2.833   1.738   2.747  0.2875 -0.7131 -0.3171
  717TIP3    H123642   2.863   1.812   2.695  3.2658 -1.0106  0.8319
  717TIP3    H223643   2.914   1.696   2.777 -1.3351 -2.7977  1.3381
  718TIP3   OH223644   1.468   2.686   4.132  0.1016 -0.2648  0.2525
  718TIP3    H123645   1.481   2.634   4.211 -0.0472  0.9461  1.0981
  718TIP3    H223646   1.435   2.770   4.164  0.1911  0.2986 -1.0854
  719TIP3   OH223647   6.435   2.625  12.554  0.7396  0.5792 -0.3219
  719TIP3    H123648   6.437   2.595  12.645 -1.3007  2.1598  0.2840
  719TIP3    H223649   6.355   2.587  12.518  1.1280  0.6163 -1.2348
  720TIP3   OH223650   3.808   3.941  14.836 -0.3108  0.1953 -0.7017
  720TIP3    H123651   3.717   3.913  14.830 -0.1115 -0.6243  0.0433
  720TIP3    H223652   3.822   3.993  14.756 -1.5199  0.6303 -0.6456
  721TIP3   OH223653   6.722   0.647  11.775 -0.6924 -0.3183 -0.2715
  721TIP3    H123654   6.678   0.696  11.845 -0.6788 -1.1732  0.3409
  721TIP3    H223655   6.791   0.707  11.744  0.0793 -0.3700  1.2625
  722TIP3   OH223656   2.987   1.875  16.699 -0.0285 -0.6910  0.2947
  722TIP3    H123657   3.011   1.791  16.661  0.2399 -0.5417  0.1332
  722TIP3    H223658   3.001   1.939  16.629  1.6362 -0.2573  1.0072
  723TIP3   OH223659   0.750   1.433   0.357  0.1173  0.4390 -0.0945
  723TIP3    H123660   0.833   1.476   0.377  0.8382 -0.7176 -0.6045
  723TIP3    H223661   0.721   1.473   0.275  1.5173 -1.0798 -1.3466
  724TIP3   OH223662   5.680   5.851  12.859  0.4848  0.0893 -0.0912
  724TIP3    H123663   5.768   5.826  12.831  0.2687 -2.3571  1.2216
  724TIP3    H223664   5.693   5.889  12.946  0.2640 -0.4265  0.1747
  725TIP3   OH223665   0.722   0.662  13.075  0.1980  0.1256  0.6001
  725TIP3    H123666   0.674   0.581  13.057 -2.8539  1.9020  0.5761
  725TIP3    H223667   0.785   0.668  13.004 -0.4677 -1.5201 -0.1651
  726TIP3   OH223668   1.728   2.452   1.527  0.0717  0.0343  0.0569
  726TIP3    H123669   1.784   2.387   1.572  0.3937  0.7329  0.6730
  726TIP3    H223670   1.757   2.450   1.436 -1.5853 -2.4822 -0.4735
  727TIP3   OH223671   1.999   3.312   3.145  0.2686  0.1235 -0.2568
  727TIP3    H123672   2.077   3.350   3.103  1.9170 -0.4525  2.1872
  727TIP3    H223673   1.991   3.358   3.228  0.1527 -2.3155  1.1260
  728TIP3   OH223674   1.720   6.140   3.688  0.0352 -0.1004 -0.0920
  728TIP3    H123675   1.809   6.152   3.721 -0.5443 -0.1431  1.5435
  728TIP3    H223676   1.700   6.048   3.706 -0.2186 -0.1716 -0.7414
  729TIP3   OH223677   0.638   4.838  11.422 -0.2441  0.3645 -0.0811
  729TIP3    H123678   0.714   4.888  11.392 -0.1709  0.6404  0.5750
  729TIP3    H223679   0.568   4.864  11.362  0.1388  0.2143 -0.5991
  730TIP3   OH223680   0.291   4.184   5.919  0.4462 -0.6346 -0.0004
  730TIP3    H123681   0.219   4.124   5.898  1.2039 -2.5611  2.6219
  730TIP3    H223682   0.263   4.228   5.999 -0.1007  2.6016 -1.9066
  731TIP3   OH223683   2.100   1.646   3.101  0.4346 -0.2107 -0.3292
  731TIP3    H123684   2.134   1.702   3.171 -2.0123  1.6271 -0.5168
  731TIP3    H223685   2.156   1.665   3.026  2.3148 -1.2852  0.7938
  732TIP3   OH223686   4.450   6.341   5.733 -0.3060 -0.3036 -0.3252
  732TIP3    H123687   4.389   6.363   5.804  0.9355  0.2099  0.5815
  732TIP3    H223688   4.484   6.255   5.757 -0.2255 -0.3338 -0.5434
  733TIP3   OH223689   0.129   6.391  12.610  0.3669  0.9009  0.1920
  733TIP3    H123690   0.109   6.484  12.617 -0.8944  0.5711  1.2131
  733TIP3    H223691   0.062   6.357  12.550  1.1571  0.7419 -0.6110
  734TIP3   OH223692   6.636   0.609  15.907 -0.3513  0.4850  0.4629
  734TIP3    H123693   6.581   0.683  15.880 -0.2735  0.1945 -0.4936
  734TIP3    H223694   6.720   0.649  15.931 -1.1565  0.9987  2.5242
  735TIP3   OH223695   1.842   6.760  14.977 -0.1822  0.2007  0.2012
  735TIP3    H123696   1.838   6.850  15.009  0.0403  0.4708 -0.5405
  735TIP3    H223697   1.779   6.713  15.032  0.7367  0.5055  1.5396
  736TIP3   OH223698   3.980   3.347  13.425 -0.4602  0.3837  0.4588
  736TIP3    H123699   4.022   3.345  13.339  1.8075 -2.5215  1.5333
  736TIP3    H223700   4.042   3.394  13.481  0.6250 -2.2855  1.6209
  737TIP3   OH223701   0.161   6.277  13.671  0.1171  0.3312 -0.0199
  737TIP3    H123702   0.074   6.300  13.640  0.6644  1.3675 -0.8222
  737TIP3    H223703   0.159   6.291  13.765 -0.7140 -0.0858  0.0241
  738TIP3   OH223704   4.148   1.601  15.687  0.1702  0.0427 -0.4938
  738TIP3    H123705   4.243   1.606  15.679  0.5810 -4.7870  0.2323
  738TIP3    H223706   4.115   1.652  15.613  3.3489 -1.1109 -2.7957
  739TIP3   OH223707   2.307   4.169   0.922  0.4564 -0.5713 -0.2109
  739TIP3    H123708   2.260   4.095   0.959  2.1525 -1.3777  0.3797
  739TIP3    H223709   2.239   4.229   0.892 -0.9190 -1.4534  1.1339
  740TIP3   OH223710   6.328   0.112   1.231  0.0745 -0.0014  0.0576
  740TIP3    H123711   6.279   0.105   1.314  1.5966  1.7786  1.1582
  740TIP3    H223712   6.358   0.024   1.213  1.2308 -0.1249  2.3776
  741TIP3   OH223713   4.382   3.670  12.966 -0.4038  0.1020  0.4842
  741TIP3    H123714   4.437   3.595  12.990 -0.6632  0.2183  1.4620
  741TIP3    H223715   4.394   3.679  12.871 -1.2674 -1.9096  0.1481
  742TIP3   OH223716   6.057   0.349  12.515 -0.7113  0.1431  0.7469
  742TIP3    H123717   6.077   0.271  12.463 -3.3030 -0.5150  0.6672
  742TIP3    H223718   6.042   0.317  12.604  1.8086  1.0281  1.5178
  743TIP3   OH223719   4.466   4.468   5.701 -0.6930 -0.0915 -0.0583
  743TIP3    H123720   4.468   4.487   5.795 -1.1542 -1.1916  0.1755
  743TIP3    H223721   4.374   4.481   5.676 -0.8485 -1.1997 -0.0658
  744TIP3   OH223722   4.889   2.630   0.098  0.3786 -0.1276  0.4147
  744TIP3    H123723   4.949   2.631   0.024  1.3250 -1.6080  1.1372
  744TIP3    H223724   4.914   2.552   0.149 -3.3768 -1.9359 -0.3119
  745TIP3   OH223725   0.803   3.950  12.328  0.4888 -0.4517  0.5915
  745TIP3    H123726   0.746   3.910  12.263  1.5712 -1.9801  0.5664
  745TIP3    H223727   0.749   3.957  12.407 -0.5463  0.5926 -0.1895
  746TIP3   OH223728   2.708   4.173  16.924  0.1232  0.4631  0.2764
  746TIP3    H123729   2.736   4.104  16.863 -0.6288  1.1727 -0.8896
  746TIP3    H223730   2.784   4.187  16.980  0.7947 -0.2795 -0.4256
  747TIP3   OH223731   6.035   3.352  12.887  0.0658 -0.5986 -0.0363
  747TIP3    H123732   6.075   3.293  12.823  4.9824  2.8604 -0.4257
  747TIP3    H223733   5.973   3.404  12.836  2.0649  0.3764 -1.5477
  748TIP3   OH223734   5.447   3.416  15.532 -0.3557  0.0339 -0.0438
  748TIP3    H123735   5.407   3.495  15.497  1.3530  0.8062 -0.3150
  748TIP3    H223736   5.387   3.387  15.600 -0.0198  2.7205  1.4720
  749TIP3   OH223737   1.138   4.393  16.243  0.6200 -0.4364 -0.1978
  749TIP3    H123738   1.055   4.399  16.196 -0.4053  0.2124  1.6580
  749TIP3    H223739   1.200   4.442  16.189 -0.3120 -0.4643 -1.3145
  750TIP3   OH223740   4.350   2.294  16.872  0.4695 -0.4938 -0.2210
  750TIP3    H123741   4.309   2.333  16.795  1.0952 -1.0808 -0.8446
  750TIP3    H223742   4.294   2.220  16.895 -1.4264  1.4106  1.7004
  751TIP3   OH223743   0.394   3.875   2.301  0.1726  0.3894 -0.4143
  751TIP3    H123744   0.377   3.832   2.217  0.9886  0.5075 -0.6389
  751TIP3    H223745   0.479   3.918   2.290  0.8251 -0.5224  0.8335
  752TIP3   OH223746   2.617   1.848   3.282 -0.4835 -0.1466 -0.1726
  752TIP3    H123747   2.637   1.936   3.248 -1.1712  0.0418 -0.1117
  752TIP3    H223748   2.682   1.791   3.242  0.8846  0.6166  0.9403
  753TIP3   OH223749   2.877   2.264  16.258 -0.0708 -0.0027  0.1067
  753TIP3    H123750   2.923   2.182  16.277  1.0291 -0.1070 -2.7074
  753TIP3    H223751   2.942   2.319  16.214 -1.7167  1.0735 -1.0861
  754TIP3   OH223752   1.634   3.610  16.769  0.4957  0.2024 -0.0207
  754TIP3    H123753   1.668   3.554  16.699 -1.0736  0.4960 -1.0622
  754TIP3    H223754   1.667   3.697  16.746 -0.4829  0.3958 -0.7324
  755TIP3   OH223755   2.558   0.503   3.691 -0.7338 -0.4443  0.1319
  755TIP3    H123756   2.553   0.430   3.753 -1.7120 -0.4044  0.1157
  755TIP3    H223757   2.650   0.528   3.690 -0.8137  0.0228  2.1189
  756TIP3   OH223758   5.787   1.822   1.210 -0.0004 -0.0786 -0.6145
  756TIP3    H123759   5.701   1.784   1.227 -0.8001  2.2776  0.9900
  756TIP3    H223760   5.841   1.791   1.282  0.2877 -0.9376 -1.1981
  757TIP3   OH223761   3.062   3.239  15.351  0.1345 -0.1404 -0.0412
  757TIP3    H123762   3.009   3.163  15.374 -0.8270  0.6605  0.4312
  757TIP3    H223763   3.057   3.243  15.255  0.7588 -1.0646 -0.1239
  758TIP3   OH223764   2.216   4.870   4.228 -0.2951 -0.1556 -0.5390
  758TIP3    H123765   2.175   4.817   4.160  2.0504 -2.9755  0.1189
  758TIP3    H223766   2.167   4.849   4.307  0.4122 -1.1431 -0.3471
  759TIP3   OH223767   6.381   4.269   3.496  0.2648  0.3770  0.5381
  759TIP3    H123768   6.459   4.319   3.520  0.7956  0.2465 -0.8620
  759TIP3    H223769   6.308   4.326   3.520  0.8197  0.9150  0.9571
  760TIP3   OH223770   0.300   5.049   0.184 -0.5299 -0.1429 -0.1253
  760TIP3    H123771   0.256   4.976   0.140 -0.8436  0.0851 -0.1920
  760TIP3    H223772   0.312   5.114   0.114 -1.7111  0.5331  0.2852
  761TIP3   OH223773   1.417   5.480   4.378 -0.1822 -0.5496 -0.7362
  761TIP3    H123774   1.463   5.563   4.363 -2.5318  1.3421  1.9604
  761TIP3    H223775   1.461   5.442   4.454  1.1785 -2.0179 -2.2458
  762TIP3   OH223776   0.047   2.044  13.065  0.2955  0.0136  0.1785
  762TIP3    H123777   0.098   2.031  12.985 -1.1145  0.1055 -0.7592
  762TIP3    H223778   0.036   1.956  13.101 -0.1340 -0.1872 -0.4249
  763TIP3   OH223779   0.719   0.574   3.639 -0.0474  0.3670 -0.8535
  763TIP3    H123780   0.766   0.640   3.689 -0.4957 -0.2171  0.3735
  763TIP3    H223781   0.642   0.619   3.605  0.2067  0.7439 -0.9263
  764TIP3   OH223782   1.252   1.130   4.850 -0.3204  0.0676  0.0463
  764TIP3    H123783   1.178   1.187   4.826  0.8689  0.9406 -1.6438
  764TIP3    H223784   1.330   1.182   4.830  0.7669 -0.7899  1.9605
  765TIP3   OH223785   6.117   1.629  10.968 -0.7135  0.2828  0.2510
  765TIP3    H123786   6.121   1.717  10.929  0.2140  1.1402  2.2445
  765TIP3    H223787   6.065   1.578  10.905  0.2782  1.7663 -1.8304
  766TIP3   OH223788   3.810   0.111  15.731  0.7451  0.1557  0.3605
  766TIP3    H123789   3.809   0.044  15.663  1.5196  0.7266 -0.2160
  766TIP3    H223790   3.897   0.149  15.726 -1.0027  4.2283 -2.3516
  767TIP3   OH223791   1.554   3.964   4.080  0.2087 -0.4993  0.6162
  767TIP3    H123792   1.547   4.023   4.006  0.1131 -0.2659  0.8106
  767TIP3    H223793   1.632   3.911   4.062 -0.0596 -0.7294  0.1463
  768TIP3   OH223794   5.560   4.440   0.353 -0.0942 -0.3881  0.2190
  768TIP3    H123795   5.556   4.535   0.366 -0.1100 -0.1749 -1.2276
  768TIP3    H223796   5.474   4.416   0.319 -0.2139 -0.9928  0.9222
  769TIP3   OH223797   1.623   3.090  17.170  0.0155 -0.3763  0.2761
  769TIP3    H123798   1.582   3.006  17.187  2.0683 -1.1665  1.4912
  769TIP3    H223799   1.709   3.085  17.213  0.9218  1.6385 -1.1787
  770TIP3   OH223800   2.740   6.590   2.081 -0.6365 -0.6575 -0.7612
  770TIP3    H123801   2.781   6.630   2.157 -3.0819  0.5755 -0.0386
  770TIP3    H223802   2.698   6.511   2.115 -0.4258 -0.9289 -1.1301
  771TIP3   OH223803   0.488   1.866  14.488 -0.3324 -0.8197 -0.4036
  771TIP3    H123804   0.584   1.867  14.492 -0.3706  0.6219  0.5606
  771TIP3    H223805   0.460   1.862  14.579 -1.2027 -2.1010 -0.7188
  772TIP3   OH223806   1.620   6.253  14.968  0.0891  0.0612  0.8153
  772TIP3    H123807   1.704   6.245  14.924  1.6740  3.4728  2.9880
  772TIP3    H223808   1.627   6.196  15.044 -0.1714 -0.8029  0.2025
  773TIP3   OH223809   4.671   4.459  11.852 -0.3061 -0.2554 -0.0292
  773TIP3    H123810   4.670   4.445  11.757  1.6929 -0.0625 -0.0893
  773TIP3    H223811   4.732   4.394  11.886 -1.3578 -0.6277  1.1929
  774TIP3   OH223812   1.354   0.650   3.666 -0.2994 -0.1582  0.0837
  774TIP3    H123813   1.322   0.560   3.655 -0.9911  0.1530 -0.4781
  774TIP3    H223814   1.278   0.704   3.647  0.4673  0.5867 -0.9051
  775TIP3   OH223815   1.674   1.635   2.265 -0.4374  0.8308 -0.6171
  775TIP3    H123816   1.681   1.552   2.312  0.3773  0.3695 -1.5350
  775TIP3    H223817   1.764   1.664   2.253 -0.7166  1.8615 -0.2946
  776TIP3   OH223818   2.366   0.825  17.143  0.2150 -0.2178  0.5785
  776TIP3    H123819   2.414   0.894  17.097  0.6893 -0.6968  0.3465
  776TIP3    H223820   2.320   0.870  17.213  0.5342  0.3350  0.4327
  777TIP3   OH223821   2.250   1.679  12.797  0.4962 -0.3101  0.2173
  777TIP3    H123822   2.214   1.721  12.876  0.8546 -1.1721  0.8436
  777TIP3    H223823   2.326   1.733  12.774 -0.8016  1.1676 -0.7597
  778TIP3   OH223824   5.877   5.214   2.725  0.4468 -0.0633 -0.2892
  778TIP3    H123825   5.861   5.279   2.657  0.7418  0.4972  0.1654
  778TIP3    H223826   5.954   5.247   2.772 -0.1499 -0.0960  0.7335
  779TIP3   OH223827   5.780   5.379  15.808 -0.4532  0.0331 -0.2678
  779TIP3    H123828   5.816   5.416  15.728  0.2840 -0.6693 -0.2678
  779TIP3    H223829   5.707   5.325  15.779  0.8619 -1.5705 -0.6360
  780TIP3   OH223830   1.344   6.455   0.222 -0.5506  0.6780  0.0788
  780TIP3    H123831   1.252   6.472   0.204 -0.5405  1.8156  1.0394
  780TIP3    H223832   1.383   6.542   0.234  1.0411  0.3202 -2.1408
  781TIP3   OH223833   5.469   1.289   2.295  0.3002 -0.0335  0.0009
  781TIP3    H123834   5.537   1.286   2.228 -0.0664 -2.0866 -0.3153
  781TIP3    H223835   5.451   1.197   2.315 -4.0959  0.3304 -1.7096
  782TIP3   OH223836   2.987   5.255  16.535 -0.5652  0.0034 -1.1450
  782TIP3    H123837   2.903   5.218  16.562  0.5429 -1.0914  0.9330
  782TIP3    H223838   3.013   5.311  16.609  0.9211 -0.3051 -1.4175
  783TIP3   OH223839   2.757   5.866   0.829 -0.5232 -0.3882  0.6372
  783TIP3    H123840   2.720   5.944   0.871 -2.5042 -0.4388 -0.9653
  783TIP3    H223841   2.710   5.793   0.868  1.0100 -0.7839  1.7946
  784TIP3   OH223842   6.570   0.339  12.061 -0.7383 -0.4734  0.2170
  784TIP3    H123843   6.523   0.397  12.001 -0.9644 -1.7127 -0.8175
  784TIP3    H223844   6.657   0.378  12.069 -0.7832 -0.1688 -0.7324
  785TIP3   OH223845   1.819   1.214   4.380  0.0969  0.2870 -0.1134
  785TIP3    H123846   1.904   1.178   4.354  0.0291  1.1162 -1.5622
  785TIP3    H223847   1.756   1.170   4.323 -0.3055  0.5916  0.0960
  786TIP3   OH223848   5.724   1.895  14.555  0.4849  0.1621 -0.1023
  786TIP3    H123849   5.645   1.925  14.510  0.1459 -0.6605 -0.0607
  786TIP3    H223850   5.795   1.946  14.516  0.0609  0.2062 -0.8228
  787TIP3   OH223851   3.737   5.125  16.272 -0.1808 -0.9492 -0.1864
  787TIP3    H123852   3.713   5.036  16.246 -1.3761 -1.1999  1.6876
  787TIP3    H223853   3.710   5.131  16.364 -1.8265  1.9705 -0.8175
  788TIP3   OH223854   4.295   1.148  12.455  0.1968 -0.4751 -0.4355
  788TIP3    H123855   4.369   1.125  12.399  0.9258  0.3718  0.1718
  788TIP3    H223856   4.318   1.112  12.541  0.9608  1.7081  0.3162
  789TIP3   OH223857   0.270   4.713  14.638  0.0201 -0.1001  0.7391
  789TIP3    H123858   0.276   4.699  14.733  2.4820 -1.7128  0.4033
  789TIP3    H223859   0.359   4.736  14.612  0.3396 -3.7476 -1.7329
  790TIP3   OH223860   2.515   1.701  13.075 -0.7021  0.3580 -0.1838
  790TIP3    H123861   2.582   1.747  13.024 -1.3708  1.4690 -0.0744
  790TIP3    H223862   2.432   1.735  13.042 -1.1858 -0.3389  0.3103
  791TIP3   OH223863   5.343   3.676  12.373 -0.2123 -0.0375 -0.1304
  791TIP3    H123864   5.344   3.746  12.438  3.1483  0.2446 -0.4422
  791TIP3    H223865   5.340   3.722  12.288 -1.5256 -0.3661 -0.2813
  792TIP3   OH223866   5.188   2.592   1.677 -0.6488 -0.0213  0.1222
  792TIP3    H123867   5.122   2.629   1.735  0.6801  0.9987  0.9998
  792TIP3    H223868   5.142   2.580   1.594 -2.0431  0.3084  0.8203
  793TIP3   OH223869   1.644   1.992  13.356 -0.4316 -0.0944  0.2002
  793TIP3    H123870   1.730   2.033  13.366  0.2927 -1.5416 -0.0002
  793TIP3    H223871   1.660   1.914  13.302 -2.0781  0.2990 -0.8917
  794TIP3   OH223872   0.278   4.543   5.182 -0.1200  0.6993  0.3616
  794TIP3    H123873   0.259   4.548   5.275  1.4097  1.7710  0.6439
  794TIP3    H223874   0.296   4.450   5.166  1.0300  0.7157  1.4491
  795TIP3   OH223875   4.038   6.801   2.339 -0.1229 -0.3802 -0.1307
  795TIP3    H123876   4.114   6.799   2.397  1.1798  0.2338 -1.7749
  795TIP3    H223877   4.006   6.891   2.345  0.9357  0.1017 -1.5057
  796TIP3   OH223878   3.656   4.243  15.039 -0.3750  0.3159 -0.1785
  796TIP3    H123879   3.626   4.168  15.091  0.2906 -0.6010 -1.1046
  796TIP3    H223880   3.675   4.310  15.104 -0.2326 -0.5818  0.7330
  797TIP3   OH223881   0.108   3.438   5.369  0.2378 -0.8080  0.2918
  797TIP3    H123882   0.053   3.393   5.433 -0.0270 -1.7704 -0.5904
  797TIP3    H223883   0.188   3.460   5.417 -0.2881 -0.7758  1.1689
  798TIP3   OH223884   4.849   2.067  17.287 -0.2767 -0.3128 -0.1588
  798TIP3    H123885   4.761   2.105  17.290  0.7983  2.2849  0.2954
  798TIP3    H223886   4.853   2.009  17.363 -2.1122 -1.6919 -1.0907
  799TIP3   OH223887   5.386   2.059   5.813  0.0923  0.2100 -0.0253
  799TIP3    H123888   5.351   2.069   5.902  1.7768  0.9788  0.5927
  799TIP3    H223889   5.472   2.019   5.827  0.3006  0.2048 -1.3339
  800TIP3   OH223890   3.065   5.392  13.307 -0.7097 -0.4122 -0.2573
  800TIP3    H123891   3.006   5.458  13.345  0.2348 -0.0185  0.5381
  800TIP3    H223892   3.048   5.396  13.213 -0.5188  1.1133 -0.2390
  801TIP3   OH223893   4.776   3.173  13.146  0.9660  0.0231  0.0854
  801TIP3    H123894   4.725   3.097  13.174 -0.4668  0.7128 -0.5935
  801TIP3    H223895   4.800   3.153  13.056  0.8415  0.2464  0.0048
  802TIP3   OH223896   1.672   2.379   5.853  0.2783  0.5883 -0.5716
  802TIP3    H123897   1.682   2.387   5.758  0.9733 -0.6072 -0.6091
  802TIP3    H223898   1.723   2.451   5.889  0.1697  0.9325 -1.1015
  803TIP3   OH223899   1.630   4.424  15.159 -0.4612  0.0192 -0.8924
  803TIP3    H123900   1.614   4.336  15.124  1.8163 -0.1255 -1.7026
  803TIP3    H223901   1.546   4.451  15.196 -1.7699 -1.6418 -2.5215
  804TIP3   OH223902   2.600   6.758  15.579  0.4013  0.6576  0.6211
  804TIP3    H123903   2.553   6.833  15.543  0.4325  0.0374 -0.7751
  804TIP3    H223904   2.533   6.690  15.588  0.9891 -0.1957 -1.2833
  805TIP3   OH223905   0.950   4.348   4.818 -0.1421 -0.1135 -1.0760
  805TIP3    H123906   0.975   4.408   4.888 -0.4774 -0.6659 -0.4783
  805TIP3    H223907   0.972   4.261   4.853  1.2957 -0.2772 -2.3248
  806TIP3   OH223908   3.009   3.763   5.319 -0.1202  0.1701  0.2826
  806TIP3    H123909   3.092   3.811   5.319 -0.1514  0.2418 -0.5975
  806TIP3    H223910   3.028   3.682   5.367  1.2685 -1.1259 -2.3177
  807TIP3   OH223911   4.421   6.559  14.614 -0.0375 -0.0257  0.5073
  807TIP3    H123912   4.374   6.600  14.686 -0.3136 -0.1412  0.3916
  807TIP3    H223913   4.386   6.471  14.609 -0.9588  0.3871 -0.6058
  808TIP3   OH223914   1.093   4.366   1.214 -0.6568 -0.8122 -0.4399
  808TIP3    H123915   1.040   4.398   1.287 -0.8463 -0.2130 -0.8397
  808TIP3    H223916   1.120   4.278   1.241 -0.4656 -0.4696  0.4834
  809TIP3   OH223917   6.051   6.806  11.059  0.2189 -0.1145 -0.8847
  809TIP3    H123918   6.124   6.748  11.035  0.4339  0.3194 -1.2909
  809TIP3    H223919   5.999   6.812  10.980  1.6130  2.3419 -1.6656
  810TIP3   OH223920   2.972   5.890  17.143  0.4946 -0.4736  0.0993
  810TIP3    H123921   3.064   5.901  17.120  0.2993 -2.0023 -1.5401
  810TIP3    H223922   2.958   5.795  17.143 -0.8974 -0.2830  1.0692
  811TIP3   OH223923   3.312   2.522  11.775 -0.4326  0.1510  0.1265
  811TIP3    H123924   3.240   2.581  11.799 -1.3637 -0.9189  0.0342
  811TIP3    H223925   3.326   2.468  11.853 -2.4692 -2.3354 -1.1117
  812TIP3   OH223926   2.998   2.943  10.542  0.0331  0.5534  0.0867
  812TIP3    H123927   3.044   2.859  10.541  0.8936  1.0092  1.1811
  812TIP3    H223928   2.925   2.930  10.602 -0.3216  0.3413 -0.3831
  813TIP3   OH223929   3.128   0.840  12.595  0.3273  0.0195 -0.4299
  813TIP3    H123930   3.041   0.830  12.555  0.2907 -2.2050  0.1563
  813TIP3    H223931   3.186   0.856  12.521 -0.3140 -0.3071 -1.0098
  814TIP3   OH223932   4.302   6.459   4.732  0.2804  0.1150 -0.1979
  814TIP3    H123933   4.266   6.530   4.680 -0.7893 -0.3684 -0.1258
  814TIP3    H223934   4.347   6.403   4.669  2.2867  1.5436 -0.0821
  815TIP3   OH223935   6.043   5.670  13.655  0.8684  0.0050  0.4470
  815TIP3    H123936   5.972   5.733  13.642 -2.0220 -2.6323  2.7138
  815TIP3    H223937   6.056   5.667  13.750  0.0222 -3.6979  0.5288
  816TIP3   OH223938   3.882   5.645  10.677  0.0745 -0.2513 -0.0394
  816TIP3    H123939   3.833   5.589  10.737 -0.5850  0.1032 -0.2404
  816TIP3    H223940   3.814   5.690  10.626  0.5772  1.2933  0.6327
  817TIP3   OH223941   2.099   5.378  16.029  0.0401  0.0709 -0.1806
  817TIP3    H123942   2.088   5.397  15.936  2.7594  2.2816 -0.1036
  817TIP3    H223943   2.050   5.296  16.043 -2.7803  1.2088 -2.9110
  818TIP3   OH223944   5.760   6.031   2.591 -0.3131  0.0782  0.1287
  818TIP3    H123945   5.731   6.080   2.514  1.3107  1.4855  0.3809
  818TIP3    H223946   5.848   6.000   2.568 -0.1333 -0.1699  1.1262
  819TIP3   OH223947   2.338   6.658  11.844 -0.5858  0.3765 -0.1956
  819TIP3    H123948   2.402   6.657  11.772  2.6073  0.8951  2.5109
  819TIP3    H223949   2.347   6.745  11.882 -0.9862 -0.4771  1.8851
  820TIP3   OH223950   0.094   0.166   4.867  0.3345 -0.2214  0.2182
  820TIP3    H123951   0.176   0.185   4.819  0.2901  0.8942  0.5620
  820TIP3    H223952   0.052   0.252   4.876  0.4643 -0.3866  2.4850
  821TIP3   OH223953   4.455   4.943  11.418  0.3475 -0.3574  0.4463
  821TIP3    H123954   4.364   4.914  11.417  0.5486 -1.0215  0.8966
  821TIP3    H223955   4.460   5.003  11.492  0.3729 -0.6561  0.6879
  822TIP3   OH223956   3.516   0.248   0.004  0.3856  0.0222 -0.2762
  822TIP3    H123957   3.521   0.156  -0.022 -0.1604  0.2254 -1.0972
  822TIP3    H223958   3.597   0.287  -0.032  0.5524 -0.1082 -0.0419
  823TIP3   OH223959   4.706   3.826   5.911 -0.2241  0.0847 -0.3402
  823TIP3    H123960   4.689   3.776   5.831 -2.2701  1.4458 -0.8066
  823TIP3    H223961   4.670   3.772   5.982 -0.4762 -0.0748 -0.5931
  824TIP3   OH223962   0.516   3.312  12.218 -0.3506  0.3109  0.2070
  824TIP3    H123963   0.428   3.343  12.237 -0.1299  0.8276  0.3770
  824TIP3    H223964   0.515   3.220  12.246 -0.8472  0.3021  0.1598
  825TIP3   OH223965   4.547   1.078  12.271 -0.1935 -0.1157  0.5507
  825TIP3    H123966   4.510   0.997  12.305  1.6625 -0.3618  2.0975
  825TIP3    H223967   4.602   1.110  12.342  1.1206  1.1535 -1.0093
  826TIP3   OH223968   3.087   5.590  16.560 -0.5207  0.1705  0.2489
  826TIP3    H123969   3.182   5.581  16.570 -0.0510  2.1304 -1.9519
  826TIP3    H223970   3.052   5.571  16.647  1.9554  0.3810  1.3423
  827TIP3   OH223971   5.316   1.016  12.134  0.1111 -0.0999  0.9250
  827TIP3    H123972   5.364   0.960  12.073 -0.5465 -1.3370  1.5214
  827TIP3    H223973   5.348   1.104  12.116 -2.2959  0.0159 -3.3422
  828TIP3   OH223974   4.464   2.474   1.146 -0.4465 -0.6611 -0.2719
  828TIP3    H123975   4.487   2.565   1.165 -2.5318  0.1399 -1.4438
  828TIP3    H223976   4.537   2.441   1.094 -0.9640  1.2273 -2.2412
  829TIP3   OH223977   0.202   4.060  12.046 -0.1154  0.4957  0.0398
  829TIP3    H123978   0.168   4.101  11.966  0.9240 -0.8325 -1.1118
  829TIP3    H223979   0.192   3.966  12.031  2.5594  0.1167  0.3082
  830TIP3   OH223980   2.078   2.526   3.504  0.3562  0.1133 -0.1772
  830TIP3    H123981   2.005   2.512   3.564  0.2758  1.8502  0.1670
  830TIP3    H223982   2.056   2.474   3.427 -0.8332 -0.0383  0.2492
  831TIP3   OH223983   5.931   4.294   3.405 -0.1399  0.6252 -0.2345
  831TIP3    H123984   5.956   4.241   3.330 -1.3863 -0.1249 -0.1302
  831TIP3    H223985   6.009   4.347   3.424  0.6198 -0.1169 -1.2340
  832TIP3   OH223986   0.434   1.198  13.152  0.2474 -0.8511 -0.3116
  832TIP3    H123987   0.459   1.156  13.234 -1.2860  1.8920  1.6359
  832TIP3    H223988   0.343   1.173  13.138 -0.2406  0.6152  0.1260
  833TIP3   OH223989   5.575   0.164   2.065 -0.5319 -0.4075  0.1693
  833TIP3    H123990   5.531   0.160   1.980 -1.4181 -2.9591  0.7268
  833TIP3    H223991   5.505   0.164   2.130  0.2095 -2.1817  1.0020
  834TIP3   OH223992   6.542   3.672  12.520  0.4143 -0.7521  0.6690
  834TIP3    H123993   6.600   3.596  12.518  1.9781  0.4051  0.3704
  834TIP3    H223994   6.581   3.733  12.457 -2.0645 -0.5805 -0.7231
  835TIP3   OH223995   4.191   5.565   0.686 -0.4106  0.0337  0.0018
  835TIP3    H123996   4.105   5.526   0.669  0.4353 -2.4617  1.1529
  835TIP3    H223997   4.182   5.606   0.772 -0.6901  0.5542 -0.2714
  836TIP3   OH223998   1.664   4.877  10.627 -0.4091 -0.2208  0.0357
  836TIP3    H123999   1.588   4.838  10.670  0.2565  0.2864  1.7032
  836TIP3    H224000   1.722   4.803  10.609 -0.3606 -0.3459  0.6979
  837TIP3   OH224001   3.027   4.606   3.405 -0.0377 -0.0960  0.6912
  837TIP3    H124002   3.049   4.641   3.319 -0.7170  1.2093  1.0299
  837TIP3    H224003   3.049   4.677   3.466  0.7639 -1.1338  1.6233
  838TIP3   OH224004   2.029   4.721   1.052 -0.1287 -0.5173  0.1997
  838TIP3    H124005   1.942   4.762   1.051  0.8678  1.7818  2.4107
  838TIP3    H224006   2.078   4.766   0.983 -0.3863 -1.1239 -0.3816
  839TIP3   OH224007   5.425   5.058   5.523  0.3128  0.0514 -0.1155
  839TIP3    H124008   5.515   5.043   5.552  0.7601  1.9387 -0.4497
  839TIP3    H224009   5.429   5.052   5.428 -0.2226 -1.3823 -0.0524
  840TIP3   OH224010   3.165   2.570  12.998  0.0961  0.6333 -0.5059
  840TIP3    H124011   3.101   2.544  13.065  0.6854 -1.8713 -0.8737
  840TIP3    H224012   3.122   2.550  12.915  0.8288  0.1817 -0.7798
  841TIP3   OH224013   5.552   1.954  12.499 -0.2350  0.6147 -0.0688
  841TIP3    H124014   5.627   1.906  12.464 -0.0111  1.7747 -1.2416
  841TIP3    H224015   5.554   1.937  12.593 -0.0360 -1.4518 -0.4359
  842TIP3   OH224016   3.579   6.291  11.128  0.2806 -0.0653  0.2886
  842TIP3    H124017   3.627   6.281  11.211 -0.8045 -2.4848  0.6842
  842TIP3    H224018   3.493   6.322  11.154 -0.5438 -2.2287  0.2463
  843TIP3   OH224019   0.269   5.573   0.206  0.0642  0.1508  0.0827
  843TIP3    H124020   0.340   5.601   0.148  1.1077  1.0316  1.7214
  843TIP3    H224021   0.262   5.644   0.270 -3.3034  0.7599 -0.8984
  844TIP3   OH224022   2.580   3.463  16.589 -0.1720 -0.1043  0.3097
  844TIP3    H124023   2.551   3.553  16.605 -0.1478 -0.0197 -0.1128
  844TIP3    H224024   2.674   3.464  16.607 -0.3089 -0.2200  1.0254
  845TIP3   OH224025   0.855   5.063   2.743  0.1567 -0.3972 -0.0426
  845TIP3    H124026   0.943   5.074   2.780  0.0366  2.5938 -0.5648
  845TIP3    H224027   0.866   5.077   2.649 -0.6448 -1.5476 -0.3219
  846TIP3   OH224028   2.133   0.233   3.448  0.3274  0.9405  0.6457
  846TIP3    H124029   2.178   0.209   3.529 -0.0336 -0.8414  0.3352
  846TIP3    H224030   2.045   0.197   3.457  0.4087  0.3550 -0.7122
  847TIP3   OH224031   3.492   1.228   0.174  0.3797  0.1134 -0.1367
  847TIP3    H124032   3.412   1.278   0.156  0.9546  0.8730 -0.5948
  847TIP3    H224033   3.461   1.140   0.192 -0.6167  0.5434  0.2844
  848TIP3   OH224034   5.425   1.514  12.034 -0.2661 -0.1650 -0.9636
  848TIP3    H124035   5.332   1.525  12.014 -0.7560 -1.2208  0.6541
  848TIP3    H224036   5.441   1.573  12.108  0.0837 -0.8332 -0.5027
  849TIP3   OH224037   4.861   2.636   5.247 -0.3631 -0.5118 -0.6391
  849TIP3    H124038   4.830   2.689   5.173 -0.7238 -0.5961 -0.5488
  849TIP3    H224039   4.782   2.620   5.299  0.3532  1.9648  1.3040
  850TIP3   OH224040   3.064   4.902  11.703 -0.0962 -0.1099  0.2748
  850TIP3    H124041   3.043   4.943  11.787 -1.7225  1.3596 -0.8071
  850TIP3    H224042   3.152   4.932  11.682  0.4345 -0.7383  1.6048
  851TIP3   OH224043   6.660   4.231  16.577  0.0494 -0.4852  0.1608
  851TIP3    H124044   6.633   4.154  16.628 -0.1426 -0.0800  0.6748
  851TIP3    H224045   6.716   4.196  16.508 -0.6510 -1.1832 -0.0653
  852TIP3   OH224046   2.950   6.236  15.288 -0.1616 -0.6638  0.4177
  852TIP3    H124047   3.026   6.255  15.233  0.8577 -2.1991  1.2518
  852TIP3    H224048   2.890   6.188  15.232 -0.1078 -0.2560  0.0123
  853TIP3   OH224049   5.531   6.161  11.767  0.1678 -0.1394 -0.3727
  853TIP3    H124050   5.459   6.099  11.757  0.6217 -0.7368  0.0117
  853TIP3    H224051   5.516   6.227  11.700  0.4246 -1.3879 -1.6717
  854TIP3   OH224052   5.011   1.919   5.181 -0.1986  0.6125  0.3962
  854TIP3    H124053   4.953   1.932   5.256 -0.4707 -1.1654  0.5234
  854TIP3    H224054   5.073   1.852   5.211  0.4094  0.7319 -0.5720
  855TIP3   OH224055   1.041   5.575  14.459  0.4379 -0.2654 -0.1796
  855TIP3    H124056   0.951   5.543  14.461  0.1453  0.6470  1.8892
  855TIP3    H224057   1.049   5.619  14.374 -0.8918 -0.8260 -0.5989
  856TIP3   OH224058   4.833   2.276  13.145 -0.0289  0.2684 -0.9318
  856TIP3    H124059   4.762   2.337  13.124  0.3724  0.0099 -3.1231
  856TIP3    H224060   4.792   2.211  13.202 -0.3341  2.8271  1.8988
  857TIP3   OH224061   6.219   2.353  10.937  0.0840  0.7382 -0.2742
  857TIP3    H124062   6.220   2.272  10.886  0.3372  0.2322  0.5250
  857TIP3    H224063   6.300   2.351  10.987 -0.5571  0.8163  0.7934
  858TIP3   OH224064   4.152   3.144   4.433  0.1106 -0.0656 -0.0692
  858TIP3    H124065   4.091   3.104   4.495  0.6472 -0.1999  0.3778
  858TIP3    H224066   4.198   3.070   4.394 -0.9138 -0.0294 -1.3432
  859TIP3   OH224067   3.923   5.395  11.227 -0.2743  0.1396  0.0256
  859TIP3    H124068   3.846   5.429  11.181  0.0848 -1.0588 -1.5018
  859TIP3    H224069   3.990   5.462  11.212 -0.6974  0.6487  0.3938
  860TIP3   OH224070   4.283   4.288   4.120 -0.0703  0.6441  0.0487
  860TIP3    H124071   4.272   4.193   4.121  0.6255  0.5537  1.7763
  860TIP3    H224072   4.310   4.308   4.030 -0.0256 -0.8135 -0.2821
  861TIP3   OH224073   5.816   5.759  10.954  0.4601  0.2437 -0.1258
  861TIP3    H124074   5.749   5.790  11.015  0.3544 -1.0806  0.4412
  861TIP3    H224075   5.784   5.675  10.923  0.1475  1.2367 -2.6319
  862TIP3   OH224076   3.986   5.922  14.101  0.0478 -0.2413  0.1986
  862TIP3    H124077   3.900   5.883  14.085 -1.4569  1.8791  2.6618
  862TIP3    H224078   3.967   6.006  14.143  3.2443  1.8169 -2.1960
  863TIP3   OH224079   5.294   4.022   4.766  0.2657 -0.1499 -0.5064
  863TIP3    H124080   5.335   3.954   4.712  0.1944  0.0537 -0.8225
  863TIP3    H224081   5.268   4.089   4.703  2.5108  1.2975  0.0860
  864TIP3   OH224082   4.815   0.669   0.766 -0.0392 -0.1722 -0.1391
  864TIP3    H124083   4.783   0.684   0.677  0.5101 -0.0244 -0.3142
  864TIP3    H224084   4.846   0.579   0.766  0.9133  0.1479 -0.3938
  865TIP3   OH224085   0.611   0.135   0.727  0.5089  0.3211  0.0861
  865TIP3    H124086   0.701   0.166   0.740 -0.1345  2.3352 -0.1630
  865TIP3    H224087   0.568   0.152   0.811 -0.8986  3.8450 -1.2664
  866TIP3   OH224088   4.422   6.071  16.361 -0.0210  0.0042 -0.1162
  866TIP3    H124089   4.349   6.010  16.358 -0.3446  0.4288 -1.0579
  866TIP3    H224090   4.491   6.028  16.311  0.5289 -0.5844  1.1283
  867TIP3   OH224091   0.017   2.653   4.829 -0.4239 -0.5964  0.2739
  867TIP3    H124092   0.065   2.730   4.860 -0.3360 -1.0713  1.3576
  867TIP3    H224093  -0.005   2.673   4.738  0.5246  0.2532  0.2225
  868TIP3   OH224094   1.133   6.126   0.852 -0.4457 -0.2763 -0.0825
  868TIP3    H124095   1.224   6.135   0.822 -0.2987 -0.7526  0.2101
  868TIP3    H224096   1.119   6.032   0.859 -1.1338 -0.2202 -0.6179
  869TIP3   OH224097   1.041   1.021   0.774 -0.0681 -0.3019 -0.0805
  869TIP3    H124098   0.991   1.098   0.746  1.2470  0.5541 -0.1226
  869TIP3    H224099   1.080   1.047   0.857  3.1800  0.3580 -1.7421
  870TIP3   OH224100   3.043   3.517  17.075 -0.3111 -0.2005 -0.0700
  870TIP3    H124101   3.079   3.555  17.155 -1.0893  0.2187  0.0820
  870TIP3    H224102   3.042   3.422  17.092 -1.9168 -0.0105  1.0374
  871TIP3   OH224103   3.556   5.822  14.345  0.3919  0.3339 -0.4567
  871TIP3    H124104   3.498   5.845  14.418  1.8763  0.5357  0.6831
  871TIP3    H224105   3.550   5.727  14.339  0.4034  0.2989  0.0537
  872TIP3   OH224106   4.090   6.192   5.436  0.6337 -0.1682  0.1074
  872TIP3    H124107   4.170   6.210   5.487 -0.3730 -0.9009  2.0003
  872TIP3    H224108   4.060   6.107   5.469  0.0445 -0.7537 -1.8720
  873TIP3   OH224109   0.461   4.222  11.873  0.0649 -0.1062  0.3706
  873TIP3    H124110   0.405   4.146  11.855  0.2049 -1.0830  3.6892
  873TIP3    H224111   0.405   4.284  11.919  0.0951  1.6299 -1.8685
  874TIP3   OH224112   5.576   5.203  15.686 -0.4800 -0.4024 -0.6568
  874TIP3    H124113   5.603   5.154  15.764  1.2486  2.2907  0.5112
  874TIP3    H224114   5.485   5.176  15.672 -1.0500 -0.5188  2.6729
  875TIP3   OH224115   5.838   4.529   4.395  0.2283 -0.1364  0.1782
  875TIP3    H124116   5.904   4.480   4.347  0.3311  0.7059 -0.5582
  875TIP3    H224117   5.809   4.470   4.465 -1.0534 -1.9829 -1.8501
  876TIP3   OH224118   4.230   2.866  12.204  0.3662  0.2519  0.3463
  876TIP3    H124119   4.192   2.778  12.194 -0.2184  0.6066 -0.7367
  876TIP3    H224120   4.251   2.893  12.114  1.1345  0.9640  0.7328
  877TIP3   OH224121   3.885   0.885   2.067 -0.0343 -0.2408 -0.3032
  877TIP3    H124122   3.976   0.870   2.042  1.1107  0.6974  3.0218
  877TIP3    H224123   3.864   0.815   2.128 -0.0874  1.9530  2.2911
  878TIP3   OH224124   4.862   2.963   0.990  0.3391  0.4296  0.2753
  878TIP3    H124125   4.900   2.903   1.054  0.5777 -0.6930 -0.8986
  878TIP3    H224126   4.838   3.040   1.041 -1.3475 -1.2406  2.0793
  879TIP3   OH224127   0.638   5.164   2.951  0.6385 -0.3935  0.4576
  879TIP3    H124128   0.717   5.144   2.901  0.9213  0.0619  0.7140
  879TIP3    H224129   0.623   5.087   3.006  0.2295 -0.9641 -0.4453
  880TIP3   OH224130   5.003   2.518  14.422 -0.1578  0.3377  0.6410
  880TIP3    H124131   4.916   2.546  14.393 -0.4409  1.8109  2.7763
  880TIP3    H224132   4.994   2.425  14.440 -1.2194  0.4208  0.5436
  881TIP3   OH224133   5.404   2.387  10.962  0.3616  0.1440 -0.5214
  881TIP3    H124134   5.416   2.360  10.871 -0.1293  0.1124 -0.5735
  881TIP3    H224135   5.487   2.430  10.985 -0.1609  1.7645 -1.5547
  882TIP3   OH224136   1.998   1.720   0.632 -0.2278 -0.3845  0.3267
  882TIP3    H124137   2.083   1.680   0.649  0.4200  0.2609 -1.3327
  882TIP3    H224138   2.004   1.807   0.671  0.2899  0.0907 -0.8077
  883TIP3   OH224139   5.977   4.264   2.130 -0.2223  0.1086  0.1811
  883TIP3    H124140   6.050   4.203   2.127 -0.8201 -0.5588 -1.0674
  883TIP3    H224141   5.944   4.258   2.219  2.1605  1.5287  1.2223
  884TIP3   OH224142   4.603   5.704   1.096  0.5828 -0.3432 -0.1884
  884TIP3    H124143   4.662   5.707   1.021 -0.8169 -0.6058 -1.3163
  884TIP3    H224144   4.531   5.647   1.068 -0.2212 -0.0043  1.1486
  885TIP3   OH224145   0.174   3.349  11.611 -0.7160 -0.5866  0.0902
  885TIP3    H124146   0.270   3.354  11.615 -0.8720  0.6876  4.5513
  885TIP3    H224147   0.148   3.424  11.559  0.5972  1.0229  1.6990
  886TIP3   OH224148   6.108   5.893   2.119 -0.2536  0.6615 -0.3836
  886TIP3    H124149   6.090   5.984   2.143 -2.4860 -0.0423  0.7931
  886TIP3    H224150   6.035   5.869   2.062 -0.4950 -0.8319  0.5375
  887TIP3   OH224151   5.120   4.323   3.347  0.5228 -0.8809  0.1159
  887TIP3    H124152   5.065   4.342   3.423  1.4513 -1.9853  1.0746
  887TIP3    H224153   5.142   4.230   3.355  1.4903 -0.7633 -0.9445
  888TIP3   OH224154   5.118   1.698   4.586  0.1061 -0.2049 -0.5014
  888TIP3    H124155   5.184   1.672   4.521  1.4314 -1.7238  1.3924
  888TIP3    H224156   5.139   1.646   4.664 -1.9730  0.9452  0.8817
  889TIP3   OH224157   4.511   2.777   4.464 -0.2344  0.2393  0.3375
  889TIP3    H124158   4.523   2.683   4.456 -0.8785  0.1766  0.0510
  889TIP3    H224159   4.599   2.813   4.463 -0.0567 -0.1954 -1.8370
  890TIP3   OH224160   3.297   1.751   2.587 -0.0925 -0.0247  0.6058
  890TIP3    H124161   3.288   1.710   2.673  2.0794 -0.4320  0.6726
  890TIP3    H224162   3.359   1.695   2.540  0.4955  1.4382 -0.3989
  891TIP3   OH224163   1.211   2.037   0.459 -0.0933  0.1398  0.2290
  891TIP3    H124164   1.300   2.063   0.485  0.5568 -0.0805 -1.7074
  891TIP3    H224165   1.170   2.118   0.430 -0.1552  0.0557  0.0818
  892TIP3   OH224166   2.643   2.736   5.205 -0.1876 -0.0211 -0.7260
  892TIP3    H124167   2.568   2.685   5.174 -1.2020  1.4730 -0.7783
  892TIP3    H224168   2.651   2.808   5.143  1.0155  0.0924 -0.4535
  893TIP3   OH224169   4.231   3.681   3.040  0.1761 -0.2661  0.4971
  893TIP3    H124170   4.257   3.732   2.963  0.8241  1.0749  1.5804
  893TIP3    H224171   4.141   3.708   3.058  0.2603 -0.0719  0.6218
  894TIP3   OH224172   1.667   3.607  12.714  0.4234 -0.0212 -0.1056
  894TIP3    H124173   1.615   3.544  12.663  1.4552 -1.6573  0.8030
  894TIP3    H224174   1.726   3.647  12.650 -1.3327  1.2291 -0.9933
  895TIP3   OH224175   4.515   1.602   0.338  0.5245 -0.2463  0.3324
  895TIP3    H124176   4.527   1.652   0.418  2.6340  0.7497 -0.5861
  895TIP3    H224177   4.434   1.636   0.299  0.2011  0.1546  1.3667
  896TIP3   OH224178   0.314   2.259  14.911 -0.1836 -0.3991  0.1206
  896TIP3    H124179   0.228   2.255  14.951 -0.5785 -0.4647 -0.7204
  896TIP3    H224180   0.353   2.340  14.944 -1.0765  0.2902 -0.4934
  897TIP3   OH224181   0.182   0.694   1.575  0.0310  0.4232  0.1548
  897TIP3    H124182   0.254   0.756   1.562  1.7856 -1.7077 -0.5920
  897TIP3    H224183   0.216   0.610   1.542 -2.6154 -0.7396  0.2678
  898TIP3   OH224184   1.824   0.970   3.859 -0.3846 -0.1519 -0.2095
  898TIP3    H124185   1.902   0.984   3.806 -0.6967  0.5794 -0.4880
  898TIP3    H224186   1.788   0.887   3.827 -0.5435  0.2602 -1.1099
  899TIP3   OH224187   6.016   3.359  13.218  0.5141  0.4123  0.1909
  899TIP3    H124188   6.020   3.335  13.125  1.9311  2.1888 -0.2334
  899TIP3    H224189   5.929   3.330  13.246  0.7296 -1.7004 -1.2357
  900TIP3   OH224190   1.594   3.448  10.502  0.4305  0.6014  0.2583
  900TIP3    H124191   1.628   3.538  10.509 -1.7565  1.3807  1.4042
  900TIP3    H224192   1.499   3.459  10.502  0.1431 -1.6957 -0.2727
  901TIP3   OH224193   0.798   3.850  16.119 -0.3815  0.2340 -0.1635
  901TIP3    H124194   0.747   3.920  16.078  1.5755  0.9784 -1.3886
  901TIP3    H224195   0.814   3.880  16.208 -0.3213  0.9270 -0.4095
  902TIP3   OH224196   5.497   1.964   1.206 -0.1014 -0.1904  0.1232
  902TIP3    H124197   5.468   2.005   1.288  0.4838 -1.2871  0.9014
  902TIP3    H224198   5.523   1.876   1.232 -0.9547 -0.9180 -1.4521
  903TIP3   OH224199   0.626   3.581   2.361 -0.0929 -0.0727 -0.4092
  903TIP3    H124200   0.621   3.498   2.313  2.6474 -0.8686  0.5462
  903TIP3    H224201   0.665   3.642   2.300 -2.4799  0.6692 -1.2464
  904TIP3   OH224202   3.389   6.819   3.621  0.3103  0.1337  0.0670
  904TIP3    H124203   3.329   6.772   3.678  1.9825 -1.3057  0.6713
  904TIP3    H224204   3.443   6.872   3.681  0.3014  0.6711 -0.3914
  905TIP3   OH224205   3.933   5.646   2.638 -0.7877  0.2312 -0.0277
  905TIP3    H124206   3.937   5.565   2.689 -2.5972 -0.5192 -1.0183
  905TIP3    H224207   4.025   5.670   2.624 -0.2171 -1.6588  0.2791
  906TIP3   OH224208   2.146   6.700  11.590 -0.2332 -0.4902  1.1693
  906TIP3    H124209   2.206   6.672  11.660  0.1748  1.4813  1.6506
  906TIP3    H224210   2.116   6.787  11.618  0.0280  0.3752 -1.1626
  907TIP3   OH224211   3.059   0.875  10.921 -0.0397  0.5104 -0.0146
  907TIP3    H124212   3.100   0.955  10.888  3.5196 -1.4609 -0.6140
  907TIP3    H224213   3.117   0.847  10.992 -1.0494 -1.7241 -0.0536
  908TIP3   OH224214   6.359   1.220   1.716  0.2847 -0.2469 -0.1104
  908TIP3    H124215   6.368   1.193   1.807  0.0204 -0.7772 -0.2409
  908TIP3    H224216   6.440   1.267   1.697  0.3583 -0.1705  0.3842
  909TIP3   OH224217   6.544   2.646  16.677  0.2228  0.5638 -0.0472
  909TIP3    H124218   6.509   2.559  16.694 -0.1709  0.7850  0.2732
  909TIP3    H224219   6.609   2.660  16.746  1.5593 -0.1807 -1.1219
  910TIP3   OH224220   1.881   6.428   4.180  0.0385 -0.0126  0.2498
  910TIP3    H124221   1.807   6.389   4.226  0.2746 -0.0437  0.6010
  910TIP3    H224222   1.923   6.484   4.244  0.7884 -0.6016  0.2906
  911TIP3   OH224223   0.730   3.269   5.928 -0.6300  0.3149 -0.1178
  911TIP3    H124224   0.645   3.272   5.973 -0.9141  0.7354 -0.6815
  911TIP3    H224225   0.740   3.356   5.890 -0.2646  0.0456 -0.6375
  912TIP3   OH224226   6.647   4.231  11.548 -0.3900 -0.6711 -0.0969
  912TIP3    H124227   6.643   4.248  11.453 -2.0135 -0.5860 -0.0403
  912TIP3    H224228   6.560   4.197  11.569  0.1037 -1.0834  1.3029
  913TIP3   OH224229   0.046   5.500   4.060 -0.0962 -0.4329 -0.5592
  913TIP3    H124230   0.115   5.441   4.090  1.0535 -0.3271 -2.8715
  913TIP3    H224231   0.008   5.456   3.984  0.2401  1.3983 -1.8232
  914TIP3   OH224232   0.530   2.408  15.330 -0.1225 -0.1922 -0.3819
  914TIP3    H124233   0.613   2.376  15.365 -1.1185 -1.2749  1.0610
  914TIP3    H224234   0.477   2.428  15.407 -1.3542  0.1192 -1.2815
  915TIP3   OH224235   6.200   6.623  16.113 -0.3987  0.0205 -0.4555
  915TIP3    H124236   6.286   6.636  16.074  0.9258  0.9877  2.6499
  915TIP3    H224237   6.200   6.533  16.144 -0.6455 -0.0988 -0.8030
  916TIP3   OH224238   2.715   4.688   3.141  0.4525 -0.4824 -0.1799
  916TIP3    H124239   2.748   4.600   3.160  1.1166 -0.7257 -2.2937
  916TIP3    H224240   2.752   4.709   3.055 -0.8636  1.2900 -0.3338
  917TIP3   OH224241   6.521   3.725   5.556  0.2717  0.0783  0.4215
  917TIP3    H124242   6.557   3.664   5.621  0.5803  0.3536  0.5122
  917TIP3    H224243   6.496   3.802   5.607  0.5521  0.3119  0.2124
  918TIP3   OH224244   2.313   2.543   2.136 -0.3718  0.1649  0.2246
  918TIP3    H124245   2.307   2.638   2.128 -0.8428 -0.0702 -2.5477
  918TIP3    H224246   2.383   2.518   2.076 -1.2201 -1.3747 -0.1519
  919TIP3   OH224247   5.239   2.178   0.918 -0.4919 -0.0672 -0.2946
  919TIP3    H124248   5.195   2.250   0.872  0.0262  1.1088  1.0247
  919TIP3    H224249   5.332   2.192   0.901 -0.2392  0.7881  1.6643
  920TIP3   OH224250   6.249   1.422  12.591 -0.3879  0.1320  0.3005
  920TIP3    H124251   6.334   1.438  12.550  0.2450  1.8110  2.1746
  920TIP3    H224252   6.200   1.372  12.526  1.4180  0.6498 -1.5102
  921TIP3   OH224253   2.119   4.505   2.034  0.6912 -0.1505  0.5071
  921TIP3    H124254   2.164   4.577   1.990 -0.6789  0.4745  0.1106
  921TIP3    H224255   2.090   4.541   2.117 -2.0937  0.4865 -0.7012
  922TIP3   OH224256   3.712   4.487  12.653  0.6540  0.0400  0.3774
  922TIP3    H124257   3.661   4.567  12.671 -0.0540 -0.4336  0.5050
  922TIP3    H224258   3.712   4.480  12.558 -0.7689 -0.7407  0.4178
  923TIP3   OH224259   1.027   5.282  13.238  0.0372 -0.2694  0.4779
  923TIP3    H124260   1.018   5.374  13.263  0.8355 -0.2146  0.5955
  923TIP3    H224261   1.001   5.233  13.316  0.1845 -0.1356  0.6107
  924TIP3   OH224262   5.267   5.090  14.807  0.0388 -0.1251  0.3574
  924TIP3    H124263   5.320   5.169  14.797 -0.5714  0.1891 -0.4988
  924TIP3    H224264   5.305   5.027  14.747  0.8130 -0.6496  1.3826
  925TIP3   OH224265   5.809   5.080  13.761  0.6259  0.1826 -0.3146
  925TIP3    H124266   5.765   5.000  13.792  1.2104 -0.8378 -2.0189
  925TIP3    H224267   5.749   5.115  13.694  0.1806  1.4171  0.7034
  926TIP3   OH224268   6.764   5.376   3.824 -0.3279 -0.1989 -0.0334
  926TIP3    H124269   6.787   5.402   3.735 -1.6396 -0.9659 -0.6146
  926TIP3    H224270   6.801   5.288   3.834 -0.4867 -0.2576  0.0457
  927TIP3   OH224271   2.278   6.646  16.596 -0.3482 -0.0975  0.7426
  927TIP3    H124272   2.315   6.583  16.659 -0.0240 -0.4242  0.2277
  927TIP3    H224273   2.337   6.641  16.520  0.2178  1.5023  1.0560
  928TIP3   OH224274   1.115   5.504  12.744  0.3331 -0.0049 -0.0698
  928TIP3    H124275   1.130   5.585  12.792  3.4278 -0.7258  0.2785
  928TIP3    H224276   1.121   5.528  12.652 -0.9486  0.5165 -0.0360
  929TIP3   OH224277   0.160   0.626   5.264 -0.4919 -0.3849  0.6822
  929TIP3    H124278   0.161   0.630   5.168 -0.9793  0.6986  0.7056
  929TIP3    H224279   0.240   0.673   5.290 -1.7895  1.7913  0.8431
  930TIP3   OH224280   1.450   4.919  16.367  0.0032 -0.4490  0.3828
  930TIP3    H124281   1.456   4.825  16.352  1.3479 -0.0175 -2.1020
  930TIP3    H224282   1.467   4.958  16.281  0.9137  2.0878  1.6603
  931TIP3   OH224283   4.691   2.556  13.990 -0.0123 -0.0700  0.0419
  931TIP3    H124284   4.672   2.641  13.952 -0.3801 -0.8328 -1.4905
  931TIP3    H224285   4.674   2.567  14.084  0.5864  1.7129 -0.0483
  932TIP3   OH224286   5.400   1.337  15.309 -0.0583  0.4450  0.0466
  932TIP3    H124287   5.482   1.360  15.265 -1.1003  1.9364 -1.1793
  932TIP3    H224288   5.414   1.248  15.341  1.0067 -0.3955 -2.6654
  933TIP3   OH224289   3.143   5.662  16.302  0.1173  0.3624 -0.3891
  933TIP3    H124290   3.160   5.621  16.387  0.6475  0.0723 -0.6314
  933TIP3    H224291   3.097   5.595  16.252 -0.2019  0.5368 -0.3317
  934TIP3   OH224292   0.170   6.423   4.072  0.1030 -0.0295  0.3007
  934TIP3    H124293   0.126   6.489   4.018  2.0298 -0.5520 -2.0011
  934TIP3    H224294   0.216   6.474   4.139 -1.0386  0.7404  0.5122
  935TIP3   OH224295   0.368   5.337  16.486  0.2414  0.4539  0.3681
  935TIP3    H124296   0.315   5.391  16.544  0.4058  0.0458  0.9069
  935TIP3    H224297   0.307   5.307  16.418  0.2210  1.5622 -0.1109
  936TIP3   OH224298   6.630   2.076  13.292 -0.2472  0.0037 -0.0737
  936TIP3    H124299   6.626   2.045  13.382 -0.4829  0.2087 -0.0165
  936TIP3    H224300   6.711   2.038  13.258 -0.1832 -0.1133  0.2084
  937TIP3   OH224301   6.027   3.158  14.098 -1.1704 -0.0969 -0.1965
  937TIP3    H124302   6.020   3.132  14.006 -1.3230 -1.4220  0.1775
  937TIP3    H224303   6.120   3.178  14.110 -1.5572  2.4717 -1.2513
  938TIP3   OH224304   6.220   1.767   3.456 -0.0699  0.1143  0.1757
  938TIP3    H124305   6.202   1.728   3.371 -0.9269 -0.5759  0.6636
  938TIP3    H224306   6.212   1.861   3.442 -0.2240  0.0021 -0.4937
  939TIP3   OH224307   2.276   4.327   5.842 -0.3040 -0.3895 -0.2470
  939TIP3    H124308   2.346   4.367   5.894 -0.9393 -0.8764  1.0169
  939TIP3    H224309   2.313   4.244   5.812  0.5946  0.5731 -1.8658
  940TIP3   OH224310   4.710   2.694   6.356  0.8907  0.1378  0.0335
  940TIP3    H124311   4.692   2.788   6.350  0.1308  0.0682  1.0157
  940TIP3    H224312   4.625   2.652   6.341  0.8014 -0.3125  1.6267
  941TIP3   OH224313   4.673   4.912   5.689 -0.2777 -0.1068 -0.0632
  941TIP3    H124314   4.586   4.941   5.661  0.0883  1.6627  0.5614
  941TIP3    H224315   4.693   4.967   5.765  0.7736 -1.5290  0.7001
  942TIP3   OH224316   6.602   0.646  12.240 -0.2348  0.3091  0.3016
  942TIP3    H124317   6.683   0.606  12.210  0.0461  1.3061 -0.3102
  942TIP3    H224318   6.617   0.740  12.230 -1.1425  0.5335  1.0151
  943TIP3   OH224319   4.592   0.142   1.161 -0.0855  0.0462 -0.0846
  943TIP3    H124320   4.566   0.078   1.094  0.6435 -0.2112 -0.1242
  943TIP3    H224321   4.577   0.227   1.120 -0.0556 -0.1074 -0.4203
  944TIP3   OH224322   0.893   4.792  14.851 -0.0834  0.1848 -0.0653
  944TIP3    H124323   0.925   4.789  14.761  0.0518 -1.2245  0.0299
  944TIP3    H224324   0.803   4.761  14.846 -0.3504  0.9044  0.1689
  945TIP3   OH224325   0.392   0.881  14.406  0.0513 -0.0553  0.1875
  945TIP3    H124326   0.410   0.817  14.338 -1.7818 -0.5286  0.1310
  945TIP3    H224327   0.468   0.940  14.404  1.8119 -2.2475  0.3175
  946TIP3   OH224328   6.611   6.626  17.217 -0.4827 -0.6185  0.7056
  946TIP3    H124329   6.637   6.597  17.304  2.1062  1.5269  0.7062
  946TIP3    H224330   6.541   6.689  17.233  1.4522  1.3891  1.3980
  947TIP3   OH224331   4.350   5.886  11.757 -0.6067 -0.6107  0.1288
  947TIP3    H124332   4.296   5.940  11.700 -0.4401 -1.2542 -0.6497
  947TIP3    H224333   4.295   5.810  11.777 -0.4260 -0.6997  0.2893
  948TIP3   OH224334   3.581   4.963  10.707 -0.0425  0.2909  0.1908
  948TIP3    H124335   3.537   4.882  10.680 -0.4814  0.0905  1.4710
  948TIP3    H224336   3.534   5.032  10.660  1.6144 -0.3356 -2.4696
  949TIP3   OH224337   1.825   1.016  12.422 -0.5263 -0.0334 -0.5395
  949TIP3    H124338   1.865   1.103  12.426 -4.0501  1.6455  1.0996
  949TIP3    H224339   1.745   1.029  12.371 -0.5504 -2.5793 -1.2283
  950TIP3   OH224340   2.883   2.161  15.014  0.1936 -0.1790 -0.7307
  950TIP3    H124341   2.918   2.112  15.088  1.5308  1.2661 -0.3738
  950TIP3    H224342   2.893   2.102  14.939  2.9735 -0.0015 -0.5422
  951TIP3   OH224343   5.776   2.919   4.009  0.8518 -0.4132 -0.1654
  951TIP3    H124344   5.799   2.905   3.917  3.2747  0.1223  0.3037
  951TIP3    H224345   5.839   2.865   4.057 -1.1434 -1.5991  1.1616
  952TIP3   OH224346   0.783   6.621   3.470  0.2140  0.1208 -0.2509
  952TIP3    H124347   0.689   6.620   3.485  0.7398  1.8137  3.4775
  952TIP3    H224348   0.816   6.549   3.524  1.3815  1.5843  1.0083
  953TIP3   OH224349   6.709   2.428   5.966 -0.0362  0.0469 -0.4828
  953TIP3    H124350   6.696   2.442   5.873 -0.4733  0.2902 -0.3860
  953TIP3    H224351   6.630   2.381   5.994  0.8038 -1.4492 -0.5491
  954TIP3   OH224352   1.458   3.071  16.148  0.4344 -0.2537  0.0325
  954TIP3    H124353   1.416   3.076  16.062 -0.2563 -1.4979  0.2816
  954TIP3    H224354   1.551   3.086  16.130  0.2519 -0.1632 -0.8873
  955TIP3   OH224355   3.811   4.566  16.966 -0.1375 -0.4051  0.0251
  955TIP3    H124356   3.718   4.551  16.982 -0.2731 -0.9468 -1.2092
  955TIP3    H224357   3.814   4.617  16.885  0.6661 -1.0040 -0.3369
  956TIP3   OH224358   5.356   1.051   2.379 -0.1086  0.5631  0.4560
  956TIP3    H124359   5.378   0.984   2.444 -0.8682 -0.0919  0.0350
  956TIP3    H224360   5.354   1.005   2.295 -0.3842  1.1519  0.1334
  957TIP3   OH224361   2.723   5.492  13.990 -0.1046 -0.0181  0.3982
  957TIP3    H124362   2.730   5.404  13.954  0.6682  0.6627 -1.1915
  957TIP3    H224363   2.648   5.489  14.050 -1.5382 -1.1536 -1.4136
  958TIP3   OH224364   6.776   2.936  13.120  0.6671  0.4225 -0.7972
  958TIP3    H124365   6.765   3.002  13.188  0.1275  0.5808 -1.0337
  958TIP3    H224366   6.831   2.978  13.054  0.0265  0.7655 -1.1171
  959TIP3   OH224367   4.196   3.735   5.791 -0.6595 -0.0726 -0.2021
  959TIP3    H124368   4.261   3.701   5.852 -1.4519  0.5393  1.0112
  959TIP3    H224369   4.200   3.830   5.802 -1.4433 -0.0085 -0.4389
  960TIP3   OH224370   2.187   3.836   0.898 -0.4334 -0.4405 -0.2731
  960TIP3    H124371   2.202   3.799   0.811 -3.7021 -0.4152 -0.9416
  960TIP3    H224372   2.137   3.916   0.881 -0.5057 -0.0815  1.5928
  961TIP3   OH224373   2.829   3.971  16.158  0.3518  0.0076 -0.3803
  961TIP3    H124374   2.890   4.013  16.219 -0.8852  0.8439  0.2953
  961TIP3    H224375   2.748   4.022  16.166 -0.3772 -0.9760 -1.4123
  962TIP3   OH224376   5.871   1.027  16.726  0.3691 -0.6494 -0.3174
  962TIP3    H124377   5.853   0.961  16.659  2.0028  0.3097 -1.7347
  962TIP3    H224378   5.923   1.094  16.681 -0.6580  1.2731  1.2652
  963TIP3   OH224379   3.780   2.366  13.897 -0.6403 -1.0126 -0.3586
  963TIP3    H124380   3.705   2.424  13.905 -1.2147 -1.6310 -1.0751
  963TIP3    H224381   3.841   2.413  13.841 -0.5256 -0.5304  0.1785
  964TIP3   OH224382   1.798   4.822   0.996 -0.2295  0.1349  0.3915
  964TIP3    H124383   1.743   4.864   1.062 -0.4703 -0.0658  0.3207
  964TIP3    H224384   1.782   4.870   0.916 -0.9654 -0.4695  0.1724
  965TIP3   OH224385   4.786   3.730  16.107 -0.3813 -0.3370  0.7004
  965TIP3    H124386   4.856   3.724  16.171 -0.5234 -0.2455  0.8651
  965TIP3    H224387   4.715   3.678  16.144 -0.8250  0.5288  1.0880
  966TIP3   OH224388   6.375   4.701  14.227 -0.2669  0.2935 -0.3374
  966TIP3    H124389   6.416   4.739  14.305  0.3336 -1.7863  0.4103
  966TIP3    H224390   6.283   4.691  14.250 -0.4304  1.3308 -0.5521
  967TIP3   OH224391   1.599   5.997   5.943  0.2546  0.0844  0.1921
  967TIP3    H124392   1.616   5.982   5.850 -0.8278  1.4508 -0.2373
  967TIP3    H224393   1.683   5.981   5.986  1.1305  0.8855 -1.1840
  968TIP3   OH224394   0.206   6.605  15.064  0.1470 -0.2168  0.1697
  968TIP3    H124395   0.222   6.520  15.105 -1.1813 -0.8545 -0.6254
  968TIP3    H224396   0.162   6.656  15.131  0.8253 -0.2015  0.6053
  969TIP3   OH224397   2.040   1.819  15.618 -0.6281  0.5099 -0.2379
  969TIP3    H124398   1.975   1.818  15.688  0.3468 -1.8263  0.6864
  969TIP3    H224399   2.098   1.892  15.639  0.2965 -0.8419  2.0298
  970TIP3   OH224400   5.495   6.552   3.060  0.5294  0.3477  0.0710
  970TIP3    H124401   5.464   6.642   3.068 -0.2749  0.1702 -0.8664
  970TIP3    H224402   5.485   6.532   2.967  3.2551  0.1918 -0.2422
  971TIP3   OH224403   0.928   3.960  13.876  0.0884 -0.3058  0.0440
  971TIP3    H124404   0.889   4.033  13.923  0.4133 -1.0714  1.5373
  971TIP3    H224405   0.915   3.885  13.933 -0.2978 -1.4434 -1.5025
  972TIP3   OH224406   3.285   4.257   0.869  0.6079 -0.0168  0.8899
  972TIP3    H124407   3.350   4.323   0.894  0.8824  0.1794 -0.2916
  972TIP3    H224408   3.207   4.280   0.920  0.7288  1.1720  0.5610
  973TIP3   OH224409   4.294   4.725  14.671  0.1614 -0.6277 -0.1436
  973TIP3    H124410   4.268   4.652  14.613  2.1684 -1.1019 -0.4786
  973TIP3    H224411   4.269   4.803  14.622 -1.0380 -1.0602 -0.2555
  974TIP3   OH224412   2.423   3.980   4.228 -0.5443 -0.2084  0.5992
  974TIP3    H124413   2.403   3.913   4.163  2.3950  0.8756 -1.5251
  974TIP3    H224414   2.350   4.042   4.222 -1.1060 -0.9557 -0.5012
  975TIP3   OH224415   1.509   3.159  16.566  0.2688 -0.1455  0.2250
  975TIP3    H124416   1.573   3.216  16.522  0.7526 -0.5190  0.4369
  975TIP3    H224417   1.446   3.220  16.606  1.8987  0.3429  2.1623
  976TIP3   OH224418   3.501   6.051   2.666  0.4475 -0.1617  0.7567
  976TIP3    H124419   3.595   6.061   2.649  0.1777  1.2940 -0.0058
  976TIP3    H224420   3.462   6.036   2.579 -0.1482  0.4127  0.9170
  977TIP3   OH224421   5.729   3.564   5.095 -0.1193 -0.1271 -0.4481
  977TIP3    H124422   5.658   3.561   5.159 -1.1766  0.9975 -1.5433
  977TIP3    H224423   5.792   3.498   5.126 -2.4044 -2.3563 -0.3980
  978TIP3   OH224424   5.046   2.115  16.524 -0.5400 -0.4210 -0.3572
  978TIP3    H124425   5.113   2.173  16.486 -0.9472  0.0226 -0.4036
  978TIP3    H224426   4.964   2.163  16.513 -0.6614 -0.2568  1.1469
  979TIP3   OH224427   5.635   1.680  13.420 -0.2751  0.4701  0.4349
  979TIP3    H124428   5.652   1.700  13.513 -2.6010  0.2659  0.9324
  979TIP3    H224429   5.586   1.598  13.422  2.0927 -1.0043 -1.1658
  980TIP3   OH224430   1.451   4.489  16.216  0.0774 -0.4380 -0.2844
  980TIP3    H124431   1.476   4.419  16.157  4.8531  1.6458 -0.9579
  980TIP3    H224432   1.443   4.447  16.302  0.3719 -2.2082 -1.1132
  981TIP3   OH224433   6.520   2.200  11.561  0.5262 -0.3655 -0.3631
  981TIP3    H124434   6.481   2.207  11.474 -1.0160 -2.0108  0.1565
  981TIP3    H224435   6.597   2.144  11.548  1.2615  0.7832 -0.9574
  982TIP3   OH224436   3.672   3.866   1.097  0.9077 -0.5161  0.3741
  982TIP3    H124437   3.606   3.878   1.028  1.0581 -0.3609  0.2561
  982TIP3    H224438   3.689   3.772   1.098  1.6677 -0.3921 -0.5115
  983TIP3   OH224439   3.703   6.715   1.878 -0.1644 -0.2812  0.4447
  983TIP3    H124440   3.745   6.796   1.910 -2.0740  0.7756  0.3586
  983TIP3    H224441   3.749   6.645   1.924 -0.0827  0.9889  2.3818
  984TIP3   OH224442   0.106   4.319  15.749  0.0474  0.5970  0.0779
  984TIP3    H124443   0.077   4.229  15.763  3.0788 -0.3021  0.8441
  984TIP3    H224444   0.087   4.336  15.657  0.9584 -1.4178 -0.5114
  985TIP3   OH224445   2.101   3.615  12.062  0.5597 -0.1294  0.1975
  985TIP3    H124446   2.164   3.645  12.127  1.5515  0.5770 -1.0579
  985TIP3    H224447   2.149   3.617  11.979 -0.5933 -1.2827 -0.5194
  986TIP3   OH224448   1.439   1.623  15.434  0.1692 -0.7446  0.2457
  986TIP3    H124449   1.516   1.575  15.465 -0.6883 -2.3264  0.0166
  986TIP3    H224450   1.441   1.706  15.482  1.3084 -1.3092  1.1978
  987TIP3   OH224451   6.166   6.668   3.946  1.2332 -0.4553  0.0668
  987TIP3    H124452   6.248   6.644   3.988  1.6705  0.0063 -0.4953
  987TIP3    H224453   6.171   6.763   3.937 -0.2079 -0.1941  1.7418
  988TIP3   OH224454   0.211   5.966   0.242  0.0087 -0.2486 -0.2063
  988TIP3    H124455   0.116   5.956   0.236 -0.1427 -0.1051  1.8135
  988TIP3    H224456   0.245   5.877   0.243 -0.1429 -0.3073 -0.2625
  989TIP3   OH224457   4.904   2.277   1.398  0.1881  0.3576  0.0178
  989TIP3    H124458   4.881   2.227   1.319  0.9132  0.9319 -0.5627
  989TIP3    H224459   4.964   2.220   1.446  0.0459  0.1675 -0.0279
  990TIP3   OH224460   6.580   1.986   4.169  0.5194  0.0456 -0.1257
  990TIP3    H124461   6.511   2.005   4.105 -0.0208 -1.2958  0.0451
  990TIP3    H224462   6.576   1.892   4.182  1.8895  0.0497  0.4697
  991TIP3   OH224463   2.666   5.406   4.569 -0.9980  0.1496 -0.3148
  991TIP3    H124464   2.652   5.428   4.477 -1.1166 -0.7647 -0.5175
  991TIP3    H224465   2.724   5.475   4.601 -0.6735  0.2798 -1.1603
  992TIP3   OH224466   4.878   1.624   3.334 -0.4762  0.2654  0.0661
  992TIP3    H124467   4.947   1.564   3.306  2.0070  1.4072  3.4281
  992TIP3    H224468   4.849   1.667   3.253  1.5475 -1.4932 -1.6492
  993TIP3   OH224469   3.159   1.268  14.055  0.5774 -0.0907 -0.3756
  993TIP3    H124470   3.215   1.275  13.977  0.3005 -1.3608 -0.6955
  993TIP3    H224471   3.221   1.269  14.128  0.7748  2.1669 -0.5363
  994TIP3   OH224472   6.783   1.043  17.141 -0.2047  0.2612  0.3610
  994TIP3    H124473   6.837   1.001  17.074  0.9420  0.1304  1.3564
  994TIP3    H224474   6.805   1.136  17.135 -2.8450  0.8217 -1.9359
  995TIP3   OH224475   2.021   6.485   2.017  0.3082 -0.1334  0.1912
  995TIP3    H124476   2.030   6.433   2.097  0.1088 -1.1751 -0.4473
  995TIP3    H224477   2.102   6.537   2.013  0.5850 -0.5144  0.7621
  996TIP3   OH224478   2.333   3.288  11.983  0.1479 -0.1669 -0.3842
  996TIP3    H124479   2.403   3.255  11.927  0.7916  0.5841 -0.0232
  996TIP3    H224480   2.327   3.381  11.963  0.7960  0.2401  1.2203
  997TIP3   OH224481   0.631   4.504  13.366  0.0928  0.2080 -0.1069
  997TIP3    H124482   0.620   4.528  13.274  1.5619  0.9467 -0.1000
  997TIP3    H224483   0.609   4.410  13.368  1.2775 -0.1206 -1.4538
  998TIP3   OH224484   5.388   4.269  17.202  0.2238  0.2411 -0.2784
  998TIP3    H124485   5.376   4.240  17.292  1.1241  0.4558 -0.0862
  998TIP3    H224486   5.318   4.226  17.153 -1.7211  1.9478  0.9237
  999TIP3   OH224487   1.394   1.065   6.646 -0.7412  0.1642 -0.0528
  999TIP3    H124488   1.462   1.007   6.611  0.0411  0.7704  0.4457
  999TIP3    H224489   1.325   1.005   6.677 -1.0236 -0.4082 -1.7377
 1000TIP3   OH224490   3.129   0.471  13.857  0.4375  0.1570 -0.2966
 1000TIP3    H124491   3.039   0.497  13.835  0.9751  1.8241 -0.6518
 1000TIP3    H224492   3.163   0.545  13.908  1.4935 -0.6084  0.1184
 1001TIP3   OH224493   3.736   0.725  17.043  0.5205  0.0446  0.0365
 1001TIP3    H124494   3.648   0.752  17.017  0.6806 -0.5755 -1.1835
 1001TIP3    H224495   3.788   0.804  17.039 -0.4705  0.9425  3.1062
 1002TIP3   OH224496   2.113   2.628   2.459  0.1343 -0.1689 -0.1040
 1002TIP3    H124497   2.185   2.581   2.418  1.9014  1.8978  0.5459
 1002TIP3    H224498   2.133   2.627   2.553  0.2969  1.9863 -0.0966
 1003TIP3   OH224499   1.423   0.278  16.958  0.1171  0.1742 -0.6220
 1003TIP3    H124500   1.369   0.291  17.036 -0.2130 -0.5679 -0.7247
 1003TIP3    H224501   1.447   0.367  16.931  0.9027  0.4051  0.7815
 1004TIP3   OH224502   1.713   3.690   0.510  0.2853 -0.1810  0.3699
 1004TIP3    H124503   1.699   3.605   0.467 -3.1562  0.6844 -0.4232
 1004TIP3    H224504   1.784   3.730   0.460  2.1176 -2.6438  0.8954
 1005TIP3   OH224505   5.024   1.474   6.258  0.0362  0.3218  0.8184
 1005TIP3    H124506   5.104   1.440   6.299 -0.6690 -0.9012  1.1725
 1005TIP3    H224507   4.997   1.406   6.198  0.8060  1.9148 -1.4080
 1006TIP3   OH224508   5.912   0.578  15.916  1.0478 -0.4495  0.1062
 1006TIP3    H124509   5.961   0.607  15.993 -0.8236 -0.3284  1.3037
 1006TIP3    H224510   5.934   0.486  15.907  1.4536 -0.4137  0.6823
 1007TIP3   OH224511   3.809   0.214  12.705  0.3629 -0.3475 -0.8708
 1007TIP3    H124512   3.893   0.197  12.661 -0.3397  0.4193 -2.5538
 1007TIP3    H224513   3.788   0.304  12.682  0.7904  0.6763  2.4898
 1008TIP3   OH224514   3.326   5.197  15.969  0.2198 -0.2020 -0.1537
 1008TIP3    H124515   3.387   5.141  15.922 -1.5104 -2.4359  0.1632
 1008TIP3    H224516   3.301   5.146  16.046 -1.3509  1.0285  0.1731
 1009TIP3   OH224517   5.178   6.172   4.144 -0.3529  0.0610 -0.0041
 1009TIP3    H124518   5.261   6.193   4.100 -0.1608 -0.0335  0.3140
 1009TIP3    H224519   5.162   6.247   4.201 -0.2111 -0.1626  0.3335
 1010TIP3   OH224520   6.515   2.136  13.949  0.4342 -0.3681  0.0027
 1010TIP3    H124521   6.468   2.060  13.984  0.1028 -0.9900 -1.7412
 1010TIP3    H224522   6.456   2.172  13.882  1.7654 -0.2077 -1.0945
 1011TIP3   OH224523   2.405   1.366  11.163  0.2152 -0.1971 -0.3657
 1011TIP3    H124524   2.433   1.274  11.167  0.1627 -0.1412  1.7119
 1011TIP3    H224525   2.313   1.364  11.190  0.0855  0.4295 -0.7444
 1012TIP3   OH224526   3.525   4.795  11.589 -0.5575  0.8475 -0.1943
 1012TIP3    H124527   3.455   4.820  11.529 -1.0318  1.7356  0.7274
 1012TIP3    H224528   3.500   4.833  11.673  0.6530  0.5369  0.3184
 1013TIP3   OH224529   3.596   4.526  14.299 -0.2257 -0.0434  0.5834
 1013TIP3    H124530   3.607   4.547  14.206 -0.4890 -0.1847  0.5207
 1013TIP3    H224531   3.507   4.555  14.320  0.3814  1.4197  1.1786
 1014TIP3   OH224532   4.053   3.964  15.340  0.4410 -0.8441 -0.5751
 1014TIP3    H124533   4.089   4.048  15.314 -0.0299 -0.8060 -1.1361
 1014TIP3    H224534   4.068   3.958  15.434 -0.5451  0.3674 -0.3375
 1015TIP3   OH224535   0.929   3.973  11.639 -0.0274  0.6416 -0.2113
 1015TIP3    H124536   0.876   3.934  11.708  0.0846  1.0420  0.1023
 1015TIP3    H224537   1.004   4.011  11.685  0.9453 -0.6187 -0.7221
 1016TIP3   OH224538   3.106   3.634   1.881 -0.2316 -0.4485  0.3319
 1016TIP3    H124539   3.060   3.714   1.909 -1.4394 -1.7044  2.0143
 1016TIP3    H224540   3.176   3.666   1.823  0.2917  1.9633  2.2116
 1017TIP3   OH224541   1.369   5.674  11.366  0.2115 -0.0715 -0.2775
 1017TIP3    H124542   1.307   5.606  11.391  0.3520  0.0544  0.4443
 1017TIP3    H224543   1.329   5.717  11.291 -1.5906  1.3614  1.4490
 1018TIP3   OH224544   3.905   4.480   3.471 -0.1502 -0.0322 -0.1194
 1018TIP3    H124545   3.945   4.451   3.552 -1.7634  0.7098  0.9675
 1018TIP3    H224546   3.850   4.407   3.443 -1.2960  0.5266  0.6326
 1019TIP3   OH224547   5.680   4.581  16.482  0.3061 -0.3361 -0.0170
 1019TIP3    H124548   5.704   4.599  16.573 -0.5542 -0.6829  0.2910
 1019TIP3    H224549   5.585   4.571  16.484  0.1055  1.1312 -1.2049
 1020TIP3   OH224550   5.075   3.504  15.299 -0.2883  0.2819 -0.6946
 1020TIP3    H124551   5.075   3.587  15.251 -1.6165  0.2926 -0.6753
 1020TIP3    H224552   5.009   3.515  15.367  1.2333  0.0799  0.8506
 1021TIP3   OH224553   6.434   5.123  12.101 -0.1660 -0.2015 -0.1707
 1021TIP3    H124554   6.498   5.055  12.122  1.3694  0.6964 -1.7927
 1021TIP3    H224555   6.406   5.104  12.012  1.0817  1.8910 -1.0353
 1022TIP3   OH224556   1.014   5.538  15.004 -0.6300  0.4917 -0.2517
 1022TIP3    H124557   0.999   5.556  15.096  0.8145  0.9200 -0.0838
 1022TIP3    H224558   1.096   5.583  14.984 -0.9911  0.5107 -1.7735
 1023TIP3   OH224559   1.943   0.464   0.089  0.1797 -0.0598 -0.3490
 1023TIP3    H124560   1.861   0.498   0.126 -0.2755  0.2345 -1.5848
 1023TIP3    H224561   2.004   0.462   0.163 -0.4578  1.3098  0.2431
 1024TIP3   OH224562   4.612   1.595   6.005 -0.8725 -0.3244 -0.1671
 1024TIP3    H124563   4.594   1.606   5.911 -1.8873  0.2819  0.0907
 1024TIP3    H224564   4.707   1.585   6.010 -0.8207 -0.4675 -1.2738
 1025TIP3   OH224565   6.241   5.198  14.396 -0.0264  0.4658  0.1600
 1025TIP3    H124566   6.290   5.228  14.319 -0.3207  1.6013  0.4001
 1025TIP3    H224567   6.241   5.274  14.454  0.0910 -0.3488  1.2335
 1026TIP3   OH224568   0.180   3.258  12.768  0.1478  0.2027  0.0231
 1026TIP3    H124569   0.084   3.260  12.762  0.1022 -1.4977 -0.0202
 1026TIP3    H224570   0.205   3.349  12.783 -1.2976  1.0641 -2.5502
 1027TIP3   OH224571   5.558   0.067   3.312  0.7913 -0.6950  0.1914
 1027TIP3    H124572   5.608   0.115   3.378 -0.9049  0.7890  0.4201
 1027TIP3    H224573   5.545   0.130   3.241 -0.4621 -1.1687 -0.0135
 1028TIP3   OH224574   4.499   0.072  16.555  0.0527 -0.4986  0.5708
 1028TIP3    H124575   4.463   0.072  16.466  0.7371 -1.6467  0.2699
 1028TIP3    H224576   4.503   0.164  16.580  0.2071 -0.1332 -0.7458
 1029TIP3   OH224577   5.328   5.505  10.222  0.0741  0.4768  0.1954
 1029TIP3    H124578   5.252   5.463  10.262 -0.0320 -1.0777 -1.5395
 1029TIP3    H224579   5.386   5.433  10.198  0.5545  1.4028 -1.5638
 1030TIP3   OH224580   5.690   1.625   3.617 -0.1537 -0.5248 -0.8148
 1030TIP3    H124581   5.672   1.628   3.711 -1.0458 -0.7791 -0.9752
 1030TIP3    H224582   5.785   1.617   3.612 -0.0793 -0.3118  0.0628
 1031TIP3   OH224583   1.563   5.505   0.135  0.2292 -0.3397 -0.2510
 1031TIP3    H124584   1.577   5.600   0.136 -1.7538 -0.0109  1.5279
 1031TIP3    H224585   1.621   5.471   0.203 -0.6214 -0.1194  0.5994
 1032TIP3   OH224586   1.187   1.289   0.421  0.2331  0.2951 -0.4336
 1032TIP3    H124587   1.186   1.380   0.449 -1.9858  0.5809 -1.2871
 1032TIP3    H224588   1.234   1.242   0.490 -0.0902  1.8266  0.8405
 1033TIP3   OH224589   3.052   2.928   1.411 -0.3710 -0.6401  0.0833
 1033TIP3    H124590   3.073   2.960   1.499 -0.1377 -1.0036  0.1584
 1033TIP3    H224591   3.038   3.007   1.360 -0.5969 -0.4263  0.4704
 1034TIP3   OH224592   4.155   4.865  15.495  0.1679  0.1107  0.4367
 1034TIP3    H124593   4.219   4.932  15.473  0.6842 -0.1207  1.2126
 1034TIP3    H224594   4.072   4.897  15.458  0.7636  0.3189 -0.7332
 1035TIP3   OH224595   5.726   4.281   5.197 -0.4891  0.4934  0.4037
 1035TIP3    H124596   5.791   4.306   5.132  0.1620  0.4722  1.0387
 1035TIP3    H224597   5.658   4.236   5.147  1.0949 -1.5677  0.0236
 1036TIP3   OH224598   6.076   5.094   3.476  0.1678  0.5646 -0.5784
 1036TIP3    H124599   6.053   5.073   3.566  0.2344 -0.3641 -0.7719
 1036TIP3    H224600   6.136   5.169   3.483  1.5512 -0.5930  0.2601
 1037TIP3   OH224601   2.104   1.933  11.396 -0.0497  0.2870  0.5101
 1037TIP3    H124602   2.023   1.954  11.349 -0.4153 -1.0601  0.5138
 1037TIP3    H224603   2.168   1.995  11.363 -0.8855  0.8461 -0.0810
 1038TIP3   OH224604   0.293   2.625   6.177 -0.3321  0.0371  0.0306
 1038TIP3    H124605   0.366   2.564   6.179 -0.7413 -0.5130 -1.4051
 1038TIP3    H224606   0.217   2.570   6.159 -0.7383  0.9457 -1.0039
 1039TIP3   OH224607   4.260   1.770   2.465  0.6553 -0.0335  0.2392
 1039TIP3    H124608   4.347   1.742   2.494  1.7616  3.1141  0.0944
 1039TIP3    H224609   4.227   1.695   2.415  3.8968 -0.7333 -0.9981
 1040TIP3   OH224610   4.444   5.665   4.809  0.2212  0.3207 -0.0851
 1040TIP3    H124611   4.363   5.650   4.857 -0.3319  2.4353 -0.2987
 1040TIP3    H224612   4.478   5.578   4.789 -1.7361 -0.5677  0.4656
 1041TIP3   OH224613   5.161   2.466  12.864  0.3814  0.6597  0.2956
 1041TIP3    H124614   5.104   2.389  12.866 -0.7347  1.3456 -2.4726
 1041TIP3    H224615   5.146   2.510  12.948  0.3546 -1.6330  1.5181
 1042TIP3   OH224616   6.755   1.202  14.603  0.0692 -0.6621 -0.4014
 1042TIP3    H124617   6.813   1.127  14.612  1.0263  0.0398 -0.7084
 1042TIP3    H224618   6.673   1.165  14.570 -0.4416 -1.9894  2.1714
 1043TIP3   OH224619   3.987   1.056   3.130 -0.1759  0.1632  0.5758
 1043TIP3    H124620   4.076   1.029   3.105  0.2297  1.4337  0.6385
 1043TIP3    H224621   3.981   1.033   3.222 -0.5386 -1.5383  0.1530
 1044TIP3   OH224622   4.468   5.163  14.283 -0.9851 -0.2986 -0.1271
 1044TIP3    H124623   4.426   5.129  14.204 -1.6927  0.1445  0.0545
 1044TIP3    H224624   4.532   5.096  14.307 -1.0868 -0.6454 -0.8131
 1045TIP3   OH224625   6.804   4.150   6.829 -0.4161 -0.0491  0.2912
 1045TIP3    H124626   6.737   4.214   6.806  0.0053  0.2973  0.0137
 1045TIP3    H224627   6.764   4.096   6.897 -0.6242  0.7658  0.8214
 1046TIP3   OH224628   5.483   5.769  13.166  0.0527 -0.1623 -0.1210
 1046TIP3    H124629   5.467   5.769  13.261 -0.0073  0.1676 -0.1277
 1046TIP3    H224630   5.549   5.838  13.154  1.3683 -1.3958 -0.1078
 1047TIP3   OH224631   2.059   2.154  12.983 -0.0177 -0.2489  0.3997
 1047TIP3    H124632   2.107   2.110  13.053 -2.0834 -1.4150  1.1238
 1047TIP3    H224633   1.993   2.091  12.956 -1.0342  1.2601 -0.6910
 1048TIP3   OH224634   2.991   4.991   0.994 -0.4383  0.3539 -0.1333
 1048TIP3    H124635   2.924   4.930   0.964 -0.5643  0.4498 -0.0514
 1048TIP3    H224636   2.945   5.047   1.058 -0.6032  1.2259 -0.9961
 1049TIP3   OH224637   5.196   6.044  13.203 -0.5186 -0.1602 -0.6625
 1049TIP3    H124638   5.136   5.970  13.213 -1.7916  0.8295 -0.7730
 1049TIP3    H224639   5.163   6.091  13.127 -1.4038  2.0472  1.0364
 1050TIP3   OH224640   2.936   5.342   4.784 -0.2161 -0.1549  0.0891
 1050TIP3    H124641   3.014   5.368   4.734 -0.6512  0.3777 -0.3269
 1050TIP3    H224642   2.879   5.419   4.780 -0.4741 -0.2955  0.9817
 1051TIP3   OH224643   0.798   2.906  10.918  0.2963 -0.1574 -0.2111
 1051TIP3    H124644   0.736   2.979  10.916  2.4573  1.7025 -1.7952
 1051TIP3    H224645   0.744   2.828  10.922 -2.1362  1.4323 -1.3708
 1052TIP3   OH224646   0.559   1.152   4.021 -0.2648 -0.1993  0.5222
 1052TIP3    H124647   0.575   1.064   3.988  1.2499 -0.4631  1.8949
 1052TIP3    H224648   0.559   1.142   4.116  2.9086  1.7494  0.8005
 1053TIP3   OH224649   4.611   3.464   3.336  0.5180  0.1243 -0.7092
 1053TIP3    H124650   4.650   3.549   3.315  1.6485  0.0922  1.2054
 1053TIP3    H224651   4.517   3.476   3.319  0.7741  1.5219 -1.1863
 1054TIP3   OH224652   2.765   4.245   5.896  0.2128  0.5242  0.3543
 1054TIP3    H124653   2.742   4.248   5.989 -0.4661  1.5741  0.1589
 1054TIP3    H224654   2.779   4.152   5.879 -1.2896  0.1252  1.1243
 1055TIP3   OH224655   1.839   2.412   2.177  0.4253 -0.2057  0.0351
 1055TIP3    H124656   1.859   2.328   2.135 -0.4580  0.0173 -0.8438
 1055TIP3    H224657   1.754   2.399   2.218 -0.0562  0.5104 -0.7471
 1056TIP3   OH224658   0.057   3.505  11.236  0.0490 -0.0484  0.0707
 1056TIP3    H124659  -0.005   3.535  11.168  0.8660 -1.6206 -1.4058
 1056TIP3    H224660   0.030   3.416  11.255  0.6508 -0.0621  0.8562
 1057TIP3   OH224661   5.156   2.440  15.121 -0.3452  0.3159  0.3226
 1057TIP3    H124662   5.231   2.497  15.132 -1.3538  1.9250 -0.8668
 1057TIP3    H224663   5.108   2.446  15.204  1.0145 -1.0144  1.2207
 1058TIP3   OH224664   0.244   0.910   0.062 -1.0920 -0.0674 -0.2142
 1058TIP3    H124665   0.239   0.836   0.001  0.0382  0.8997 -1.5136
 1058TIP3    H224666   0.219   0.986   0.010  0.2618  0.8293  0.4029
 1059TIP3   OH224667   2.287   5.400  15.336 -0.3430  0.4339  0.2824
 1059TIP3    H124668   2.365   5.344  15.335  0.4501  1.5370 -0.5016
 1059TIP3    H224669   2.287   5.442  15.250 -2.6083 -0.6464 -0.2822
 1060TIP3   OH224670   2.037   3.670   1.744  0.0031  0.5136 -0.7187
 1060TIP3    H124671   2.023   3.628   1.830  0.2760  0.8657 -0.5011
 1060TIP3    H224672   2.054   3.597   1.685  1.5607  0.3760 -0.1269
 1061TIP3   OH224673   1.164   3.642  15.766 -0.1522 -0.3968  0.4138
 1061TIP3    H124674   1.089   3.676  15.719  0.6962  0.3787 -0.4022
 1061TIP3    H224675   1.169   3.549  15.741 -1.1205 -0.5799  0.8756
 1062TIP3   OH224676   5.360   5.538   4.130  0.5755 -0.4609 -0.0008
 1062TIP3    H124677   5.436   5.482   4.113  0.0076 -0.7272 -1.8183
 1062TIP3    H224678   5.397   5.627   4.134  0.9600 -0.5424 -1.2823
 1063TIP3   OH224679   4.848   6.161   3.326 -0.2855  0.1349  0.2289
 1063TIP3    H124680   4.928   6.170   3.378  0.1986  0.4206 -0.5688
 1063TIP3    H224681   4.878   6.139   3.238 -1.0373  0.9512 -0.2474
 1064TIP3   OH224682   2.317   1.271   4.386  0.1066 -0.4419  0.7866
 1064TIP3    H124683   2.339   1.204   4.321  0.7578  0.7027 -0.1885
 1064TIP3    H224684   2.222   1.268   4.393 -0.1748  0.9142 -1.8694
 1065TIP3   OH224685   4.832   1.455   5.204 -0.1872  1.1139 -0.3568
 1065TIP3    H124686   4.775   1.422   5.134  1.4255 -1.6806 -0.4371
 1065TIP3    H224687   4.791   1.425   5.284  1.7608 -2.0653 -0.4642
 1066TIP3   OH224688   4.917   1.351   5.468 -0.2625 -0.5667  0.0599
 1066TIP3    H124689   4.924   1.272   5.522  0.0173 -0.8791 -0.4266
 1066TIP3    H224690   4.968   1.331   5.390  0.0802  0.2264  0.0774
 1067TIP3   OH224691   2.266   1.169  14.060 -0.0441 -0.1208  0.3401
 1067TIP3    H124692   2.207   1.119  14.117  1.7014 -0.9106  1.5229
 1067TIP3    H224693   2.218   1.249  14.039 -0.9706 -0.0637  2.4992
 1068TIP3   OH224694   4.234   0.143  12.221  0.3371  0.4737 -0.3810
 1068TIP3    H124695   4.301   0.174  12.283  1.2044 -1.6130 -0.2598
 1068TIP3    H224696   4.155   0.191  12.246  0.7334 -0.1654  2.2332
 1069TIP3   OH224697   6.664   6.222  16.020  0.3045 -0.1393  0.1032
 1069TIP3    H124698   6.688   6.162  16.090 -0.3667  0.6701  1.0405
 1069TIP3    H224699   6.740   6.279  16.009 -0.6688  1.6778  2.2793
 1070TIP3   OH224700   4.028   6.254  11.572 -0.1547  0.3099  0.2477
 1070TIP3    H124701   3.942   6.215  11.557  1.2062 -2.6674  0.0211
 1070TIP3    H224702   4.010   6.327  11.633 -2.6998 -0.8221  0.9204
 1071TIP3   OH224703   3.285   3.141  15.468  0.4137 -0.2274  0.4374
 1071TIP3    H124704   3.197   3.175  15.452  0.7554 -0.5543 -2.4334
 1071TIP3    H224705   3.344   3.202  15.424  1.4134 -1.5776 -0.1327
 1072TIP3   OH224706   4.827   3.679  15.814  0.2070  0.3106  0.0129
 1072TIP3    H124707   4.829   3.698  15.908  0.6134  0.4702 -0.0271
 1072TIP3    H224708   4.734   3.678  15.792  0.1667  2.9164 -0.1089
 1073TIP3   OH224709   5.373   2.107   3.879 -0.3711  0.0365  0.0525
 1073TIP3    H124710   5.424   2.041   3.926  1.2626  0.9815 -0.3456
 1073TIP3    H224711   5.312   2.141   3.945 -1.6587 -2.2811  0.0943
 1074TIP3   OH224712   5.794   4.008   2.551  0.0050 -0.0344 -0.4435
 1074TIP3    H124713   5.809   3.914   2.544  1.6153  0.1273  0.6343
 1074TIP3    H224714   5.742   4.019   2.630 -1.3952 -0.1332 -1.3400
 1075TIP3   OH224715   1.931   5.158  16.025 -1.0473  0.1755  0.1344
 1075TIP3    H124716   2.004   5.110  15.986 -2.0284 -1.3266  0.1265
 1075TIP3    H224717   1.938   5.140  16.119 -0.1330  1.8241  0.4171
 1076TIP3   OH224718   2.997   4.130  16.822 -0.3078 -0.1260 -0.0123
 1076TIP3    H124719   3.054   4.096  16.753  0.2162  0.0852  0.3202
 1076TIP3    H224720   2.969   4.052  16.870 -0.1038 -0.2045 -0.0214
 1077TIP3   OH224721   0.527   3.743   4.773  0.6504 -0.6011  0.0682
 1077TIP3    H124722   0.598   3.753   4.710  0.5795 -1.4872 -0.1610
 1077TIP3    H224723   0.451   3.781   4.729  1.4350  2.3741  1.1884
 1078TIP3   OH224724   4.553   5.519   3.817  0.0251  0.0851 -0.1542
 1078TIP3    H124725   4.598   5.590   3.771 -0.0488 -0.3561 -0.9355
 1078TIP3    H224726   4.618   5.448   3.821 -0.0341  0.0536  0.2489
 1079TIP3   OH224727   2.798   2.295  12.452 -0.3548  0.2234 -0.1726
 1079TIP3    H124728   2.727   2.350  12.485 -0.4418 -0.2149  0.3759
 1079TIP3    H224729   2.765   2.259  12.369 -1.5141 -1.4738  0.9979
 1080TIP3   OH224730   2.337   6.202   2.139  1.0300 -0.2657  0.9162
 1080TIP3    H124731   2.252   6.181   2.178  0.0356 -0.4666 -1.3168
 1080TIP3    H224732   2.373   6.271   2.195 -1.6329  1.4881  0.5221
 1081TIP3   OH224733   1.498   0.474   5.521  0.6669  0.2426  0.6745
 1081TIP3    H124734   1.421   0.427   5.551  0.4668  1.5340  2.2195
 1081TIP3    H224735   1.535   0.418   5.452 -1.3952 -0.5711  0.2047
 1082TIP3   OH224736   5.724   6.728   0.199  0.1059 -0.9276 -0.3260
 1082TIP3    H124737   5.645   6.715   0.146 -1.6875  1.8264  1.5503
 1082TIP3    H224738   5.768   6.803   0.160 -0.4500  0.1954  1.1651
 1083TIP3   OH224739   0.489   2.223   3.710  0.1075 -0.3056  0.2037
 1083TIP3    H124740   0.428   2.215   3.637  0.7740  3.2945 -0.8843
 1083TIP3    H224741   0.453   2.294   3.763  0.9160 -1.2584  2.0585
 1084TIP3   OH224742   3.599   5.958  13.567  0.3799  0.6127 -0.4953
 1084TIP3    H124743   3.669   5.894  13.555 -0.9763 -1.6143  2.6866
 1084TIP3    H224744   3.610   5.989  13.657 -2.3027  0.7051 -0.1481
 1085TIP3   OH224745   0.232   0.360  11.064  0.3100  0.1886  0.1741
 1085TIP3    H124746   0.233   0.266  11.080 -0.8757  0.4082  1.5891
 1085TIP3    H224747   0.194   0.369  10.977  0.1156 -0.6216  0.1729
 1086TIP3   OH224748   1.159   4.912   4.237 -0.3750  0.1750  0.4989
 1086TIP3    H124749   1.202   4.889   4.320 -0.1549 -1.4388 -0.0415
 1086TIP3    H224750   1.066   4.912   4.257 -0.3054  0.1335  0.8238
 1087TIP3   OH224751   1.505   5.586  15.216  0.7129 -0.4658  0.4560
 1087TIP3    H124752   1.517   5.681  15.220  0.9537 -0.4466 -0.4776
 1087TIP3    H224753   1.497   5.559  15.307 -1.5861  0.7315  0.6714
 1088TIP3   OH224754   4.494   1.088  13.917 -0.5655  0.4163 -0.2723
 1088TIP3    H124755   4.579   1.044  13.924 -1.3917 -1.2884 -0.5436
 1088TIP3    H224756   4.503   1.148  13.843 -0.0088 -0.7439 -1.1631
 1089TIP3   OH224757   0.091   2.373  11.625  0.4227  0.5361 -0.3839
 1089TIP3    H124758   0.161   2.316  11.656  0.1138  0.6469  0.5474
 1089TIP3    H224759   0.108   2.385  11.532 -0.0988 -1.9403 -0.8421
 1090TIP3   OH224760   0.205   0.337  13.477  0.2915 -0.1238 -0.0867
 1090TIP3    H124761   0.141   0.311  13.543  3.6019  1.2265  3.8424
 1090TIP3    H224762   0.243   0.254  13.447 -2.2723 -0.8458 -1.5144
 1091TIP3   OH224763   3.133   1.981  13.875  0.1426  0.1342  0.4454
 1091TIP3    H124764   3.049   2.011  13.840  0.5749 -0.2826 -0.9577
 1091TIP3    H224765   3.134   1.887  13.857  2.2794  0.6523 -2.4552
 1092TIP3   OH224766   3.004   3.755  14.366  0.1581 -0.4450  0.0504
 1092TIP3    H124767   3.093   3.768  14.334  0.9601  0.0879  2.3771
 1092TIP3    H224768   2.957   3.835  14.341 -0.2356 -1.5392 -2.8801
 1093TIP3   OH224769   4.164   3.733  11.829 -0.2335 -0.6819 -0.2675
 1093TIP3    H124770   4.217   3.757  11.905 -0.4609  0.1108 -0.3623
 1093TIP3    H224771   4.223   3.744  11.754 -0.5234  0.1729 -0.3695
 1094TIP3   OH224772   6.028   3.154   4.729 -0.1649 -0.5929 -0.3610
 1094TIP3    H124773   5.949   3.160   4.783 -0.7437  0.9674 -1.3604
 1094TIP3    H224774   6.099   3.180   4.787 -0.4939 -1.1322  0.2918
 1095TIP3   OH224775   5.399   1.091  16.434 -0.1656  0.6429 -0.0631
 1095TIP3    H124776   5.393   1.186  16.423 -0.1735  0.6517  0.0167
 1095TIP3    H224777   5.351   1.055  16.360  2.0489  0.6617 -1.5492
 1096TIP3   OH224778   3.817   5.030   3.769 -0.5926 -0.1594 -0.0131
 1096TIP3    H124779   3.832   5.086   3.693  0.0999  1.3173  1.1911
 1096TIP3    H224780   3.783   4.948   3.732 -0.5827  0.6538 -1.8749
 1097TIP3   OH224781   2.849   6.757  10.775  0.1072  0.0081  0.7126
 1097TIP3    H124782   2.899   6.795  10.703  0.5933 -0.5647  0.7500
 1097TIP3    H224783   2.788   6.697  10.732  0.9617 -0.9604  0.8347
 1098TIP3   OH224784   1.531   6.678   2.585  0.6092  0.1821 -0.2134
 1098TIP3    H124785   1.465   6.739   2.617 -0.1325 -0.3352 -0.7630
 1098TIP3    H224786   1.595   6.673   2.657  0.7520  1.6945 -0.2125
 1099TIP3   OH224787   2.226   3.463  14.588 -0.8208  0.1757 -0.2208
 1099TIP3    H124788   2.210   3.384  14.640  2.4624  0.0756  0.7988
 1099TIP3    H224789   2.225   3.433  14.497 -1.9179 -0.5876  0.0393
 1100TIP3   OH224790   1.010   1.456   5.518 -0.1805 -0.0964 -0.0367
 1100TIP3    H124791   0.946   1.474   5.587 -0.7972  0.3159 -0.7105
 1100TIP3    H224792   1.092   1.444   5.565 -0.4882  0.7314  0.7352
 1101TIP3   OH224793   6.141   0.770  16.814 -0.1206  0.3692  0.0633
 1101TIP3    H124794   6.205   0.747  16.747 -0.4492 -0.2993 -0.0263
 1101TIP3    H224795   6.183   0.839  16.865  0.4551  0.3105 -0.3309
 1102TIP3   OH224796   0.342   1.878   5.608  0.1861 -0.3863 -0.5349
 1102TIP3    H124797   0.314   1.966   5.635  3.3142 -0.1725  2.2801
 1102TIP3    H224798   0.303   1.867   5.521 -3.8561  2.0284  0.7986
 1103TIP3   OH224799   4.895   0.509   2.661  0.4955  0.4128 -0.8022
 1103TIP3    H124800   4.856   0.500   2.574  1.4776  2.1971 -1.4557
 1103TIP3    H224801   4.967   0.571   2.649  1.3588 -0.1805  1.0638
 1104TIP3   OH224802   1.001   0.042  15.742 -0.2869  0.0094  0.2958
 1104TIP3    H124803   1.053   0.096  15.802 -2.5168  0.9707  1.4471
 1104TIP3    H224804   0.919   0.091  15.732 -0.3559 -0.6329 -2.7815
 1105TIP3   OH224805   3.394   4.010   4.704  0.7461 -0.7005 -0.2469
 1105TIP3    H124806   3.309   4.052   4.692  0.7828 -0.4648  0.2864
 1105TIP3    H224807   3.380   3.948   4.776  0.4276 -2.3483 -1.6958
 1106TIP3   OH224808   1.270   3.200  14.715 -0.6420  0.1955 -0.3984
 1106TIP3    H124809   1.278   3.282  14.666  0.2325  0.2520 -0.1776
 1106TIP3    H224810   1.336   3.142  14.675 -1.0175 -0.2833 -0.3267
 1107TIP3   OH224811   1.995   0.588   4.462  0.7948 -0.5045  0.0852
 1107TIP3    H124812   1.972   0.615   4.373 -1.6811 -1.9813  0.2318
 1107TIP3    H224813   2.040   0.664   4.499  0.1957  0.8047 -1.8098
 1108TIP3   OH224814   4.025   4.639  11.994 -0.2166 -0.2541  0.5086
 1108TIP3    H124815   4.030   4.724  11.950 -0.3231 -0.1878  0.6234
 1108TIP3    H224816   4.008   4.661  12.086 -1.9327 -0.4386  0.2634
 1109TIP3   OH224817   0.137   2.209  10.867  0.2147 -0.5190 -0.1374
 1109TIP3    H124818   0.091   2.193  10.949  0.0886  0.6581  0.0338
 1109TIP3    H224819   0.139   2.304  10.859 -0.8209 -0.6433 -2.1064
 1110TIP3   OH224820   1.996   5.026  15.472 -0.1192  0.5985 -0.6493
 1110TIP3    H124821   1.992   4.943  15.519  2.5268 -0.0868 -1.5193
 1110TIP3    H224822   1.914   5.070  15.493 -1.6987 -2.3472 -0.3741
 1111TIP3   OH224823   1.773   4.856  14.672  0.3257 -0.4012 -0.1140
 1111TIP3    H124824   1.735   4.787  14.618  0.6678 -0.5373 -0.1777
 1111TIP3    H224825   1.701   4.918  14.686  0.8088  0.7506 -2.5341
 1112TIP3   OH224826   0.584   5.640  14.021  0.0318 -0.4242 -0.0310
 1112TIP3    H124827   0.644   5.628  13.948  1.1628  0.5730  0.7068
 1112TIP3    H224828   0.629   5.703  14.079 -1.3197 -0.3519  0.9705
 1113TIP3   OH224829   6.095   3.474   1.057  0.0926  0.2122  0.3781
 1113TIP3    H124830   6.089   3.495   1.150  0.2256 -0.4943  0.5515
 1113TIP3    H224831   6.189   3.474   1.038  0.1518 -1.0111  0.5790
 1114TIP3   OH224832   5.226   5.125   3.660 -0.2306 -0.1702  0.7646
 1114TIP3    H124833   5.314   5.093   3.638  0.1365  0.5593  1.1523
 1114TIP3    H224834   5.170   5.093   3.589  0.5990  0.5038 -0.2127
 1115TIP3   OH224835   3.721   6.413   3.551 -0.1880  0.6712  0.4668
 1115TIP3    H124836   3.688   6.501   3.569  0.1597  1.0046 -0.4689
 1115TIP3    H224837   3.645   6.366   3.515 -0.4904  0.4511  1.3859
 1116TIP3   OH224838   5.364   4.839  15.961  0.1719  0.1702 -0.0740
 1116TIP3    H124839   5.385   4.752  15.927 -0.3351 -0.5941  1.5094
 1116TIP3    H224840   5.409   4.843  16.045 -2.3560  0.2127  1.3231
 1117TIP3   OH224841   2.738   5.143  10.422  0.3266  0.4000  0.1746
 1117TIP3    H124842   2.676   5.207  10.457  0.4793 -0.6044  2.3080
 1117TIP3    H224843   2.697   5.058  10.436  0.6640 -0.0616 -1.5495
 1118TIP3   OH224844   4.412   4.939   2.804 -0.1515 -0.1102 -0.3428
 1118TIP3    H124845   4.380   4.859   2.846  1.3651 -0.6401 -0.1563
 1118TIP3    H224846   4.391   4.927   2.711 -3.3579  0.9918  0.1850
 1119TIP3   OH224847   2.384   0.908   5.575 -0.2189 -0.7576 -0.1380
 1119TIP3    H124848   2.384   0.920   5.670  1.9789 -1.9533  0.0530
 1119TIP3    H224849   2.292   0.893   5.552 -0.9800  1.0316  1.5748
 1120TIP3   OH224850   4.131   3.987   3.298 -0.2333  0.2348  0.5455
 1120TIP3    H124851   4.084   4.018   3.375 -1.0482 -0.1429  0.1992
 1120TIP3    H224852   4.170   3.904   3.324  0.9175  0.9186  1.0801
 1121TIP3   OH224853   4.272   3.710  16.302 -0.3564 -1.1326 -0.0974
 1121TIP3    H124854   4.218   3.715  16.223 -1.4708 -0.7596  0.6769
 1121TIP3    H224855   4.223   3.652  16.360 -1.3834  1.5082  1.7267
 1122TIP3   OH224856   4.902   5.211   3.412 -0.3197 -0.0413 -1.1650
 1122TIP3    H124857   4.964   5.280   3.434 -0.1209 -0.2543 -1.0533
 1122TIP3    H224858   4.956   5.133   3.400 -0.9035 -1.2774  3.2210
 1123TIP3   OH224859   5.496   1.248  17.034  0.6643  0.0975  0.5524
 1123TIP3    H124860   5.426   1.309  17.059 -0.4925 -1.1573  0.4576
 1123TIP3    H224861   5.450   1.174  16.995  2.2065  0.2854 -1.6968
 1124TIP3   OH224862   6.571   2.476  16.092  0.0159 -0.7150 -0.5017
 1124TIP3    H124863   6.611   2.508  16.011  1.8188 -1.4454  0.0821
 1124TIP3    H224864   6.487   2.523  16.097  0.2667 -0.0194 -2.3345
 1125TIP3   OH224865   0.712   0.788  14.263 -0.3797  0.6213 -0.0784
 1125TIP3    H124866   0.735   0.740  14.184  2.5879 -1.5290  2.0085
 1125TIP3    H224867   0.618   0.772  14.273 -0.4887 -0.3830 -2.2859
 1126TIP3   OH224868   2.175   5.421   3.844  0.5238  0.1538  0.6880
 1126TIP3    H124869   2.226   5.343   3.865  0.2983 -0.0909  0.3352
 1126TIP3    H224870   2.105   5.389   3.786  1.0294  0.7835 -0.2916
 1127TIP3   OH224871   0.985   2.608  15.823  0.3008 -0.0881 -0.3358
 1127TIP3    H124872   1.051   2.539  15.829  1.0033  0.6367  0.3538
 1127TIP3    H224873   1.033   2.689  15.839 -0.9291  0.3708  1.1387
 1128TIP3   OH224874   3.511   2.275  15.654  0.4481  0.4418  0.1721
 1128TIP3    H124875   3.444   2.338  15.680  0.6343  0.6358  0.1779
 1128TIP3    H224876   3.525   2.291  15.561 -1.6185 -1.5315 -0.5473
 1129TIP3   OH224877   1.077   5.246   0.557  0.1755  0.1795 -0.4342
 1129TIP3    H124878   1.027   5.310   0.506  1.7677  1.0049 -0.9966
 1129TIP3    H224879   1.162   5.288   0.571  1.0615 -1.5982 -0.3432
 1130TIP3   OH224880   0.151   5.607  13.902  0.4925  0.0150 -0.3316
 1130TIP3    H124881   0.084   5.674  13.890  0.4092 -0.0159 -0.0460
 1130TIP3    H224882   0.234   5.656  13.898  0.3578  0.5136  2.2535
 1131TIP3   OH224883   3.775   4.876  16.448  0.0052  0.7716  0.1732
 1131TIP3    H124884   3.795   4.786  16.472 -0.6202  0.5272 -0.2086
 1131TIP3    H224885   3.732   4.869  16.363  1.7610  1.5877 -0.8200
 1132TIP3   OH224886   2.135   0.815  13.096  0.3096 -0.0693  0.2694
 1132TIP3    H124887   2.067   0.876  13.125 -0.0284  0.4820 -1.6224
 1132TIP3    H224888   2.088   0.745  13.052  0.9197  0.0742 -0.6367
 1133TIP3   OH224889   3.649   0.818   3.660  0.0358  0.5935  0.1690
 1133TIP3    H124890   3.580   0.860   3.609  0.3141 -1.8250 -2.3699
 1133TIP3    H224891   3.618   0.820   3.750 -1.8941  2.2956 -0.4976
 1134TIP3   OH224892   1.749   3.605   3.083  0.7279  0.0896 -0.1206
 1134TIP3    H124893   1.713   3.687   3.118 -0.4003 -0.6848  0.5801
 1134TIP3    H224894   1.712   3.600   2.995 -1.2736 -0.9010  0.7383
 1135TIP3   OH224895   3.582   5.481  12.641  0.5956  0.8515  0.2611
 1135TIP3    H124896   3.654   5.526  12.597  0.9847  1.7237  1.7388
 1135TIP3    H224897   3.547   5.546  12.702  1.2544 -0.8391  2.5133
 1136TIP3   OH224898   1.381   1.955   4.680 -0.1245 -0.2847 -0.0309
 1136TIP3    H124899   1.455   1.981   4.624 -0.3343 -1.3049 -0.7914
 1136TIP3    H224900   1.307   1.951   4.620 -0.7970  0.6393  0.7172
 1137TIP3   OH224901   0.616   4.951   4.094  0.0173  0.2274  0.5223
 1137TIP3    H124902   0.699   4.982   4.129  0.2978  0.2808 -0.1753
 1137TIP3    H224903   0.551   4.979   4.157  0.5404  0.0990  1.1232
 1138TIP3   OH224904   1.660   6.771   6.519 -0.2764 -0.3788 -0.0848
 1138TIP3    H124905   1.600   6.827   6.470  0.4547  0.6041  0.1371
 1138TIP3    H224906   1.603   6.719   6.576 -0.7271  2.6568  2.3048
 1139TIP3   OH224907   3.080   2.088   4.042  0.0838  0.3969 -0.9071
 1139TIP3    H124908   3.145   2.144   4.086 -0.2105 -0.8954  1.2396
 1139TIP3    H224909   3.003   2.144   4.033  0.3365  0.8668 -0.2483
 1140TIP3   OH224910   2.398   4.323  12.009 -0.4453  0.3875 -0.1366
 1140TIP3    H124911   2.450   4.245  11.991 -0.0482  0.9128 -1.3086
 1140TIP3    H224912   2.321   4.314  11.953 -0.2943  0.9354 -0.4392
 1141TIP3   OH224913   6.263   3.311   3.234  0.0472  0.1686 -0.2558
 1141TIP3    H124914   6.232   3.281   3.149 -1.3152  1.0988 -0.1075
 1141TIP3    H224915   6.343   3.261   3.249 -0.5752 -1.2190 -1.3323
 1142TIP3   OH224916   4.713   4.596   5.038 -0.5195 -0.3112 -0.0716
 1142TIP3    H124917   4.619   4.611   5.027 -0.6143 -2.3435 -2.3337
 1142TIP3    H224918   4.753   4.645   4.967  0.0408 -0.5865  0.0525
 1143TIP3   OH224919   3.482   3.239  14.272  0.3866 -0.1522  0.2055
 1143TIP3    H124920   3.525   3.162  14.235  0.6239  0.3278 -0.5405
 1143TIP3    H224921   3.391   3.213  14.283  0.6058 -0.7665  0.6193
 1144TIP3   OH224922   6.680   0.198   1.546  0.4283 -0.0421 -0.3101
 1144TIP3    H124923   6.706   0.201   1.454 -0.4736 -0.6597 -0.5890
 1144TIP3    H224924   6.715   0.279   1.583 -0.2173  0.7805 -1.4657
 1145TIP3   OH224925   4.336   0.368  14.669  0.2081 -0.8751  0.0524
 1145TIP3    H124926   4.423   0.387  14.704  0.5569 -2.9020  0.3399
 1145TIP3    H224927   4.295   0.310  14.733 -0.3070 -2.1451 -1.3774
 1146TIP3   OH224928   3.211   6.652   5.274  0.3835  0.2150  0.2073
 1146TIP3    H124929   3.284   6.594   5.253  1.9990  2.8109 -1.5998
 1146TIP3    H224930   3.133   6.602   5.247  1.7093 -1.2472 -1.0232
 1147TIP3   OH224931   2.053   3.383  12.697 -0.0078  0.2726  0.2609
 1147TIP3    H124932   2.089   3.464  12.732 -2.2338  1.7748 -0.7970
 1147TIP3    H224933   2.110   3.314  12.731  1.8875  2.2669  1.2132
 1148TIP3   OH224934   0.877   4.402   2.791  0.1129  0.2139 -0.4211
 1148TIP3    H124935   0.881   4.418   2.886 -0.0568  0.1136 -0.3971
 1148TIP3    H224936   0.953   4.346   2.773 -0.5341 -0.7599 -0.1492
 1149TIP3   OH224937   1.519   1.794   0.682 -0.4301 -0.3757 -0.1603
 1149TIP3    H124938   1.453   1.729   0.706  0.1278 -1.4664 -1.5005
 1149TIP3    H224939   1.570   1.752   0.612  1.1516  0.7715  0.2721
 1150TIP3   OH224940   5.750   5.887   2.155  0.4157  0.2849  0.1204
 1150TIP3    H124941   5.674   5.926   2.112 -0.7173  0.0084  1.8498
 1150TIP3    H224942   5.794   5.839   2.084 -0.7954  0.7593 -0.9843
 1151TIP3   OH224943   0.286   3.829   5.356  0.4043  0.7872  0.3949
 1151TIP3    H124944   0.247   3.781   5.429 -1.2733 -1.5615 -1.9528
 1151TIP3    H224945   0.222   3.898   5.337 -0.4238 -0.2069 -0.4879
 1152TIP3   OH224946   3.158   4.189   4.909 -0.2063 -0.4467  0.2621
 1152TIP3    H124947   3.103   4.261   4.938 -1.7220 -1.7042  0.5515
 1152TIP3    H224948   3.173   4.137   4.988  2.6717  0.6663  0.5373
 1153TIP3   OH224949   0.548   3.908   6.394 -0.1296 -0.6309 -0.0210
 1153TIP3    H124950   0.505   3.963   6.459  1.2464  0.2002  0.1999
 1153TIP3    H224951   0.642   3.918   6.412  0.3079  0.2261 -2.6041
 1154TIP3   OH224952   3.529   1.338   3.531  0.1590 -0.2112 -0.0424
 1154TIP3    H124953   3.504   1.426   3.507 -0.3449  0.6696  3.4322
 1154TIP3    H224954   3.460   1.282   3.496 -0.6159  0.9707 -0.4131
 1155TIP3   OH224955   4.969   0.789  10.820 -0.3702  0.5561 -0.4335
 1155TIP3    H124956   5.050   0.739  10.821  0.6496  2.1792 -0.3525
 1155TIP3    H224957   4.995   0.877  10.790 -1.8701  1.4481  0.7936
 1156TIP3   OH224958   4.384   4.413   1.445 -0.4802  0.1480  0.2929
 1156TIP3    H124959   4.400   4.506   1.460 -0.8677  0.1661  0.6151
 1156TIP3    H224960   4.324   4.411   1.370 -0.4607  0.1562  0.2771
 1157TIP3   OH224961   4.247   3.316  14.959  0.1838 -0.1089  0.2823
 1157TIP3    H124962   4.339   3.305  14.936  0.4692 -0.4961  1.5355
 1157TIP3    H224963   4.205   3.346  14.879  1.3037 -0.4621 -0.4445
 1158TIP3   OH224964   6.325   1.832   1.094  0.1930  0.2528 -0.1660
 1158TIP3    H124965   6.318   1.828   1.190 -0.9947  0.6684 -0.2196
 1158TIP3    H224966   6.290   1.918   1.072  0.4109  0.1310 -0.9843
 1159TIP3   OH224967   4.955   2.390   0.255 -0.2187  0.4348 -0.7375
 1159TIP3    H124968   5.026   2.336   0.288 -1.6354 -1.7872 -1.1998
 1159TIP3    H224969   4.887   2.384   0.322 -1.2726 -0.2209 -1.8502
 1160TIP3   OH224970   3.919   3.849   5.696 -0.5496  0.6385 -0.1843
 1160TIP3    H124971   3.998   3.898   5.718 -1.0113  0.5592  1.7122
 1160TIP3    H224972   3.940   3.758   5.713 -1.0522  0.6185  0.3625
 1161TIP3   OH224973   2.356   1.007  14.778  0.3717 -0.1085 -0.1291
 1161TIP3    H124974   2.401   0.922  14.771 -0.9319 -0.8665  0.3613
 1161TIP3    H224975   2.377   1.052  14.697 -1.9703 -2.4751 -2.1556
 1162TIP3   OH224976   6.076   0.766  15.600  0.4981  0.4522 -0.2287
 1162TIP3    H124977   5.983   0.742  15.601  0.6943 -0.3473 -1.0390
 1162TIP3    H224978   6.097   0.774  15.507  0.7356  2.5997 -0.0119
 1163TIP3   OH224979   1.021   5.715  16.344 -0.7303  0.3318  0.4939
 1163TIP3    H124980   0.934   5.754  16.343 -1.0951 -0.4538  1.0177
 1163TIP3    H224981   1.014   5.639  16.286  0.1613  1.4189 -1.0710
 1164TIP3   OH224982   3.337   1.176   3.345 -0.5806  0.0476 -0.2239
 1164TIP3    H124983   3.297   1.217   3.422 -1.0575 -3.3325  1.4098
 1164TIP3    H224984   3.262   1.140   3.296 -0.1188  0.4182 -1.2039
 1165TIP3   OH224985   3.526   2.394   4.763 -0.0367 -0.1305 -0.0453
 1165TIP3    H124986   3.507   2.353   4.678 -0.5689 -0.4679  0.2311
 1165TIP3    H224987   3.460   2.357   4.822  2.5040 -2.6411  1.3319
 1166TIP3   OH224988   4.962   6.675   4.004  0.6608  0.1146 -0.1705
 1166TIP3    H124989   4.915   6.758   4.016  0.7187  0.3182 -1.2606
 1166TIP3    H224990   4.915   6.632   3.933  1.4370 -0.1993 -0.4911
 1167TIP3   OH224991   2.756   0.384   2.079  0.0192  0.1826 -0.3376
 1167TIP3    H124992   2.800   0.451   2.026  0.1079  0.1856 -0.2599
 1167TIP3    H224993   2.825   0.348   2.135 -0.6745  2.3532  2.0364
 1168TIP3   OH224994   3.202   1.964   3.837 -0.0055  0.1099 -0.7546
 1168TIP3    H124995   3.153   2.010   3.905  0.4889  1.0444 -1.0214
 1168TIP3    H224996   3.148   1.972   3.758 -0.4968 -0.8246 -0.5196
 1169TIP3   OH224997   0.877   2.555  13.161 -0.1882  0.0979 -0.0958
 1169TIP3    H124998   0.828   2.479  13.191 -1.1741  0.0159 -1.8525
 1169TIP3    H224999   0.812   2.609  13.116  0.8881  1.0378 -0.5459
 1170TIP3   OH225000   1.745   2.680  16.840 -0.1961 -0.3097 -0.0278
 1170TIP3    H125001   1.759   2.690  16.746 -0.3965 -0.0679 -0.0349
 1170TIP3    H225002   1.719   2.768  16.869 -1.5511 -0.7093  0.0025
 1171TIP3   OH225003   5.444   2.334  15.764  0.4904 -0.1140 -0.4545
 1171TIP3    H125004   5.458   2.347  15.858 -1.6584  3.5462 -0.5420
 1171TIP3    H225005   5.371   2.272  15.759 -0.3737  0.8197  0.3340
 1172TIP3   OH225006   0.277   5.580   5.812  0.3696  0.3165 -0.7436
 1172TIP3    H125007   0.359   5.590   5.861  0.1353 -0.6888 -0.1373
 1172TIP3    H225008   0.297   5.513   5.746  0.4962  1.2100 -1.6257
 1173TIP3   OH225009   2.492   6.214  12.468 -0.3730 -0.6822  0.5724
 1173TIP3    H125010   2.564   6.165  12.428 -1.1540 -1.5667  0.2475
 1173TIP3    H225011   2.448   6.257  12.394 -2.1203 -2.7153  0.3842
 1174TIP3   OH225012   4.151   0.724  12.853  0.4369  0.0456  0.2391
 1174TIP3    H125013   4.240   0.694  12.832  0.3985 -0.2357  0.4659
 1174TIP3    H225014   4.100   0.703  12.775  0.4681 -0.2396  0.2928
 1175TIP3   OH225015   0.178   2.699   3.649 -0.1135 -0.2611 -0.7926
 1175TIP3    H125016   0.115   2.679   3.579 -0.5803  0.3018 -0.5398
 1175TIP3    H225017   0.171   2.626   3.709 -0.6517 -0.1275 -0.6847
 1176TIP3   OH225018   3.851   6.457   3.952 -0.5951 -0.2829 -0.1177
 1176TIP3    H125019   3.933   6.486   3.992 -1.2354  0.1711  0.8901
 1176TIP3    H225020   3.878   6.393   3.886  0.7911  1.9730 -1.8310
 1177TIP3   OH225021   2.015   1.625   1.248 -0.5598 -0.0705 -0.0972
 1177TIP3    H125022   2.057   1.631   1.162  0.0684 -1.5964  0.0761
 1177TIP3    H225023   1.924   1.650   1.232  0.1175  2.0755 -0.7167
 1178TIP3   OH225024   2.254   3.513   4.910 -0.1717  0.1455 -0.2068
 1178TIP3    H125025   2.258   3.440   4.849 -1.7803  0.5352 -0.7917
 1178TIP3    H225026   2.165   3.511   4.944  0.2396  0.8847  0.9587
 1179TIP3   OH225027   1.001   1.452  13.747 -0.5702  0.0323 -0.2652
 1179TIP3    H125028   0.925   1.489  13.704 -1.7443 -0.4745  1.3316
 1179TIP3    H225029   1.026   1.518  13.812  0.1080  0.0152 -0.5035
 1180TIP3   OH225030   1.094   0.515   5.820  0.0158  0.0329 -0.1560
 1180TIP3    H125031   1.055   0.593   5.860  0.5518  0.1347  0.1703
 1180TIP3    H225032   1.188   0.531   5.823  0.2189 -1.3502  1.4151
 1181TIP3   OH225033   4.559   6.738  14.898  0.1838  0.0922  0.4460
 1181TIP3    H125034   4.583   6.723  14.990 -2.6119  2.0700  1.6046
 1181TIP3    H225035   4.513   6.659  14.872 -2.0816  0.8389  1.9462
 1182TIP3   OH225036   4.254   2.012  12.212  0.1575  0.1199 -0.5615
 1182TIP3    H125037   4.214   2.084  12.163  0.8300 -0.0020 -1.3094
 1182TIP3    H225038   4.192   1.940  12.205 -0.3042  0.4857 -0.2071
 1183TIP3   OH225039   4.578   0.812  15.645 -0.4702  0.3844  0.0164
 1183TIP3    H125040   4.659   0.847  15.609 -0.9639  1.4208 -0.0888
 1183TIP3    H225041   4.576   0.845  15.735 -0.1820 -0.6347  0.4048
 1184TIP3   OH225042   5.834   4.548   0.825 -0.6558 -0.3001  0.3342
 1184TIP3    H125043   5.846   4.637   0.861  0.7269 -0.1229 -0.4994
 1184TIP3    H225044   5.812   4.563   0.733 -0.1297 -0.8288  0.1252
 1185TIP3   OH225045   4.410   5.541  11.348  0.7112  0.8298  0.5152
 1185TIP3    H125046   4.457   5.590  11.281 -2.8058  0.8763 -2.0839
 1185TIP3    H225047   4.350   5.604  11.386 -0.1930 -0.1845  0.8069
 1186TIP3   OH225048   2.636   4.155  15.166 -0.4848 -0.1875 -0.1107
 1186TIP3    H125049   2.656   4.135  15.075  0.4423  0.5648 -0.0647
 1186TIP3    H225050   2.544   4.182  15.165 -0.5203 -0.3359 -0.7963
 1187TIP3   OH225051   0.849   5.943  15.844  0.3112  0.1397 -0.4764
 1187TIP3    H125052   0.881   5.897  15.766  0.2912 -1.5554  0.4990
 1187TIP3    H225053   0.845   5.876  15.912  0.3530  1.6017  1.0105
 1188TIP3   OH225054   2.768   1.094  11.259  0.3530  0.0635  0.1386
 1188TIP3    H125055   2.785   1.165  11.197  0.4854 -0.0068  0.0946
 1188TIP3    H225056   2.755   1.137  11.343 -0.0015  0.1741  0.0312
 1189TIP3   OH225057   0.462   3.548  12.527  0.3364 -0.1956 -0.6315
 1189TIP3    H125058   0.374   3.512  12.535  0.3013  0.2984  1.6381
 1189TIP3    H225059   0.464   3.620  12.591  2.7375 -0.9486  0.1778
 1190TIP3   OH225060   0.645   2.264   2.723  0.3209 -0.0908 -0.1379
 1190TIP3    H125061   0.585   2.300   2.788 -0.2155 -2.0282  0.5018
 1190TIP3    H225062   0.597   2.266   2.641  0.3088  0.6600 -0.1148
 1191TIP3   OH225063   2.890   1.920   1.033  0.3273  0.0435  0.0281
 1191TIP3    H125064   2.978   1.927   1.069  0.3750 -0.6268  0.0630
 1191TIP3    H225065   2.903   1.898   0.941  0.2035  1.3102 -0.2979
 1192TIP3   OH225066   3.783   0.577   0.494 -0.4431 -0.2111 -0.0303
 1192TIP3    H125067   3.705   0.632   0.485 -0.6937 -0.3611  1.0846
 1192TIP3    H225068   3.773   0.510   0.427 -0.3936  0.7856 -1.0610
 1193TIP3   OH225069   5.776   5.820   0.809  0.2331  0.3335  0.5722
 1193TIP3    H125070   5.750   5.792   0.897  0.1046 -0.8532  0.1742
 1193TIP3    H225071   5.791   5.914   0.816 -0.7865  0.4178  1.6218
 1194TIP3   OH225072   2.716   5.666   5.198  0.1651  0.0528 -0.1370
 1194TIP3    H125073   2.695   5.578   5.168  0.2653  0.2419 -0.7667
 1194TIP3    H225074   2.759   5.707   5.123 -0.2969  0.7846 -0.0034
 1195TIP3   OH225075   1.738   5.881   4.043 -0.1749 -0.1303  0.3258
 1195TIP3    H125076   1.696   5.866   3.958  0.1734  0.7047  0.0074
 1195TIP3    H225077   1.832   5.884   4.024 -0.0886 -0.0435  0.7549
 1196TIP3   OH225078   2.971   4.048   5.167 -0.4790  0.2163 -0.2101
 1196TIP3    H125079   2.980   4.056   5.262 -0.2539 -1.8415 -0.0366
 1196TIP3    H225080   3.059   4.031   5.135 -0.7537 -0.4531 -0.6309
 1197TIP3   OH225081   2.126   0.937   5.550 -0.6509 -1.4244 -0.3217
 1197TIP3    H125082   2.125   1.028   5.519 -1.7372 -1.7354 -1.2374
 1197TIP3    H225083   2.054   0.933   5.613 -2.6183 -2.3889 -2.5439
 1198TIP3   OH225084   6.012   5.612   3.236 -0.1295 -0.2092 -0.5760
 1198TIP3    H125085   6.014   5.642   3.145 -0.1842  0.2927 -0.4158
 1198TIP3    H225086   5.967   5.682   3.283  0.3175 -0.2497 -0.0819
 1199TIP3   OH225087   0.610   6.247   5.076 -0.1221 -0.5739 -0.4220
 1199TIP3    H125088   0.597   6.313   5.144  2.7449  0.2406 -0.5920
 1199TIP3    H225089   0.563   6.281   5.000  2.1111  1.8074 -0.8018
 1200TIP3   OH225090   1.543   4.917   5.762  0.4491  0.4566  0.2703
 1200TIP3    H125091   1.585   4.879   5.685 -0.9500  1.5703 -1.0784
 1200TIP3    H225092   1.574   5.008   5.764  1.8058 -0.0289  2.0168
 1201TIP3   OH225093   0.950   6.519  15.595 -0.1237  0.3818 -0.0455
 1201TIP3    H125094   0.990   6.525  15.508 -0.2795 -0.1197 -0.1511
 1201TIP3    H225095   0.942   6.426  15.612  0.7474  0.4752  0.9009
 1202TIP3   OH225096   4.726   2.271   2.679 -1.0904  0.3449 -0.1103
 1202TIP3    H125097   4.752   2.309   2.763 -1.7411 -0.5415  0.5009
 1202TIP3    H225098   4.674   2.340   2.637 -0.0935  1.0901 -0.1478
 1203TIP3   OH225099   4.136   0.702  13.906 -1.3815 -0.4857  0.1846
 1203TIP3    H125100   4.125   0.699  13.811  0.6031  2.8203 -0.2230
 1203TIP3    H225101   4.055   0.742  13.938 -1.8726 -1.2187 -0.1135
 1204TIP3   OH225102   1.772   1.158   0.348  0.3874  0.1031  0.1507
 1204TIP3    H125103   1.783   1.135   0.441  0.1433  1.6930  0.5889
 1204TIP3    H225104   1.677   1.162   0.336  0.3911 -1.4806 -0.5382
 1205TIP3   OH225105   0.566   5.428  16.317 -0.7722  0.2337 -0.5495
 1205TIP3    H125106   0.504   5.469  16.256 -1.9322 -1.0213 -0.2210
 1205TIP3    H225107   0.512   5.399  16.391  0.4318  0.5236  0.4588
 1206TIP3   OH225108   4.848   1.114   0.603 -0.3774 -0.4271  0.2284
 1206TIP3    H125109   4.847   1.078   0.514 -3.4228  2.4930 -0.9855
 1206TIP3    H225110   4.933   1.158   0.610  0.2404 -1.3956 -0.8887
 1207TIP3   OH225111   6.098   4.172  12.502  0.1874 -0.7238 -0.2014
 1207TIP3    H125112   6.180   4.215  12.528 -0.1445  0.0078 -0.3505
 1207TIP3    H225113   6.122   4.080  12.491  0.6091 -0.8206  1.4374
 1208TIP3   OH225114   0.220   6.790   0.668  0.2700 -0.5798  0.3368
 1208TIP3    H125115   0.146   6.851   0.661  0.3362 -0.4342  0.9324
 1208TIP3    H225116   0.184   6.706   0.638  0.1306 -0.2927 -0.3088
 1209TIP3   OH225117   3.490   0.926  14.169  0.1376  0.5148 -0.3711
 1209TIP3    H125118   3.575   0.941  14.129  0.2844  2.4804  0.5925
 1209TIP3    H225119   3.506   0.863  14.239  0.8448  0.9799 -0.1114
 1210TIP3   OH225120   2.906   2.957  14.040  0.1531  0.0512  0.1805
 1210TIP3    H125121   2.873   2.888  14.097  0.2961 -1.0066 -0.9893
 1210TIP3    H225122   2.875   2.932  13.953 -0.3148  1.7966 -0.1647
 1211TIP3   OH225123   4.101   1.066  15.672 -0.6416  0.1763  0.0704
 1211TIP3    H125124   4.122   0.973  15.676  0.1870  0.1047 -3.5746
 1211TIP3    H225125   4.183   1.111  15.689 -0.5905  0.1702 -0.1500
 1212TIP3   OH225126   2.897   4.568  14.121  0.2393  0.1950 -0.1661
 1212TIP3    H125127   2.844   4.648  14.131  0.0121  0.0970 -0.5606
 1212TIP3    H225128   2.965   4.592  14.059  0.3407  0.1618 -0.0682
 1213TIP3   OH225129   3.507   3.363  15.497 -0.4757 -0.1954 -0.1297
 1213TIP3    H125130   3.455   3.404  15.566 -0.4839  1.2703 -0.9833
 1213TIP3    H225131   3.536   3.436  15.442 -0.7698 -1.3740 -1.8863
 1214TIP3   OH225132   5.112   1.514  16.131 -0.2060 -0.1754 -0.4203
 1214TIP3    H125133   5.178   1.582  16.145  0.1914 -0.1966 -2.1097
 1214TIP3    H225134   5.161   1.437  16.104 -0.8766 -0.3037 -1.2971
 1215TIP3   OH225135   1.040   0.124  10.802  0.7507 -0.0677  0.0443
 1215TIP3    H125136   1.013   0.184  10.734  1.6592  0.0970 -0.1785
 1215TIP3    H225137   1.080   0.050  10.755 -0.1570 -0.7389  0.3223
 1216TIP3   OH225138   0.237   5.701   4.831  0.6418 -0.0818  0.0103
 1216TIP3    H125139   0.286   5.637   4.883  1.2914  1.6294  1.5666
 1216TIP3    H225140   0.304   5.747   4.781  0.3354  0.2851 -0.0628
 1217TIP3   OH225141   4.831   6.682  13.862  0.6092  0.5129  0.1962
 1217TIP3    H125142   4.792   6.628  13.793  0.6210 -0.2739  0.7857
 1217TIP3    H225143   4.779   6.762  13.863  1.2639  0.9709 -1.4112
 1218TIP3   OH225144   4.760   4.427  15.741  0.8161  0.1712  0.1263
 1218TIP3    H125145   4.668   4.440  15.766  0.7014  0.1810 -0.2831
 1218TIP3    H225146   4.771   4.483  15.663  1.2838  0.5012  0.4273
 1219TIP3   OH225147   3.770   6.571   5.149 -0.5762 -0.1300 -0.3986
 1219TIP3    H125148   3.739   6.579   5.239  1.1118 -0.1863  0.2054
 1219TIP3    H225149   3.797   6.659   5.124 -2.0375  0.0985 -1.2407
 1220TIP3   OH225150   0.056   1.524   0.271 -0.5171 -0.3031  0.6852
 1220TIP3    H125151   0.070   1.481   0.187 -0.8556  1.4831 -0.3078
 1220TIP3    H225152  -0.037   1.548   0.271  0.0232  1.9612  0.4464
 1221TIP3   OH225153   1.851   6.111   1.302 -0.2831 -0.7776 -0.2679
 1221TIP3    H125154   1.788   6.101   1.231  1.5090 -0.0225 -2.0048
 1221TIP3    H225155   1.927   6.059   1.275  0.0687 -1.2518  1.5462
 1222TIP3   OH225156   5.212   0.445  11.718 -0.2228 -0.1913  0.4025
 1222TIP3    H125157   5.264   0.491  11.783  0.8721  0.2046 -0.7512
 1222TIP3    H225158   5.201   0.357  11.754 -2.9564  1.1174  2.9656
 1223TIP3   OH225159   1.090   4.351  11.621  0.8355 -0.6566  0.4124
 1223TIP3    H125160   0.995   4.353  11.630  0.6024 -3.0592 -1.2327
 1223TIP3    H225161   1.119   4.284  11.683  1.4397 -0.1172  0.7215
 1224TIP3   OH225162   6.472   5.685  11.377  0.3110  0.3858 -0.3797
 1224TIP3    H125163   6.384   5.679  11.414  0.5737 -1.1443  0.0084
 1224TIP3    H225164   6.530   5.661  11.450  0.8716 -2.0464 -1.5817
 1225TIP3   OH225165   5.415   4.699   3.086  0.2613  0.2261 -0.1577
 1225TIP3    H125166   5.355   4.766   3.054 -0.0145 -0.5763 -1.3616
 1225TIP3    H225167   5.492   4.707   3.029 -0.6795 -1.9442 -1.7978
 1226TIP3   OH225168   5.556   0.135  11.016  0.4245  0.2748  0.2422
 1226TIP3    H125169   5.584   0.067  10.954  1.3544 -0.7040  1.7094
 1226TIP3    H225170   5.617   0.207  11.002  0.5495  0.1069 -0.0735
 1227TIP3   OH225171   3.574   6.248   3.313  0.8449  0.2174  0.3398
 1227TIP3    H125172   3.613   6.162   3.297 -0.3489 -0.1890 -0.4326
 1227TIP3    H225173   3.494   6.230   3.361  0.3695  0.8759 -0.1976
 1228TIP3   OH225174   2.058   1.959  11.925  0.2238  0.5910 -0.3543
 1228TIP3    H125175   2.090   1.870  11.934 -0.5538  0.4484  1.1922
 1228TIP3    H225176   2.002   1.972  12.001 -0.1785  2.1840 -0.9037
 1229TIP3   OH225177   3.432   6.312   1.574  0.3831  0.7614 -0.2958
 1229TIP3    H125178   3.392   6.323   1.488  0.4151 -0.2903 -0.4526
 1229TIP3    H225179   3.420   6.219   1.594  0.1954  1.0368  0.9222
 1230TIP3   OH225180   0.113   0.987  14.635 -0.1451 -0.9429  0.5522
 1230TIP3    H125181   0.142   0.906  14.676  1.4741 -0.6555  0.0067
 1230TIP3    H225182   0.189   1.046  14.642 -0.6953 -0.0747 -0.6466
 1231TIP3   OH225183   5.710   3.369   6.187  0.0680  0.2601 -0.1570
 1231TIP3    H125184   5.764   3.445   6.209 -1.2128  1.2627 -0.3915
 1231TIP3    H225185   5.640   3.404   6.132 -2.2386 -0.5398  2.1069
 1232TIP3   OH225186   4.001   5.740   1.791 -0.1931  0.3137 -0.1935
 1232TIP3    H125187   4.058   5.663   1.799  1.2686  1.4112  0.3806
 1232TIP3    H225188   4.027   5.780   1.708 -1.6372 -0.3364 -0.9689
 1233TIP3   OH225189   5.137   3.585   5.119  0.0153  0.3774  0.7387
 1233TIP3    H125190   5.192   3.663   5.105  1.1767 -0.1234  2.3959
 1233TIP3    H225191   5.145   3.566   5.212 -2.8802  0.1935  1.0225
 1234TIP3   OH225192   2.736   2.951   4.999  0.3699  0.1408 -0.5480
 1234TIP3    H125193   2.807   2.891   5.022 -0.4923 -1.3354 -1.7076
 1234TIP3    H225194   2.781   3.030   4.969  1.5053  0.1995  1.1856
 1235TIP3   OH225195   2.968   4.757  12.919 -0.3086 -0.0048  0.4451
 1235TIP3    H125196   3.035   4.815  12.883 -0.5009  0.8495  1.4538
 1235TIP3    H225197   2.958   4.688  12.852  0.5750  0.6101 -0.3372
 1236TIP3   OH225198   3.727   5.484   0.470  0.6054  0.1178  0.4276
 1236TIP3    H125199   3.743   5.575   0.493 -0.2763  0.3994 -0.1027
 1236TIP3    H225200   3.771   5.472   0.386 -1.7445  0.8338 -0.9242
 1237TIP3   OH225201   4.417   3.739  10.537  0.3941 -0.2954  0.2446
 1237TIP3    H125202   4.449   3.829  10.543 -2.9353  1.1427 -1.9563
 1237TIP3    H225203   4.371   3.725  10.620 -3.9320  2.1922 -1.5297
 1238TIP3   OH225204   1.472   3.035  12.105 -0.1755 -0.1639  0.2710
 1238TIP3    H125205   1.475   3.053  12.011  1.4005  0.3376  0.4005
 1238TIP3    H225206   1.379   3.035  12.126 -0.4907  1.2035 -1.0067
 1239TIP3   OH225207   4.756   2.863   4.316 -0.5514 -0.2888  0.3347
 1239TIP3    H125208   4.715   2.949   4.318 -0.0706 -0.0062 -1.0456
 1239TIP3    H225209   4.738   2.830   4.227  0.3251 -1.0838  0.4412
 1240TIP3   OH225210   3.285   3.717  14.921  0.1151  0.1246  0.2725
 1240TIP3    H125211   3.375   3.704  14.889  0.2925  2.4825 -0.3051
 1240TIP3    H225212   3.235   3.736  14.842 -0.6618 -0.0598  0.7246
 1241TIP3   OH225213   4.523   1.747  12.992 -0.4592  0.0794  0.0079
 1241TIP3    H125214   4.546   1.816  12.930  0.6994  0.7473  1.1360
 1241TIP3    H225215   4.439   1.714  12.962  0.7766 -0.6847 -2.8081
 1242TIP3   OH225216   1.376   3.950   4.796  0.2167 -0.4374 -0.3867
 1242TIP3    H125217   1.351   4.000   4.718 -0.8074 -1.3699 -0.6845
 1242TIP3    H225218   1.370   3.859   4.768  0.8905 -0.7499  0.4839
 1243TIP3   OH225219   2.732   0.028   4.009 -0.3823 -0.5480 -0.4457
 1243TIP3    H125220   2.819  -0.002   4.035 -1.0314 -2.6832 -0.6570
 1243TIP3    H225221   2.740   0.047   3.915 -0.2521 -1.1857 -0.5670
 1244TIP3   OH225222   2.689   1.056   2.791  0.4526 -0.0237 -0.8009
 1244TIP3    H125223   2.774   1.031   2.754  1.5717  0.6762  1.2207
 1244TIP3    H225224   2.671   1.142   2.754  1.4538  0.5724  0.0742
 1245TIP3   OH225225   3.974   3.741   2.249  0.3203 -0.1015  0.4566
 1245TIP3    H125226   4.049   3.781   2.205 -0.0405  0.9355  0.7778
 1245TIP3    H225227   3.970   3.784   2.334 -0.3886 -0.4514  0.6050
 1246TIP3   OH225228   0.334   3.497   2.425 -0.7308 -0.5170  0.1877
 1246TIP3    H125229   0.313   3.407   2.402 -1.4709 -0.8664  2.1224
 1246TIP3    H225230   0.413   3.491   2.479 -2.1959 -0.2694  2.4100
 1247TIP3   OH225231   2.949   5.463  17.116  0.2538 -0.2048 -0.5148
 1247TIP3    H125232   2.927   5.418  17.198  2.2037  0.2873  0.3059
 1247TIP3    H225233   3.022   5.520  17.139  1.4416 -0.7479 -2.8294
 1248TIP3   OH225234   6.425   5.840   4.479 -0.7976 -0.4801  0.1483
 1248TIP3    H125235   6.457   5.928   4.500  0.4754 -1.6105  3.2514
 1248TIP3    H225236   6.492   5.803   4.422 -0.9187  0.2420 -0.4721
 1249TIP3   OH225237   4.265   5.028   6.138 -0.2402  0.2005 -0.2616
 1249TIP3    H125238   4.276   4.964   6.068 -0.0464  0.6781 -0.6659
 1249TIP3    H225239   4.294   4.981   6.217 -0.6420 -0.3953 -0.4680
 1250TIP3   OH225240   4.841   1.050  13.992 -0.4131 -0.0207 -0.0130
 1250TIP3    H125241   4.843   0.997  13.912 -1.2588 -0.7740  0.4621
 1250TIP3    H225242   4.851   0.986  14.063  1.7890  0.7777  0.4452
 1251TIP3   OH225243   3.051   4.710   2.315  0.1437 -0.4355  0.0560
 1251TIP3    H125244   3.116   4.678   2.252  0.2491  0.6094 -0.3786
 1251TIP3    H225245   3.092   4.697   2.400  0.3532 -1.0671 -0.1401
 1252TIP3   OH225246   1.000   4.071   5.986 -0.4426 -0.2145 -0.1263
 1252TIP3    H125247   0.944   4.075   5.908  2.1148 -4.5762 -2.3307
 1252TIP3    H225248   1.083   4.109   5.958  0.5304 -1.9210  0.4099
 1253TIP3   OH225249   0.612   6.491  14.174  0.3337  0.1098  0.0813
 1253TIP3    H125250   0.700   6.470  14.143  1.3001  0.0240  2.7546
 1253TIP3    H225251   0.563   6.410  14.165  0.7139 -0.0459 -0.6893
 1254TIP3   OH225252   6.422   2.248  11.081 -0.1946  0.1903  0.1019
 1254TIP3    H125253   6.370   2.168  11.079  1.8625 -1.2939  2.5944
 1254TIP3    H225254   6.500   2.225  11.130  1.2087  3.3176 -0.5101
 1255TIP3   OH225255   0.689   3.450  16.860  0.2742 -0.0184  0.5303
 1255TIP3    H125256   0.772   3.486  16.894  0.4070 -1.2472  1.5547
 1255TIP3    H225257   0.716   3.393  16.788  0.2491  0.2346  0.3213
 1256TIP3   OH225258   5.977   4.277   2.550 -0.4738 -0.4214  0.2494
 1256TIP3    H125259   6.068   4.251   2.535 -0.6141  0.8906 -3.3489
 1256TIP3    H225260   5.927   4.196   2.544  0.2546 -0.8717  0.1737
 1257TIP3   OH225261   4.764   4.389   2.685 -0.5441 -0.2381 -0.6406
 1257TIP3    H125262   4.769   4.433   2.600  1.0025  0.9262  0.0249
 1257TIP3    H225263   4.853   4.358   2.701 -1.1986 -1.9735 -0.2131
 1258TIP3   OH225264   6.401   4.759  14.624  0.3318 -0.6636  0.3897
 1258TIP3    H125265   6.351   4.839  14.643  1.2563 -0.2086  0.8921
 1258TIP3    H225266   6.452   4.781  14.546  0.6959 -0.7243  0.6140
 1259TIP3   OH225267   0.874   5.008  16.405 -0.2220 -0.6748 -0.4421
 1259TIP3    H125268   0.957   4.965  16.382  1.0360  0.6713  1.4138
 1259TIP3    H225269   0.807   4.948  16.373  1.4486 -1.9001 -1.8237
 1260TIP3   OH225270   1.299   5.076  13.251 -0.0763  0.2480 -0.4297
 1260TIP3    H125271   1.259   5.136  13.188  0.7439  0.4427 -0.7724
 1260TIP3    H225272   1.282   5.117  13.336  0.3462  0.9003 -0.6512
 1261TIP3   OH225273   6.134   4.989  15.065  0.5918 -0.7310 -0.4223
 1261TIP3    H125274   6.220   4.969  15.103  1.3695  0.0982 -1.7139
 1261TIP3    H225275   6.129   5.085  15.067 -0.6565 -0.8074  0.3965
 1262TIP3   OH225276   3.005   4.127  11.942  0.4971  0.6455  0.3263
 1262TIP3    H125277   3.088   4.156  11.979  0.9576 -0.0926 -0.1054
 1262TIP3    H225278   3.029   4.089  11.857 -0.0740 -0.8802  0.8217
 1263TIP3   OH225279   5.504   1.440   6.280 -0.0088  0.4572 -0.2028
 1263TIP3    H125280   5.599   1.429   6.286 -0.1265  0.1784  1.3656
 1263TIP3    H225281   5.488   1.530   6.309 -0.3719 -0.0963  1.3942
 1264TIP3   OH225282   1.991   3.811  16.581  0.5950 -0.0599 -0.7788
 1264TIP3    H125283   1.946   3.726  16.578  0.2499  0.1502 -1.8249
 1264TIP3    H225284   1.932   3.868  16.630  0.2145 -0.0698 -1.2249
 1265TIP3   OH225285   4.113   3.319  16.658  0.4810  0.2705  0.1614
 1265TIP3    H125286   4.113   3.393  16.598  1.5720  1.1616  1.2280
 1265TIP3    H225287   4.134   3.243  16.603 -1.1970  0.6479 -1.0334
 1266TIP3   OH225288   1.192   4.652  16.435  0.6120  0.6961  0.2955
 1266TIP3    H125289   1.287   4.638  16.428  0.7762  2.2169 -0.5288
 1266TIP3    H225290   1.154   4.585  16.378  1.0950 -1.0140  1.9054
 1267TIP3   OH225291   2.531   2.157  14.210 -0.7962  0.0783 -0.0266
 1267TIP3    H125292   2.531   2.139  14.116 -0.9964 -0.5999  0.0958
 1267TIP3    H225293   2.499   2.075  14.250  2.4717 -0.8566  0.8481
 1268TIP3   OH225294   2.282   0.539  16.091 -0.7730  0.0105 -0.2917
 1268TIP3    H125295   2.212   0.601  16.110 -2.0454 -1.5275  0.1407
 1268TIP3    H225296   2.252   0.456  16.128  1.1431 -0.7562 -0.3607
 1269TIP3   OH225297   4.426   2.033   1.915 -0.0479 -0.1714 -0.4521
 1269TIP3    H125298   4.361   1.990   1.859  0.2565 -0.0907 -0.8763
 1269TIP3    H225299   4.456   2.107   1.863 -1.3124  1.1750  0.6879
 1270TIP3   OH225300   4.479   4.879  11.743  0.0538 -0.5205  0.2349
 1270TIP3    H125301   4.414   4.940  11.777  1.1180  0.4175  0.5910
 1270TIP3    H225302   4.428   4.801  11.721 -1.0982 -0.0365  1.1167
 1271TIP3   OH225303   6.054   2.313   3.328  0.1968 -0.5987 -1.0294
 1271TIP3    H125304   6.072   2.249   3.396  0.9251  1.0123  0.3253
 1271TIP3    H225305   6.141   2.335   3.293  0.0654  0.5834 -0.6143
 1272TIP3   OH225306   3.223   6.344   0.150 -0.3143 -0.4441  0.2136
 1272TIP3    H125307   3.199   6.263   0.195 -0.5023 -0.5244 -0.0314
 1272TIP3    H225308   3.230   6.319   0.058 -0.4871 -0.1570  0.1214
 1273TIP3   OH225309   1.882   6.134  15.250 -0.3400  0.6732 -0.4942
 1273TIP3    H125310   1.919   6.071  15.311 -2.5563 -2.2772 -2.0823
 1273TIP3    H225311   1.942   6.133  15.175  0.1834  1.2526 -0.0889
 1274TIP3   OH225312   6.159   0.136   3.923 -0.1856 -0.0348  0.7787
 1274TIP3    H125313   6.168   0.216   3.870 -0.3413 -0.6341 -0.1674
 1274TIP3    H225314   6.065   0.122   3.929 -0.1968  0.5315  1.9888
 1275TIP3   OH225315   2.451   2.420   3.758 -0.0721 -0.3219  0.1867
 1275TIP3    H125316   2.489   2.500   3.794 -0.7204  0.0234  0.1174
 1275TIP3    H225317   2.475   2.352   3.821 -1.2640  0.2843  1.3378
 1276TIP3   OH225318   0.112   0.961  14.349 -0.0949 -0.2125 -0.0731
 1276TIP3    H125319   0.098   0.981  14.441  0.1639  3.2734 -0.7116
 1276TIP3    H225320   0.202   0.930  14.344  0.2887  0.7523  0.7012
 1277TIP3   OH225321   3.520   3.693  12.722  0.2195 -0.1821  0.0718
 1277TIP3    H125322   3.480   3.675  12.807  1.5220 -1.3360  0.4634
 1277TIP3    H225323   3.515   3.788  12.712 -1.2253 -0.1751  0.7862
 1278TIP3   OH225324   1.965   6.431   1.224 -0.1927  0.4503  0.8829
 1278TIP3    H125325   1.940   6.518   1.255 -0.1674  0.1805  1.6633
 1278TIP3    H225326   1.910   6.370   1.273 -1.0264  0.0730 -0.4895
 1279TIP3   OH225327   1.180   0.910   1.009  0.4566  0.2264  0.6100
 1279TIP3    H125328   1.234   0.980   1.045 -1.2789  1.3303  1.1512
 1279TIP3    H225329   1.236   0.833   1.010  2.3158  1.5483  0.2431
 1280TIP3   OH225330   3.279   0.403  15.995  0.5421 -0.9931  0.2092
 1280TIP3    H125331   3.310   0.393  16.085  2.2163 -1.4635 -0.4065
 1280TIP3    H225332   3.231   0.322  15.977  1.3002 -1.4615  0.2605
 1281TIP3   OH225333   0.134   2.397  13.807  0.5543 -0.1300  0.1447
 1281TIP3    H125334   0.189   2.335  13.853 -0.3909 -2.0704 -1.2451
 1281TIP3    H225335   0.047   2.386  13.846  0.3459  0.2117 -0.2136
 1282TIP3   OH225336   0.124   0.389   1.305 -0.6781 -0.4372 -0.3310
 1282TIP3    H125337   0.157   0.300   1.302  0.7461  0.0317  0.9526
 1282TIP3    H225338   0.202   0.444   1.311 -1.5943  0.7480  1.5159
 1283TIP3   OH225339   0.671   0.850   5.692  0.2618 -0.4530 -0.2267
 1283TIP3    H125340   0.630   0.936   5.688  1.9501  0.3815 -0.1945
 1283TIP3    H225341   0.611   0.797   5.744 -2.4775 -0.2815 -3.0576
 1284TIP3   OH225342   4.064   3.190  13.771  0.6511  0.8049 -0.3006
 1284TIP3    H125343   4.024   3.275  13.790 -1.9897 -0.7433  1.4729
 1284TIP3    H225344   4.152   3.195  13.807 -0.1804  2.0976  1.5901
 1285TIP3   OH225345   6.584   2.568  15.615  0.7552 -0.1654  0.3408
 1285TIP3    H125346   6.607   2.658  15.591 -0.4595 -0.6541 -2.9434
 1285TIP3    H225347   6.522   2.578  15.688  0.1385  1.6984 -0.4017
 1286TIP3   OH225348   3.227   1.613   3.818  0.4051 -0.0646 -0.6514
 1286TIP3    H125349   3.275   1.682   3.772 -2.6457  1.8415 -1.1161
 1286TIP3    H225350   3.227   1.641   3.909  0.5515 -0.2661 -0.5913
 1287TIP3   OH225351   6.349   3.938   2.625  0.1506 -0.6054  0.0058
 1287TIP3    H125352   6.421   3.883   2.594 -0.8755 -1.2856 -1.2108
 1287TIP3    H225353   6.376   4.027   2.604  0.4490 -0.8888 -0.8460
 1288TIP3   OH225354   5.280   4.239   4.900  0.4638 -0.2028  0.3160
 1288TIP3    H125355   5.205   4.278   4.855  0.9570  2.0429  1.3772
 1288TIP3    H225356   5.291   4.154   4.858 -1.5707  0.1685 -1.0618
 1289TIP3   OH225357   0.603   5.708  13.274 -0.4754 -0.1582  0.0930
 1289TIP3    H125358   0.573   5.628  13.229 -1.6671  0.1293  0.3511
 1289TIP3    H225359   0.686   5.730  13.231 -0.3295 -1.3235 -0.2386
 1290TIP3   OH225360   2.570   4.436   0.402  0.1822 -0.3075 -0.4923
 1290TIP3    H125361   2.577   4.465   0.311 -0.0744  0.3867 -0.2981
 1290TIP3    H225362   2.652   4.463   0.443 -0.5507  1.2893 -0.0082
 1291TIP3   OH225363   3.032   0.848   5.518 -0.1986 -0.1240  0.0011
 1291TIP3    H125364   3.085   0.903   5.461 -2.0176  2.5786  0.8208
 1291TIP3    H225365   3.089   0.832   5.594 -0.5571  2.9895  1.0104
 1292TIP3   OH225366   0.336   1.899   0.186  0.5952  0.3466  0.7143
 1292TIP3    H125367   0.305   1.987   0.207 -3.0552 -0.6802  0.0042
 1292TIP3    H225368   0.349   1.857   0.271 -0.1146  0.7664  1.0284
 1293TIP3   OH225369   5.770   2.513  11.926  0.1840  0.1169 -0.8011
 1293TIP3    H125370   5.737   2.431  11.962  0.2599  1.7534  3.2937
 1293TIP3    H225371   5.865   2.507  11.936  0.1787  0.7463 -0.3247
 1294TIP3   OH225372   1.308   0.303   0.567 -0.0909  0.4823  0.6562
 1294TIP3    H125373   1.365   0.275   0.495 -0.5689 -1.2636  0.9253
 1294TIP3    H225374   1.220   0.300   0.530 -0.3741 -0.7900  1.4030
 1295TIP3   OH225375   3.972   5.678   5.472  0.2954 -0.0066 -0.1305
 1295TIP3    H125376   3.901   5.644   5.417  0.9632  1.3506 -1.8735
 1295TIP3    H225377   4.051   5.662   5.421  0.9852  0.8014  0.6898
 1296TIP3   OH225378   1.833   3.022   4.630 -0.9544  1.0542 -0.1849
 1296TIP3    H125379   1.866   3.015   4.541 -0.0661  0.1070  0.2087
 1296TIP3    H225380   1.749   2.975   4.628 -1.2890  1.6532 -0.6781
 1297TIP3   OH225381   6.315   3.402   1.509  0.4055  0.1006 -0.6706
 1297TIP3    H125382   6.302   3.385   1.416  2.7071 -1.8656 -0.6703
 1297TIP3    H225383   6.335   3.317   1.547 -1.6253  0.6881  1.8639
 1298TIP3   OH225384   5.478   4.904  16.203  0.6564 -0.3847  0.3290
 1298TIP3    H125385   5.405   4.903  16.264 -0.5842 -4.7571 -1.0747
 1298TIP3    H225386   5.554   4.876  16.255  0.6705  0.8503  0.9913
 1299TIP3   OH225387   0.312   0.117   0.890  0.5960  0.2776  0.0317
 1299TIP3    H125388   0.254   0.102   0.965  2.2440 -1.3721  1.0182
 1299TIP3    H225389   0.272   0.068   0.819 -0.6285  1.3246 -0.0259
 1300TIP3   OH225390   1.924   6.355   3.537  0.1306  0.0828 -0.7498
 1300TIP3    H125391   1.835   6.381   3.515  0.0902 -0.4543 -1.2181
 1300TIP3    H225392   1.924   6.259   3.533  0.8167  0.0904 -1.0985
 1301TIP3   OH225393   3.296   0.996   3.732  0.1349  0.2951  0.1452
 1301TIP3    H125394   3.214   0.979   3.779 -0.2524 -0.6308 -0.8447
 1301TIP3    H225395   3.364   0.975   3.796 -0.3866 -2.0238 -0.0215
 1302TIP3   OH225396   3.579   0.523   1.745  0.2646  0.3944 -0.3207
 1302TIP3    H125397   3.535   0.506   1.661  0.0116  0.2581 -0.1606
 1302TIP3    H225398   3.578   0.618   1.753 -2.3430  0.3162  0.9194
 1303TIP3   OH225399   3.871   3.135  13.580 -0.1555 -0.7175 -0.3278
 1303TIP3    H125400   3.888   3.219  13.537 -1.4793 -0.9866 -1.4229
 1303TIP3    H225401   3.943   3.125  13.642 -1.2917  2.4435  1.6596
 1304TIP3   OH225402   4.027   0.810   6.431  0.4266 -0.8358  0.1538
 1304TIP3    H125403   4.009   0.718   6.413  0.6883 -0.9778  0.6079
 1304TIP3    H225404   3.942   0.847   6.456  0.2823 -0.9036 -0.2395
 1305TIP3   OH225405   0.000   3.562   4.715  0.0051 -0.1193 -0.1684
 1305TIP3    H125406   0.048   3.527   4.640  0.9402  1.4051 -0.3131
 1305TIP3    H225407   0.022   3.656   4.715 -2.0945  0.3920  0.4259
 1306TIP3   OH225408   0.044   0.412  13.102  0.1057 -0.5267 -0.1485
 1306TIP3    H125409   0.088   0.333  13.132 -0.3261  0.0759  2.1784
 1306TIP3    H225410   0.081   0.482  13.156 -2.4150  0.2461  0.6451
 1307TIP3   OH225411   1.554   4.649  15.440  0.1325 -0.0741  0.0031
 1307TIP3    H125412   1.563   4.733  15.395 -0.0473  0.1043  0.3016
 1307TIP3    H225413   1.644   4.622  15.458  0.1746  2.7960  4.9930
 1308TIP3   OH225414   1.116   1.631  13.511  0.3448  0.1024 -0.4391
 1308TIP3    H125415   1.128   1.708  13.566  0.7780 -1.0110  1.0274
 1308TIP3    H225416   1.021   1.616  13.511  0.0385  1.7251 -2.2725
 1309TIP3   OH225417   6.668   4.725  12.050 -0.0878  0.5492 -0.5051
 1309TIP3    H125418   6.604   4.659  12.076 -0.0388  1.3267  1.6382
 1309TIP3    H225419   6.742   4.675  12.017 -0.2864 -0.4610  0.5597
 1310TIP3   OH225420   6.122   5.176  17.035 -0.4115  0.2180  0.4008
 1310TIP3    H125421   6.199   5.175  17.091  1.3863 -1.5973 -1.9776
 1310TIP3    H225422   6.067   5.105  17.067  0.0148  0.0065  0.6585
 1311TIP3   OH225423   0.161   2.378   3.724  0.3715 -0.2224 -0.0130
 1311TIP3    H125424   0.134   2.298   3.768  0.4442 -1.3701 -2.0074
 1311TIP3    H225425   0.219   2.349   3.655  2.0952  1.7439  0.5433
 1312TIP3   OH225426   2.795   1.352   5.263 -0.7644  0.1192 -0.4512
 1312TIP3    H125427   2.824   1.339   5.172  1.4387  1.1009  0.0984
 1312TIP3    H225428   2.784   1.447   5.271  1.4266  0.2653  1.0106
 1313TIP3   OH225429   1.883   1.201  11.621  0.0890  0.4758  0.0947
 1313TIP3    H125430   1.900   1.108  11.604 -1.2546  0.3782 -0.7668
 1313TIP3    H225431   1.867   1.239  11.535  0.8675  1.5715  0.4148
 1314TIP3   OH225432   6.381   1.042   3.824  1.3478 -0.1496 -0.0492
 1314TIP3    H125433   6.381   0.998   3.909  2.3142 -2.9192 -1.4177
 1314TIP3    H225434   6.474   1.058   3.805  1.1837 -0.0977 -0.8490
 1315TIP3   OH225435   5.435   1.156  13.466 -0.4843  0.9472 -0.6234
 1315TIP3    H125436   5.512   1.129  13.516 -0.0977  1.5875 -0.8643
 1315TIP3    H225437   5.364   1.100  13.498  0.1658  0.0724 -0.6926
 1316TIP3   OH225438   4.890   3.153   5.821  0.4756 -0.5321  0.4350
 1316TIP3    H125439   4.809   3.119   5.783  1.7094 -1.6514 -1.2570
 1316TIP3    H225440   4.960   3.103   5.778  2.1505  1.6101  0.5956
 1317TIP3   OH225441   1.385   6.176   0.785  0.2026  0.1994 -0.2356
 1317TIP3    H125442   1.453   6.231   0.748 -0.4221  1.4541  0.4575
 1317TIP3    H225443   1.387   6.194   0.879 -0.3860 -0.5289 -0.0760
 1318TIP3   OH225444   6.373   0.872  17.243 -0.2407  0.0097  0.1133
 1318TIP3    H125445   6.277   0.869  17.248 -0.3757  0.9383 -1.4908
 1318TIP3    H225446   6.392   0.951  17.192  1.3556 -0.5174 -0.1391
 1319TIP3   OH225447   0.727   3.461  14.831 -0.3939 -0.1277  0.1804
 1319TIP3    H125448   0.695   3.546  14.859  0.8136  0.3697  0.0737
 1319TIP3    H225449   0.811   3.479  14.789  1.0460 -1.6238  2.3095
 1320TIP3   OH225450   5.133   2.177   3.756  0.2115 -0.3820  0.4548
 1320TIP3    H125451   5.220   2.147   3.782  0.6134  1.2882  1.1144
 1320TIP3    H225452   5.084   2.182   3.837  0.0043  0.2524  0.2927
 1321TIP3   OH225453   6.214   1.758  16.778 -0.0007  0.7021  0.3864
 1321TIP3    H125454   6.265   1.750  16.859  0.7732 -0.6414 -0.2231
 1321TIP3    H225455   6.235   1.679  16.728 -1.1651  1.0893 -0.7414
 1322TIP3   OH225456   3.474   3.640   4.262 -0.4123  0.0729 -0.1680
 1322TIP3    H125457   3.413   3.697   4.308 -2.6798 -1.6573 -0.9759
 1322TIP3    H225458   3.500   3.575   4.328  0.6908  0.8639  0.2034
 1323TIP3   OH225459   0.222   2.043  14.342 -0.7588  0.0616  0.4039
 1323TIP3    H125460   0.295   1.981  14.343 -1.4094 -0.7019  0.6156
 1323TIP3    H225461   0.227   2.086  14.428  0.5256  1.2879 -0.2683
 1324TIP3   OH225462   5.541   1.415   2.942  0.2623 -0.3871 -0.2078
 1324TIP3    H125463   5.478   1.371   2.884  1.0698 -0.9928 -0.6493
 1324TIP3    H225464   5.626   1.391   2.905  0.7866 -0.7860  1.2405
 1325TIP3   OH225465   6.100   2.237  16.614 -0.1076 -0.6374  0.3772
 1325TIP3    H125466   6.089   2.208  16.523 -1.5352 -0.8755  0.6186
 1325TIP3    H225467   6.091   2.158  16.666  0.7773 -0.5073  0.7318
 1326TIP3   OH225468   3.379   5.421   2.794 -0.1863  0.2769  0.3989
 1326TIP3    H125469   3.301   5.452   2.748  0.5552  1.8995  0.2011
 1326TIP3    H225470   3.413   5.499   2.838  1.4127 -0.3902  0.3662
 1327TIP3   OH225471   3.553   6.197  11.392 -0.3583 -0.2445 -0.0447
 1327TIP3    H125472   3.505   6.268  11.435 -0.6475  0.2271 -1.1347
 1327TIP3    H225473   3.644   6.225  11.396 -0.2847 -0.6025  1.0084
 1328TIP3   OH225474   4.688   4.300  12.660  0.6701 -0.3226  0.1080
 1328TIP3    H125475   4.596   4.276  12.651  0.3839  1.0732 -0.6996
 1328TIP3    H225476   4.728   4.222  12.699 -0.9448 -0.7260  1.0242
 1329TIP3   OH225477   4.124   1.600   3.061 -0.0397  0.0257 -0.1721
 1329TIP3    H125478   4.064   1.633   2.994  0.5596  0.2945 -0.5813
 1329TIP3    H225479   4.104   1.507   3.067  0.5399 -0.1939 -1.4139
 1330TIP3   OH225480   5.432   0.643  13.576 -0.2750  0.3093  0.1434
 1330TIP3    H125481   5.526   0.657  13.569  0.2772 -1.4119  3.0027
 1330TIP3    H225482   5.420   0.549  13.559 -1.5081  0.5277 -0.3019
 1331TIP3   OH225483   5.128   4.040  16.154  0.0347 -0.3811 -0.2214
 1331TIP3    H125484   5.042   4.080  16.166  0.1910 -0.3683  0.9459
 1331TIP3    H225485   5.127   4.008  16.064 -1.3076 -0.6461 -0.1276
 1332TIP3   OH225486   3.268   6.244  15.124  0.2661 -0.6354  0.5450
 1332TIP3    H125487   3.210   6.168  15.111  0.0157 -0.2193 -0.8867
 1332TIP3    H225488   3.269   6.287  15.038 -0.5597  1.6739  1.6675
 1333TIP3   OH225489   0.966   5.876  14.297  0.6102 -0.0991 -0.1893
 1333TIP3    H125490   1.046   5.829  14.276  0.5903  0.0683 -0.6333
 1333TIP3    H225491   0.968   5.886  14.393  0.6325 -0.9642 -0.0962
 1334TIP3   OH225492   5.752   5.436  11.175 -0.0244 -0.2585  0.6094
 1334TIP3    H125493   5.843   5.420  11.150 -0.9688 -2.4754 -1.6109
 1334TIP3    H225494   5.733   5.370  11.241  0.2862  0.9392  1.9213
 1335TIP3   OH225495   3.769   3.058  14.784 -0.3239  0.4525  0.6024
 1335TIP3    H125496   3.682   3.084  14.753 -1.0537 -2.7595 -0.2289
 1335TIP3    H225497   3.753   3.023  14.872  0.4371  1.5786  1.1954
 1336TIP3   OH225498   2.896   5.002  11.146 -0.4879 -0.0551 -0.0288
 1336TIP3    H125499   2.935   4.918  11.169  0.4722  1.0695  2.6794
 1336TIP3    H225500   2.875   4.994  11.053  0.8789 -2.7777 -0.1559
 1337TIP3   OH225501   3.070   1.503   1.459  0.3710 -0.0904  0.3106
 1337TIP3    H125502   3.057   1.551   1.541 -1.7684 -0.0171 -0.0274
 1337TIP3    H225503   2.990   1.521   1.408  0.7370 -1.8219 -0.9276
 1338TIP3   OH225504   4.180   1.599   1.610  0.0989  0.0747  0.0689
 1338TIP3    H125505   4.182   1.667   1.543  0.3301  0.5747  0.5856
 1338TIP3    H225506   4.265   1.605   1.653  0.3154 -0.8623 -0.2002
 1339TIP3   OH225507   2.956   5.661  14.032 -0.0072 -0.1973  0.7001
 1339TIP3    H125508   3.006   5.652  14.114 -0.0977 -0.4442  0.7292
 1339TIP3    H225509   2.892   5.590  14.035 -0.0671 -0.1529  0.4539
 1340TIP3   OH225510   1.053   5.182   4.133 -0.0345  0.1622  0.1441
 1340TIP3    H125511   1.098   5.189   4.217 -1.2830  2.3310  0.6687
 1340TIP3    H225512   1.109   5.229   4.071 -0.6472  1.2479  0.4105
 1341TIP3   OH225513   0.996   1.831   1.058 -0.2246 -0.0091 -0.3165
 1341TIP3    H125514   0.962   1.828   0.969  1.8603 -0.3602 -1.1312
 1341TIP3    H225515   0.979   1.921   1.087 -2.1894 -0.2880 -0.5219
 1342TIP3   OH225516   3.632   4.214  12.111  0.1986 -0.2604  0.9082
 1342TIP3    H125517   3.561   4.222  12.048  0.0139  1.7243  1.3116
 1342TIP3    H225518   3.711   4.232  12.060  0.3238 -1.5298  0.6525
 1343TIP3   OH225519   0.984   5.824  12.652  0.1989 -0.3878  0.1926
 1343TIP3    H125520   0.928   5.877  12.709  1.5640  1.5404 -0.1838
 1343TIP3    H225521   1.066   5.814  12.701  0.7279 -0.2553 -0.6374
 1344TIP3   OH225522   0.433   6.021  13.834 -0.1537  0.5787 -0.1129
 1344TIP3    H125523   0.465   6.051  13.749 -1.4756 -1.1017 -1.2421
 1344TIP3    H225524   0.474   6.080  13.897  1.4623  1.3788 -1.8452
 1345TIP3   OH225525   5.286   2.520   5.096 -0.0867 -0.4567  0.0999
 1345TIP3    H125526   5.211   2.475   5.134 -1.0048  0.3459 -0.7383
 1345TIP3    H225527   5.341   2.449   5.062 -1.5652 -0.9697 -1.2841
 1346TIP3   OH225528   6.619   2.464   2.976  0.0826 -0.0499 -0.0167
 1346TIP3    H125529   6.658   2.494   3.057  2.9264 -1.1678 -0.9099
 1346TIP3    H225530   6.586   2.376   2.997  0.0788 -0.0091  0.1489
 1347TIP3   OH225531   6.038   3.919   1.805  0.4452 -0.3946  0.0706
 1347TIP3    H125532   6.054   3.877   1.721 -0.5799 -0.5356 -0.0611
 1347TIP3    H225533   6.018   4.010   1.784  2.4214  0.1194  0.3381
 1348TIP3   OH225534   4.995   0.329  12.894  0.8993  0.0488 -0.7016
 1348TIP3    H125535   4.939   0.292  12.962 -1.2886 -0.7624 -2.8375
 1348TIP3    H225536   5.082   0.296  12.914  0.3080 -0.1550  1.6853
 1349TIP3   OH225537   0.367   6.141  13.563 -0.3864 -0.6483 -0.1921
 1349TIP3    H125538   0.329   6.065  13.519 -1.0756  0.7918 -2.1769
 1349TIP3    H225539   0.297   6.174  13.619  0.0243 -1.6420  0.9347
 1350TIP3   OH225540   6.559   1.628  16.809 -0.3590  0.0543 -0.4680
 1350TIP3    H125541   6.540   1.678  16.888 -1.1218  0.8452 -1.1388
 1350TIP3    H225542   6.488   1.563  16.805  0.0391 -0.4006 -0.1613
 1351TIP3   OH225543   4.561   1.982  13.910  0.9744 -0.5399  0.2087
 1351TIP3    H125544   4.554   1.968  14.004 -4.0518  1.1771  0.2730
 1351TIP3    H225545   4.526   1.901  13.872 -0.3536  0.1517 -0.0670
 1352TIP3   OH225546   4.845   5.178  10.936  0.0168 -0.4779 -0.0694
 1352TIP3    H125547   4.829   5.086  10.916  1.3616 -0.3591 -1.8577
 1352TIP3    H225548   4.940   5.184  10.947  0.1057  0.9353 -1.3658
 1353TIP3   OH225549   5.703   2.394  12.704  0.0126  0.9191 -0.3179
 1353TIP3    H125550   5.785   2.397  12.654 -0.4197 -0.8121 -1.1645
 1353TIP3    H225551   5.701   2.477  12.751 -0.2887  3.2790 -4.3008
 1354TIP3   OH225552   6.143   1.021   3.105  0.5601  0.7580  0.2062
 1354TIP3    H125553   6.088   1.028   3.184  0.6762 -2.3048  0.5970
 1354TIP3    H225554   6.086   0.982   3.040  0.8463  2.1351 -0.8986
 1355TIP3   OH225555   3.614   1.711   4.861 -0.0603  0.1439  0.1184
 1355TIP3    H125556   3.620   1.708   4.765 -0.3505  0.8777  0.0745
 1355TIP3    H225557   3.610   1.804   4.881  0.6273  0.0093  0.8850
 1356TIP3   OH225558   5.258   5.937   6.806  0.4461  0.2715 -0.1364
 1356TIP3    H125559   5.193   5.905   6.869  2.4740  0.6504  2.2189
 1356TIP3    H225560   5.260   6.031   6.820  1.5859  0.2448 -0.0885
 1357TIP3   OH225561   1.512   1.489  11.866  0.0884 -0.2935  0.4203
 1357TIP3    H125562   1.444   1.425  11.887  0.6905 -1.8981 -2.2786
 1357TIP3    H225563   1.485   1.527  11.783  2.2102 -0.6083 -0.4563
 1358TIP3   OH225564   3.672   5.712  11.005  0.1676  0.0909 -0.3478
 1358TIP3    H125565   3.674   5.638  10.945 -2.0355 -0.6522  0.4468
 1358TIP3    H225566   3.707   5.678  11.087 -3.8196 -1.0826  0.9998
 1359TIP3   OH225567   1.440   0.844   4.965  0.0712  0.2290 -0.0357
 1359TIP3    H125568   1.433   0.806   4.878 -2.4461  0.6853 -0.0694
 1359TIP3    H225569   1.353   0.881   4.982  0.5590  0.2369  2.6145
 1360TIP3   OH225570   1.631   1.401   2.434 -0.2409  0.7380 -0.4739
 1360TIP3    H125571   1.632   1.399   2.530  1.4616  1.6941 -0.4527
 1360TIP3    H225572   1.641   1.310   2.408  1.9139  0.7295  0.2713
 1361TIP3   OH225573   4.971   2.730  13.716  0.7264 -0.2023 -0.1150
 1361TIP3    H125574   4.962   2.801  13.653  0.2301  0.7237  0.9903
 1361TIP3    H225575   4.887   2.686  13.716  0.2184  0.7351  0.9975
 1362TIP3   OH225576   0.513   3.334   5.215  0.2334  0.2828 -0.0776
 1362TIP3    H125577   0.521   3.240   5.201 -0.0004  0.2121  0.2475
 1362TIP3    H225578   0.544   3.348   5.304  2.1309  0.7907 -0.8021
 1363TIP3   OH225579   4.665   5.617  14.694  0.0977  0.9611  0.3935
 1363TIP3    H125580   4.651   5.581  14.781 -2.8582  0.0748 -0.3928
 1363TIP3    H225581   4.719   5.552  14.649 -2.1905 -0.8463  0.1522
 1364TIP3   OH225582   6.171   4.325   3.275 -0.6012 -0.5983  0.1680
 1364TIP3    H125583   6.202   4.350   3.362  0.0550 -0.2747 -0.1531
 1364TIP3    H225584   6.128   4.404   3.241 -0.4035 -0.5622 -0.0008
 1365TIP3   OH225585   2.596   2.456  11.399  0.2154  0.7818  0.5404
 1365TIP3    H125586   2.641   2.489  11.321  0.8711 -0.2853  0.4686
 1365TIP3    H225587   2.628   2.367  11.410 -2.9073 -0.5088 -0.3121
 1366TIP3   OH225588   1.934   4.165   5.235 -0.1916 -0.5461  0.1580
 1366TIP3    H125589   2.017   4.121   5.217  0.4254  0.3779  0.6819
 1366TIP3    H225590   1.914   4.213   5.155  0.0487 -0.3433  0.2204
 1367TIP3   OH225591   0.459   0.350   2.811  0.0509  0.1321  0.0820
 1367TIP3    H125592   0.378   0.366   2.763 -0.1412 -0.0953  0.3371
 1367TIP3    H225593   0.474   0.256   2.804  0.6372  0.2607 -0.5190
 1368TIP3   OH225594   5.804   6.498   3.045  0.1475 -0.2387 -0.2916
 1368TIP3    H125595   5.777   6.568   3.103  0.5439  0.5560 -1.0531
 1368TIP3    H225596   5.868   6.448   3.095  1.1559  0.9718 -0.3707
 1369TIP3   OH225597   4.552   5.392  15.679 -0.1010  0.2404 -0.3250
 1369TIP3    H125598   4.583   5.482  15.674  0.8141  0.1324  2.5307
 1369TIP3    H225599   4.457   5.400  15.692  0.0202  0.7942  0.2049
 1370TIP3   OH225600   4.454   1.905  17.158  0.3608 -0.4105 -0.3699
 1370TIP3    H125601   4.452   1.849  17.236 -1.0640  0.3376  0.1439
 1370TIP3    H225602   4.512   1.859  17.097 -1.5198 -2.9294 -0.3400
 1371TIP3   OH225603   3.358   3.790   4.869  0.1611 -0.2685 -0.3664
 1371TIP3    H125604   3.415   3.717   4.849  0.0949  0.0241 -1.6438
 1371TIP3    H225605   3.332   3.776   4.960  1.9315 -0.6155  0.0999
 1372TIP3   OH225606   3.840   1.064   3.909 -0.0467 -1.0021  0.2689
 1372TIP3    H125607   3.756   1.084   3.867  1.4797  0.9077 -1.9975
 1372TIP3    H225608   3.851   1.133   3.975  0.2212 -0.6060 -0.1831
 1373TIP3   OH225609   0.467   4.284   5.738  0.5668  0.0679  0.2980
 1373TIP3    H125610   0.402   4.253   5.800 -1.4094  0.0055 -1.7399
 1373TIP3    H225611   0.461   4.224   5.664  1.3242  1.4175 -0.8989
 1374TIP3   OH225612   4.449   6.166  15.140 -0.3430  0.3047  0.2150
 1374TIP3    H125613   4.365   6.150  15.182 -1.0431  0.1800 -1.1940
 1374TIP3    H225614   4.437   6.135  15.050 -0.0757  4.0044 -1.1541
 1375TIP3   OH225615   4.082   3.522   2.392 -0.4798 -0.6035 -0.2443
 1375TIP3    H125616   4.082   3.566   2.477 -1.3255 -1.7765  0.3794
 1375TIP3    H225617   4.014   3.566   2.342 -1.5713 -1.4292  0.5039
 1376TIP3   OH225618   1.909   2.581   0.271 -0.0587  0.2351 -0.6657
 1376TIP3    H125619   1.988   2.537   0.238 -1.5618 -1.5717 -1.9677
 1376TIP3    H225620   1.921   2.586   0.365  1.0634 -1.1539 -0.7288
 1377TIP3   OH225621   0.137   0.667  11.411  0.1960 -0.2965  0.1500
 1377TIP3    H125622   0.151   0.629  11.324  0.9465 -0.8083  0.4922
 1377TIP3    H225623   0.164   0.598  11.472  1.4937  0.7345  0.7718
 1378TIP3   OH225624   2.564   0.451  12.522  0.3454 -0.3328  0.2401
 1378TIP3    H125625   2.584   0.448  12.616 -0.1376 -0.7140  0.3389
 1378TIP3    H225626   2.474   0.485  12.519  0.8101  0.8721 -0.1548
 1379TIP3   OH225627   5.197   5.452  13.813 -0.8872  0.0238  0.4961
 1379TIP3    H125628   5.160   5.465  13.726  0.1070  0.4266  0.1210
 1379TIP3    H225629   5.288   5.481  13.805  0.2005 -3.0237  0.7756
 1380TIP3   OH225630   0.490   2.423   6.076  1.2632  0.0010  0.5015
 1380TIP3    H125631   0.510   2.434   5.983  1.4284 -2.1528  0.2768
 1380TIP3    H225632   0.462   2.332   6.085 -1.5045  0.9214  2.0792
 1381TIP3   OH225633   2.494   5.671  11.781 -0.5931 -0.1099 -0.0767
 1381TIP3    H125634   2.450   5.752  11.759 -0.1015  0.0636 -0.4366
 1381TIP3    H225635   2.478   5.613  11.706 -1.1262 -0.4199  0.2762
 1382TIP3   OH225636   6.604   5.411   2.285  0.1793 -0.3377 -0.0367
 1382TIP3    H125637   6.534   5.377   2.229  0.3667 -2.3719  0.9417
 1382TIP3    H225638   6.676   5.430   2.225  0.2362 -2.1061 -0.5377
 1383TIP3   OH225639   5.684   5.717   6.007 -0.3784  0.1905 -0.0879
 1383TIP3    H125640   5.621   5.649   5.984  0.2190 -0.7241  0.9353
 1383TIP3    H225641   5.747   5.673   6.064  0.8848  1.2100 -0.6612
 1384TIP3   OH225642   1.198   4.644   3.002  0.4143 -0.3501  0.4649
 1384TIP3    H125643   1.213   4.669   3.093 -0.2428  1.5221  0.0921
 1384TIP3    H225644   1.248   4.708   2.951 -0.4563 -0.4241 -0.5113
 1385TIP3   OH225645   4.202   4.939   3.638  0.2742 -0.1512 -0.3634
 1385TIP3    H125646   4.288   4.980   3.630  0.1842  0.1370  0.1381
 1385TIP3    H225647   4.158   4.957   3.555  0.9041 -0.7739 -0.8341
 1386TIP3   OH225648   3.120   0.165  16.218  0.5771 -0.3718 -0.1666
 1386TIP3    H125649   3.131   0.075  16.251  2.5270 -0.3966 -0.8214
 1386TIP3    H225650   3.142   0.159  16.125 -2.4895  0.1867 -0.9641
 1387TIP3   OH225651   4.767   6.168  11.278  0.5526  0.4128 -0.5113
 1387TIP3    H125652   4.724   6.143  11.197  0.1868 -0.2444 -0.1152
 1387TIP3    H225653   4.742   6.259  11.292  0.0077  0.2959 -0.7386
 1388TIP3   OH225654   2.666   3.018   2.844  0.2112  0.4487 -0.0925
 1388TIP3    H125655   2.745   3.018   2.899  0.0102  0.6130  0.2003
 1388TIP3    H225656   2.669   3.101   2.798  0.0749  0.5713  0.1179
 1389TIP3   OH225657   5.549   2.914  17.045 -0.1854 -0.0598  0.7312
 1389TIP3    H125658   5.552   2.867  17.128  2.6409 -1.0266  0.1196
 1389TIP3    H225659   5.573   2.849  16.979  0.4645  1.4086 -0.5158
 1390TIP3   OH225660   6.288   0.662   3.875 -0.5908  0.9136  0.5141
 1390TIP3    H125661   6.265   0.618   3.957  1.3362 -0.7611  0.2105
 1390TIP3    H225662   6.222   0.730   3.864 -2.8992 -1.0776  1.6890
 1391TIP3   OH225663   5.952   5.511  16.947  0.5912 -0.2531  0.6763
 1391TIP3    H125664   5.945   5.512  17.042  1.8202 -0.9861  0.7805
 1391TIP3    H225665   5.867   5.543  16.916  0.6318  1.2156  2.0246
 1392TIP3   OH225666   1.243   5.372  13.680  0.0567 -0.2817 -0.2014
 1392TIP3    H125667   1.168   5.417  13.643  0.9847  0.9362 -0.6289
 1392TIP3    H225668   1.234   5.384  13.775 -1.3576 -1.8843 -0.0994
 1393TIP3   OH225669   0.851   5.992  11.729 -0.3970 -0.1976 -0.5180
 1393TIP3    H125670   0.815   5.967  11.814 -0.5281  0.8039 -0.2740
 1393TIP3    H225671   0.775   5.996  11.670 -0.1619 -2.1297 -1.0104
 1394TIP3   OH225672   0.290   4.477   1.959 -0.3541 -0.1994  0.4773
 1394TIP3    H125673   0.326   4.475   2.047  1.0496 -0.3094 -0.0879
 1394TIP3    H225674   0.219   4.542   1.963  1.3514  1.6897  1.0721
 1395TIP3   OH225675   5.872   5.102  13.136  0.3202  0.1883 -0.4297
 1395TIP3    H125676   5.905   5.019  13.099 -0.5526 -0.9200  1.2158
 1395TIP3    H225677   5.909   5.169  13.079  0.3435 -1.3751 -2.3564
 1396TIP3   OH225678   5.987   1.241  13.938  0.2084  0.5879 -0.2948
 1396TIP3    H125679   6.077   1.210  13.925 -0.1573  0.1383 -1.8711
 1396TIP3    H225680   5.996   1.335  13.950  0.8028  0.7088 -1.5827
 1397TIP3   OH225681   5.267   3.981  12.328  0.1544  0.1418 -0.2385
 1397TIP3    H125682   5.253   4.069  12.294  0.1617  1.4075  2.8241
 1397TIP3    H225683   5.340   3.991  12.389 -1.5703 -1.4038  2.1599
 1398TIP3   OH225684   3.082   6.190   2.782 -0.2361  0.0939  0.2911
 1398TIP3    H125685   3.149   6.222   2.842 -0.3878  1.7371 -0.3832
 1398TIP3    H225686   3.074   6.259   2.716 -0.6159 -1.3215 -1.1976
 1399TIP3   OH225687   0.317   4.928  16.623 -0.1381  0.2358  0.1485
 1399TIP3    H125688   0.355   4.885  16.546 -0.4311  0.5581 -0.1757
 1399TIP3    H225689   0.266   4.859  16.665 -0.1447  0.1098 -0.0600
 1400TIP3   OH225690   4.600   1.499   3.410 -0.2804  0.2579  0.3568
 1400TIP3    H125691   4.682   1.549   3.414 -0.1437  0.0772 -0.1504
 1400TIP3    H225692   4.586   1.469   3.500 -0.0265  0.6689  0.5363
 1401TIP3   OH225693   0.942   4.528  12.611  0.1999 -0.1011  0.4298
 1401TIP3    H125694   0.897   4.610  12.628 -0.3224 -0.2711 -0.1078
 1401TIP3    H225695   0.903   4.465  12.671  2.2127  0.5505  2.5130
 1402TIP3   OH225696   2.064   2.226  14.179 -0.3112 -0.4080  0.3718
 1402TIP3    H125697   1.985   2.198  14.225  0.9922 -0.9828  2.3598
 1402TIP3    H225698   2.099   2.297  14.234  0.9402 -0.6747 -0.0739
 1403TIP3   OH225699   0.131   0.899   6.074 -0.0944  0.0556 -0.1367
 1403TIP3    H125700   0.073   0.877   6.001 -0.6731 -0.0365  0.3487
 1403TIP3    H225701   0.072   0.916   6.147  0.4622  0.6082  0.1923
 1404TIP3   OH225702   5.119   1.824  12.252 -0.6288 -0.3772 -0.1391
 1404TIP3    H125703   5.037   1.784  12.223 -0.4321 -2.2793  1.8018
 1404TIP3    H225704   5.096   1.874  12.330 -0.8647  3.4339 -2.5244
 1405TIP3   OH225705   4.520   6.093   5.796  0.7455 -0.0028 -0.1851
 1405TIP3    H125706   4.592   6.077   5.857  0.5003  1.8382  0.6163
 1405TIP3    H225707   4.454   6.027   5.819  0.5203  0.8630  1.7753
 1406TIP3   OH225708   0.500   3.842  15.797  0.4516 -0.0188 -0.4722
 1406TIP3    H125709   0.458   3.904  15.857 -0.7649 -1.3880  0.1172
 1406TIP3    H225710   0.534   3.897  15.726 -1.0217  1.2825 -0.2041
 1407TIP3   OH225711   2.950   6.450   2.360 -0.5597  0.1584  0.2254
 1407TIP3    H125712   2.991   6.399   2.290 -2.4703 -1.7955  0.4554
 1407TIP3    H225713   2.930   6.535   2.319  0.5868 -0.0774 -0.8604
 1408TIP3   OH225714   3.255   3.914   4.097 -0.0342 -0.3046 -0.4118
 1408TIP3    H125715   3.270   3.871   4.181 -0.0161 -0.5590 -0.5438
 1408TIP3    H225716   3.191   3.982   4.116  2.1982  1.6234  0.4028
 1409TIP3   OH225717   1.154   4.223  13.432 -0.1132 -0.2197  0.0096
 1409TIP3    H125718   1.111   4.140  13.408  0.7946 -0.0891 -2.1194
 1409TIP3    H225719   1.148   4.225  13.528 -2.2061 -1.6333 -0.0463
 1410TIP3   OH225720   2.309   6.696   3.660  0.1167 -0.0501 -0.1337
 1410TIP3    H125721   2.234   6.638   3.651  1.2635 -1.6991  0.7806
 1410TIP3    H225722   2.371   6.667   3.593  0.9783 -0.3481  0.7787
 1411TIP3   OH225723   4.320   5.225  15.123  0.3190  0.6631  0.5210
 1411TIP3    H125724   4.262   5.292  15.086  0.2186  0.1300 -0.3010
 1411TIP3    H225725   4.399   5.230  15.069  0.0250 -0.3894 -0.0153
 1412TIP3   OH225726   2.576   4.326   4.497  0.1465  0.3713  0.4235
 1412TIP3    H125727   2.604   4.417   4.509  0.2097  0.4118 -0.0131
 1412TIP3    H225728   2.515   4.329   4.424  1.2651 -0.1424 -0.5471
 1413TIP3   OH225729   3.780   5.405  14.738  0.2816  0.8633 -0.0837
 1413TIP3    H125730   3.810   5.377  14.824 -0.4465  0.9790  0.2132
 1413TIP3    H225731   3.704   5.461  14.756 -1.2523 -0.9054 -0.8974
 1414TIP3   OH225732   5.189   3.362   5.958 -0.2494 -0.2469  0.0701
 1414TIP3    H125733   5.174   3.392   6.048 -1.0154 -0.0521 -0.1198
 1414TIP3    H225734   5.150   3.275   5.955 -0.8181  0.0128 -0.2538
 1415TIP3   OH225735   2.244   6.817  15.579 -0.0104  0.3404 -0.0023
 1415TIP3    H125736   2.338   6.804  15.587 -0.0543  0.2036  0.2993
 1415TIP3    H225737   2.207   6.779  15.659 -0.4547 -1.0812 -0.8639
 1416TIP3   OH225738   3.125   3.973  15.843 -0.0027 -0.1449 -0.0483
 1416TIP3    H125739   3.092   4.025  15.769 -1.1453 -0.3739  0.2869
 1416TIP3    H225740   3.199   4.024  15.877  0.4175  0.0559 -1.2278
 1417TIP3   OH225741   5.004   3.825   4.744 -0.0509 -0.4248  0.0239
 1417TIP3    H125742   5.099   3.808   4.739 -0.1503 -1.1289  0.3848
 1417TIP3    H225743   4.966   3.769   4.677 -0.2897 -0.8003  0.4735
 1418TIP3   OH225744   3.409   2.677   5.642  0.6811  0.5796  0.0073
 1418TIP3    H125745   3.364   2.604   5.599 -0.2281  0.7583  0.6382
 1418TIP3    H225746   3.359   2.755   5.617  1.0364  0.8654  0.1689
 1419TIP3   OH225747   3.831   3.566   2.999 -0.0440  0.0869  0.5766
 1419TIP3    H125748   3.770   3.592   3.069  0.1327  2.7061 -0.1820
 1419TIP3    H225749   3.776   3.517   2.937 -1.2773  1.8339  0.2358
 1420TIP3   OH225750   5.098   1.224  14.483 -0.4113  0.0446 -0.1771
 1420TIP3    H125751   5.102   1.240  14.577  2.3660 -0.9401 -0.0852
 1420TIP3    H225752   5.096   1.129  14.475  0.6342  0.0936 -1.1365
 1421TIP3   OH225753   3.393   2.062  11.338 -0.3595 -0.3137  0.0678
 1421TIP3    H125754   3.309   2.103  11.316 -0.7068 -0.5647  0.8908
 1421TIP3    H225755   3.405   1.995  11.270 -1.0611 -0.5987  0.2181
 1422TIP3   OH225756   0.918   2.437  16.134  0.2376 -0.7841 -0.7623
 1422TIP3    H125757   0.883   2.469  16.052 -0.1841  0.0270 -0.2644
 1422TIP3    H225758   0.961   2.354  16.111  2.4736  0.7372 -2.2795
 1423TIP3   OH225759   6.690   4.442  15.838  0.5879  0.1701  0.0751
 1423TIP3    H125760   6.780   4.411  15.824 -0.4964 -2.1275 -2.1286
 1423TIP3    H225761   6.654   4.382  15.904  0.0534 -0.1849 -0.5328
 1424TIP3   OH225762   6.262   6.803  11.801 -0.5857  0.3333  0.1190
 1424TIP3    H125763   6.320   6.861  11.850 -2.4830  2.4498 -0.0554
 1424TIP3    H225764   6.305   6.794  11.716 -1.4374  3.5761 -0.7450
 1425TIP3   OH225765   1.453   4.846   0.961 -0.6853  0.4136  0.4034
 1425TIP3    H125766   1.479   4.763   0.923 -1.4807  0.6602 -0.7027
 1425TIP3    H225767   1.382   4.823   1.022 -0.7188  0.2539  0.3037
 1426TIP3   OH225768   3.630   2.733  14.142 -0.7067 -0.8734  0.1886
 1426TIP3    H125769   3.628   2.776  14.057 -1.6169  0.5350  0.9170
 1426TIP3    H225770   3.721   2.703  14.151 -0.0308  0.9631 -0.2858
 1427TIP3   OH225771   3.399   0.943   2.950  0.6596  0.0046  0.2456
 1427TIP3    H125772   3.391   0.848   2.963  1.4768 -0.2466 -0.9930
 1427TIP3    H225773   3.433   0.952   2.861 -1.1747  1.5285 -0.3425
 1428TIP3   OH225774   4.716   0.723  12.871 -0.2088  0.0126 -0.3103
 1428TIP3    H125775   4.706   0.631  12.845  0.2773 -0.5770  1.4907
 1428TIP3    H225776   4.803   0.727  12.911  0.2111  1.5087 -1.3545
 1429TIP3   OH225777   6.405   6.260   5.524 -0.7301  0.2395  0.3230
 1429TIP3    H125778   6.479   6.306   5.564 -0.9097  0.6196  0.2319
 1429TIP3    H225779   6.337   6.328   5.517 -1.5308 -0.4144  1.5749
 1430TIP3   OH225780   4.616   2.632   0.162 -0.0778  1.0618 -0.6213
 1430TIP3    H125781   4.557   2.587   0.102 -0.5983  2.3197 -1.0705
 1430TIP3    H225782   4.704   2.618   0.126 -0.0755 -0.8808  0.0939
 1431TIP3   OH225783   1.877   3.098  16.667  0.5156 -0.5231  0.1382
 1431TIP3    H125784   1.832   3.143  16.739  0.8887 -0.6540  0.4532
 1431TIP3    H225785   1.819   3.111  16.592 -0.8593 -2.0693  0.8958
 1432TIP3   OH225786   0.125   0.038   5.635  0.5549 -0.5753  0.7869
 1432TIP3    H125787   0.205   0.085   5.609  0.6700 -2.1162 -1.7314
 1432TIP3    H225788   0.157  -0.043   5.675  0.2903 -1.7596 -1.3187
 1433TIP3   OH225789   0.808   4.138  13.383  0.0570  0.6896  0.0969
 1433TIP3    H125790   0.850   4.091  13.455 -1.7311 -0.9564  0.0779
 1433TIP3    H225791   0.715   4.137  13.404 -0.3268  1.4876 -1.5029
 1434TIP3   OH225792   4.409   4.893   0.508  0.0303  0.4104  0.8250
 1434TIP3    H125793   4.427   4.805   0.542  3.3372  0.1837 -1.2774
 1434TIP3    H225794   4.378   4.878   0.419  0.6104  1.3767  0.4553
 1435TIP3   OH225795   0.210   3.206   2.619 -0.4348 -0.1500 -0.8333
 1435TIP3    H125796   0.141   3.212   2.553 -1.2268 -2.1038 -0.2297
 1435TIP3    H225797   0.288   3.183   2.570 -0.8176 -0.6810 -1.2045
 1436TIP3   OH225798   3.137   1.250   1.532  0.0380 -0.6179  0.0594
 1436TIP3    H125799   3.116   1.207   1.449  0.1341 -2.2944  0.8893
 1436TIP3    H225800   3.097   1.337   1.524 -1.4091 -1.3539 -1.0886
 1437TIP3   OH225801   3.074   0.683  10.735  0.1031  0.0780 -0.1024
 1437TIP3    H125802   3.053   0.753  10.797 -1.1410  0.6648 -1.1692
 1437TIP3    H225803   3.101   0.609  10.790 -1.3444  0.4700  1.1523
 1438TIP3   OH225804   3.248   4.221  12.498  0.0938 -0.2353  0.3028
 1438TIP3    H125805   3.331   4.225  12.546  0.4534 -0.3727 -0.3075
 1438TIP3    H225806   3.265   4.270  12.417 -0.2618 -0.7203 -0.0644
 1439TIP3   OH225807   3.565   5.948  14.771  0.2222  0.3806 -0.0380
 1439TIP3    H125808   3.568   5.970  14.864  0.5815  0.2661 -0.0208
 1439TIP3    H225809   3.512   5.868  14.767 -0.2873  0.7143  0.0008
 1440TIP3   OH225810   5.148   4.595  16.792  0.1324  0.0170  0.3887
 1440TIP3    H125811   5.121   4.665  16.732 -1.1717  0.8319  1.8925
 1440TIP3    H225812   5.180   4.642  16.869  1.2228 -1.0380  0.5937
 1441TIP3   OH225813   5.502   5.595  14.680 -0.3179 -0.0929 -0.3566
 1441TIP3    H125814   5.533   5.542  14.607 -1.2946 -1.5658  0.2753
 1441TIP3    H225815   5.413   5.620  14.656 -0.4176 -0.0503  0.0606
 1442TIP3   OH225816   2.576   0.258  11.068  0.0599  0.5251 -0.2595
 1442TIP3    H125817   2.609   0.170  11.047 -0.2453  0.4597 -0.4658
 1442TIP3    H225818   2.561   0.299  10.983 -0.9340  0.3512 -0.1785
 1443TIP3   OH225819   6.346   5.533   4.293  0.0521  0.0619  0.2790
 1443TIP3    H125820   6.256   5.524   4.324  0.6163 -0.0847  1.9712
 1443TIP3    H225821   6.399   5.501   4.367  1.5546  1.9974  0.0827
 1444TIP3   OH225822   3.793   1.135   2.120  0.1445 -0.0775 -0.2189
 1444TIP3    H125823   3.877   1.180   2.129  1.0512 -1.3602 -1.8640
 1444TIP3    H225824   3.816   1.049   2.086 -1.5844 -1.6962  2.6090
 1445TIP3   OH225825   2.130   3.745  14.165 -0.0819 -0.3256 -0.4614
 1445TIP3    H125826   2.190   3.743  14.091 -1.4693  0.4929 -1.6402
 1445TIP3    H225827   2.073   3.820  14.147 -0.5531 -0.2398  1.3429
 1446TIP3   OH225828   6.456   5.527   0.316 -0.2014 -0.0709 -0.1765
 1446TIP3    H125829   6.497   5.543   0.401 -1.0779 -0.3816  0.3063
 1446TIP3    H225830   6.530   5.525   0.255  0.5789 -1.1870  0.7692
 1447TIP3   OH225831   4.042   5.693  13.415  0.1335  0.3072 -0.3948
 1447TIP3    H125832   4.121   5.715  13.367  0.0229 -0.7635 -1.0946
 1447TIP3    H225833   3.973   5.691  13.349 -0.0743 -0.8951 -0.1577
 1448TIP3   OH225834   6.353   5.794  16.837  0.4290 -0.3801  0.0532
 1448TIP3    H125835   6.294   5.856  16.879  0.3834 -0.0743 -0.4571
 1448TIP3    H225836   6.430   5.846  16.814 -0.7874  0.1689 -2.9960
 1449TIP3   OH225837   2.521   0.908   3.415 -0.0555 -0.5344  0.0416
 1449TIP3    H125838   2.598   0.889   3.468 -1.4061 -3.5791  1.0286
 1449TIP3    H225839   2.448   0.872   3.465 -1.9447  0.7463 -1.6969
 1450TIP3   OH225840   5.282   0.819  17.199 -0.4261 -0.2139 -0.1335
 1450TIP3    H125841   5.216   0.875  17.158  0.2462 -0.6227 -1.8551
 1450TIP3    H225842   5.363   0.870  17.195 -0.4942  0.0130  1.3354
 1451TIP3   OH225843   6.548   0.859  11.895  0.5620  0.2415 -0.3865
 1451TIP3    H125844   6.480   0.915  11.857 -0.0843  1.3665  2.3343
 1451TIP3    H225845   6.596   0.916  11.955  2.1959 -1.2482 -0.2132
 1452TIP3   OH225846   4.129   2.551   3.122 -0.3454  0.2101  0.0891
 1452TIP3    H125847   4.049   2.582   3.080 -0.2871 -0.5290 -0.5850
 1452TIP3    H225848   4.116   2.567   3.215 -0.9579  0.7978 -0.0975
 1453TIP3   OH225849   1.824   1.006   3.454  0.4542  0.3971  0.0803
 1453TIP3    H125850   1.893   0.976   3.513  0.3941  0.3266  0.1155
 1453TIP3    H225851   1.809   0.932   3.395 -0.9908 -0.3336  1.3352
 1454TIP3   OH225852   6.691   6.400  14.178  0.6438 -0.3474  0.3805
 1454TIP3    H125853   6.768   6.345  14.161  0.5555 -0.4833  0.4170
 1454TIP3    H225854   6.693   6.466  14.109  0.5117 -0.6537  0.0851
 1455TIP3   OH225855   3.084   3.964  11.735  0.3672 -0.3095 -0.3645
 1455TIP3    H125856   3.030   3.936  11.661  1.0088  0.2504 -1.0509
 1455TIP3    H225857   3.167   3.992  11.695  1.0121 -0.7597  0.6304
 1456TIP3   OH225858   1.827   0.368   1.644  0.5344  0.2383  0.8654
 1456TIP3    H125859   1.735   0.357   1.666  0.4711 -1.3291 -0.0843
 1456TIP3    H225860   1.832   0.455   1.604 -0.5649  0.2816  0.8063
 1457TIP3   OH225861   1.207   2.188  11.989  0.6079  0.1541 -0.1560
 1457TIP3    H125862   1.291   2.145  12.008  0.3984 -0.5790 -0.8420
 1457TIP3    H225863   1.221   2.279  12.013  0.9021 -0.3813  1.8255
 1458TIP3   OH225864   3.386   6.696   3.922  0.3241 -0.5987  0.7009
 1458TIP3    H125865   3.436   6.623   3.886 -1.6590 -0.6640 -2.1331
 1458TIP3    H225866   3.308   6.654   3.960 -0.9881 -0.0164 -1.2365
 1459TIP3   OH225867   6.242   6.127  16.638 -0.0017 -0.5291  0.1698
 1459TIP3    H125868   6.261   6.080  16.557 -0.8662  1.3068 -1.1309
 1459TIP3    H225869   6.162   6.086  16.671  1.2850 -2.4366  1.0613
 1460TIP3   OH225870   5.806   5.663  14.458  0.1390 -1.1031 -0.2284
 1460TIP3    H125871   5.726   5.703  14.423 -0.3189 -0.3821  1.6000
 1460TIP3    H225872   5.796   5.668  14.553  2.3461 -1.0785  0.0254
 1461TIP3   OH225873   2.110   2.769  15.886 -0.0977  0.0159 -0.1995
 1461TIP3    H125874   2.112   2.845  15.944  2.5863  0.8782 -1.3499
 1461TIP3    H225875   2.052   2.795  15.814 -1.3399 -0.0821  0.7456
 1462TIP3   OH225876   5.579   2.024  13.614  0.1215 -0.3799 -1.1038
 1462TIP3    H125877   5.554   1.941  13.654 -1.1426  1.9014  3.2104
 1462TIP3    H225878   5.674   2.029  13.625  0.0947 -0.8784 -0.6419
 1463TIP3   OH225879   2.345   1.425   5.011  0.6185 -1.0053  0.0412
 1463TIP3    H125880   2.274   1.361   4.999  1.3057 -2.0441  1.4267
 1463TIP3    H225881   2.398   1.417   4.932  0.5852 -2.0252  0.1163
 1464TIP3   OH225882   0.537   0.630  12.737 -0.5416  0.2202 -0.6369
 1464TIP3    H125883   0.467   0.676  12.784 -0.3602  0.0276 -0.1753
 1464TIP3    H225884   0.498   0.546  12.712 -0.6567  0.3462 -0.8825
 1465TIP3   OH225885   3.306   2.278   4.916  0.1347 -0.6064  0.2973
 1465TIP3    H125886   3.258   2.354   4.883  1.7752  0.1423 -0.3737
 1465TIP3    H225887   3.247   2.204   4.901 -1.8910  0.6299  1.8672
 1466TIP3   OH225888   2.362   5.028  12.247  0.1041  0.3495  0.1201
 1466TIP3    H125889   2.429   5.053  12.183 -0.4247 -1.3244 -1.1287
 1466TIP3    H225890   2.307   4.965  12.201 -1.9545  1.1856  1.3576
 1467TIP3   OH225891   1.252   5.261   3.950 -0.1875  0.0749 -0.6640
 1467TIP3    H125892   1.261   5.347   3.991  0.8534 -0.7681  0.9176
 1467TIP3    H225893   1.283   5.274   3.861 -0.6156  1.4791 -0.6163
 1468TIP3   OH225894   4.963   6.162  13.372  0.4438 -0.1743 -0.4898
 1468TIP3    H125895   4.977   6.069  13.356  0.1878 -0.0846 -1.2205
 1468TIP3    H225896   4.990   6.174  13.463  3.2838 -0.3792 -1.2594
 1469TIP3   OH225897   6.260   1.246  17.269 -0.0963 -0.1626  0.0068
 1469TIP3    H125898   6.276   1.154  17.246 -0.7740 -0.3753  0.3813
 1469TIP3    H225899   6.247   1.289  17.185 -0.5278 -0.5502 -0.1260
 1470TIP3   OH225900   5.180   3.972   5.342 -0.7225  0.1052 -0.6379
 1470TIP3    H125901   5.096   3.981   5.388 -0.3919  0.9423 -0.1978
 1470TIP3    H225902   5.190   4.054   5.295 -0.6454 -0.4158 -1.5252
 1471TIP3   OH225903   6.673   0.485   2.948 -0.2555 -0.6880 -0.1958
 1471TIP3    H125904   6.604   0.515   2.889  0.4824 -1.0585 -1.2556
 1471TIP3    H225905   6.686   0.559   3.008 -1.5337 -0.6006 -0.0111
 1472TIP3   OH225906   0.377   3.040  15.334 -0.4102 -0.2204 -0.2785
 1472TIP3    H125907   0.286   3.061  15.311 -0.5402  0.1367  0.5687
 1472TIP3    H225908   0.430   3.088  15.269 -0.8188 -0.3636 -0.7214
 1473TIP3   OH225909   0.588   1.744   1.474  0.1665 -0.7323 -0.0260
 1473TIP3    H125910   0.647   1.818   1.489 -0.3219 -0.7157  1.9274
 1473TIP3    H225911   0.638   1.667   1.500 -1.1207 -0.5910  3.2036
 1474TIP3   OH225912   1.754   4.807  15.801  0.7110  0.7620  0.4068
 1474TIP3    H125913   1.689   4.747  15.764 -0.8043  2.4109  0.3097
 1474TIP3    H225914   1.783   4.765  15.882  0.5249 -0.6363 -0.2505
 1475TIP3   OH225915   5.280   2.886  11.674 -0.2099  0.6358 -0.9107
 1475TIP3    H125916   5.206   2.830  11.650 -0.2097  0.2831 -0.1089
 1475TIP3    H225917   5.355   2.827  11.676 -0.4546  0.3373  1.3603
 1476TIP3   OH225918   2.334   0.460  16.771 -0.1013 -0.0914 -0.8843
 1476TIP3    H125919   2.267   0.467  16.839 -0.4255  0.7732 -1.2882
 1476TIP3    H225920   2.379   0.544  16.773 -0.7493  0.3048 -2.3879
 1477TIP3   OH225921   6.585   3.719   3.778  0.4336 -0.1585 -0.4002
 1477TIP3    H125922   6.608   3.742   3.868  0.2243 -0.8158 -0.1810
 1477TIP3    H225923   6.526   3.789   3.751  3.3380  2.0980 -1.2909
 1478TIP3   OH225924   5.916   5.061  17.157 -0.1461  0.2841  0.2716
 1478TIP3    H125925   5.861   5.138  17.143 -2.1830 -0.8899  1.6043
 1478TIP3    H225926   5.951   5.072  17.246 -0.6489 -0.4423  0.5645
 1479TIP3   OH225927   6.749   6.264  13.236  0.2670  0.2152 -0.4223
 1479TIP3    H125928   6.709   6.208  13.169 -0.5888  0.5355 -0.1856
 1479TIP3    H225929   6.748   6.352  13.198  1.3674  0.1221 -0.6868
 1480TIP3   OH225930   0.616   4.550   3.020  0.5781  0.2361  0.0887
 1480TIP3    H125931   0.534   4.575   3.063 -1.6800 -2.6431 -2.3707
 1480TIP3    H225932   0.639   4.466   3.058  0.3364 -0.7555 -1.9118
 1481TIP3   OH225933   2.544   1.681   0.445  0.0433  0.0005  0.3046
 1481TIP3    H125934   2.513   1.657   0.532  2.0108  0.7398  1.2537
 1481TIP3    H225935   2.482   1.748   0.415 -0.4805 -0.0466  1.2670
 1482TIP3   OH225936   4.144   4.647  17.033  0.6955 -0.2608  0.1981
 1482TIP3    H125937   4.219   4.706  17.043  0.0441  0.1736  3.0949
 1482TIP3    H225938   4.091   4.687  16.964  1.8680  0.8225 -0.0906
 1483TIP3   OH225939   2.840   2.458   1.838 -0.4405  0.2555  0.1366
 1483TIP3    H125940   2.858   2.434   1.746 -0.2706  0.8130  0.0260
 1483TIP3    H225941   2.797   2.543   1.832 -0.2791  0.3671  0.5876
 1484TIP3   OH225942   5.266   5.460   5.363  0.3266 -0.2400 -0.0996
 1484TIP3    H125943   5.282   5.515   5.440  2.9399  0.2900 -0.9668
 1484TIP3    H225944   5.352   5.421   5.343 -0.1359  0.1909 -3.1689
 1485TIP3   OH225945   6.223   2.044   3.305  0.1798 -0.6633 -0.1289
 1485TIP3    H125946   6.165   2.068   3.378  1.5132 -0.3414  0.8384
 1485TIP3    H225947   6.164   2.012   3.237 -1.2646  1.0287  0.2949
 1486TIP3   OH225948   6.665   4.886   4.299 -0.0475 -0.2399  0.0976
 1486TIP3    H125949   6.607   4.886   4.375 -0.2796 -4.0773  0.0059
 1486TIP3    H225950   6.717   4.806   4.309  0.6102 -0.2817 -3.2760
 1487TIP3   OH225951   2.667   1.632  11.526 -0.3596 -0.0627  0.1278
 1487TIP3    H125952   2.741   1.689  11.507 -0.0464 -0.4127  0.2855
 1487TIP3    H225953   2.664   1.571  11.452  0.5194 -1.0751  0.8848
 1488TIP3   OH225954   2.612   0.567   4.320  0.2853 -0.7638 -0.0190
 1488TIP3    H125955   2.520   0.567   4.293 -0.3044 -0.4568  1.9075
 1488TIP3    H225956   2.611   0.604   4.408  2.3016 -0.4773 -0.1003
 1489TIP3   OH225957   5.397   0.784  12.908 -0.1635 -0.2763 -0.3729
 1489TIP3    H125958   5.332   0.817  12.847 -0.3100  1.6081  0.7570
 1489TIP3    H225959   5.359   0.802  12.995  0.8318 -1.2558  0.2749
 1490TIP3   OH225960   4.880   3.934   0.840 -0.3513 -0.6324 -0.1687
 1490TIP3    H125961   4.846   3.943   0.751  1.2919  2.1400 -0.5670
 1490TIP3    H225962   4.822   3.986   0.895 -0.2814 -0.8315  0.0979
 1491TIP3   OH225963   0.169   5.355  11.501 -0.3237 -0.4883 -0.5924
 1491TIP3    H125964   0.113   5.411  11.555 -0.7047 -0.7738 -0.6983
 1491TIP3    H225965   0.243   5.412  11.478  0.0514 -0.4850  0.5733
 1492TIP3   OH225966   1.082   2.047  12.391 -0.6148  0.0188  0.4524
 1492TIP3    H125967   1.068   1.986  12.318  0.7753 -0.0750  0.2435
 1492TIP3    H225968   1.169   2.083  12.375 -0.1358 -0.2688  2.2503
 1493TIP3   OH225969   6.696   4.273  11.287 -0.1719 -0.5002 -0.1916
 1493TIP3    H125970   6.729   4.326  11.214 -0.1871 -0.6898 -0.3374
 1493TIP3    H225971   6.698   4.183  11.254  0.0190 -0.6093  0.1192
 1494TIP3   OH225972   4.109   2.782   3.923  0.0888 -0.4312  0.0702
 1494TIP3    H125973   4.193   2.777   3.879 -0.0750  0.9655 -0.4373
 1494TIP3    H225974   4.113   2.716   3.992  1.3077 -0.8760 -0.4224
 1495TIP3   OH225975   3.344   3.721   1.431  0.9464  0.1409  0.4560
 1495TIP3    H125976   3.401   3.702   1.357  2.0419  1.6893  0.8833
 1495TIP3    H225977   3.276   3.778   1.395  0.2933 -0.7991  0.1917
 1496TIP3   OH225978   1.435   4.480   1.375  0.1070 -0.2785 -0.3599
 1496TIP3    H125979   1.467   4.394   1.348  0.5665  0.0589 -0.9152
 1496TIP3    H225980   1.425   4.474   1.470  0.1752 -0.9310 -0.3949
 1497TIP3   OH225981   4.758   5.266  16.815  0.1495 -0.4147 -0.0635
 1497TIP3    H125982   4.801   5.204  16.756  1.0245  0.2445 -0.1386
 1497TIP3    H225983   4.798   5.249  16.901 -0.8967 -1.1626  0.2787
 1498TIP3   OH225984   0.323   4.532  13.453  0.0090  0.0687 -0.0772
 1498TIP3    H125985   0.324   4.626  13.474  0.0456  0.3515 -1.3095
 1498TIP3    H225986   0.410   4.514  13.419 -0.1810 -0.2900 -0.3763
 1499TIP3   OH225987   6.335   5.874  15.673 -0.1677  0.0424 -0.3238
 1499TIP3    H125988   6.327   5.957  15.627  0.0543 -0.6940 -1.7217
 1499TIP3    H225989   6.428   5.864  15.690 -0.5626  2.0413  3.6145
 1500TIP3   OH225990   4.484   2.415   3.723 -0.4279  0.5006 -0.0249
 1500TIP3    H125991   4.500   2.489   3.665 -1.8962  0.1991 -0.8572
 1500TIP3    H225992   4.478   2.340   3.664 -2.2013  0.2256  0.4783
 1501TIP3   OH225993   1.385   5.746  15.654  0.2048  0.5428 -0.6881
 1501TIP3    H125994   1.425   5.767  15.738  0.3131  0.8264 -0.8104
 1501TIP3    H225995   1.303   5.796  15.653 -0.9289 -1.2535  0.2353
 1502TIP3   OH225996   6.290   4.086   3.655 -0.0994 -0.4602  0.1127
 1502TIP3    H125997   6.337   4.149   3.600 -1.4372 -1.0398 -1.7535
 1502TIP3    H225998   6.202   4.084   3.618 -0.9374 -1.1315  2.1003
 1503TIP3   OH225999   0.652   1.030  11.217 -0.4789 -0.4880  0.3096
 1503TIP3    H126000   0.696   0.981  11.147  0.3975  1.3742 -0.4720
 1503TIP3    H226001   0.670   1.122  11.197 -1.9838  0.1577  1.8320
 1504TIP3   OH226002   1.699   6.513  15.054  1.2802  0.2467 -0.1345
 1504TIP3    H126003   1.618   6.561  15.068  1.3822  0.1446  0.8374
 1504TIP3    H226004   1.671   6.428  15.020  1.1163  1.0909 -2.1447
 1505TIP3   OH226005   3.080   3.061   5.110  0.1723  0.3615 -0.3704
 1505TIP3    H126006   3.074   2.972   5.147  0.8786  0.3211 -0.3340
 1505TIP3    H226007   3.168   3.090   5.135  0.2356  0.7623 -1.0741
 1506TIP3   OH226008   1.923   4.579  11.587 -0.8089  0.3490 -0.3693
 1506TIP3    H126009   1.916   4.673  11.569  0.2881  0.7264  1.1265
 1506TIP3    H226010   1.894   4.570  11.678 -2.2484 -0.9678 -0.9287
 1507TIP3   OH226011   5.613   6.393   2.414 -0.1556 -0.0491 -0.5412
 1507TIP3    H126012   5.577   6.481   2.398  0.5535 -0.0474 -2.2065
 1507TIP3    H226013   5.696   6.393   2.367  1.1080 -0.7361  1.6162
 1508TIP3   OH226014   5.366   3.270   0.602  0.0691 -0.0929  0.2856
 1508TIP3    H126015   5.437   3.330   0.579  0.5454 -0.8438 -0.2540
 1508TIP3    H226016   5.315   3.262   0.521  0.0141 -0.4114  0.3523
 1509TIP3   OH226017   6.774   2.297   5.403 -0.2634  0.2411  0.3685
 1509TIP3    H126018   6.836   2.233   5.369  1.2317  1.5909  0.4768
 1509TIP3    H226019   6.730   2.332   5.326  0.8247  0.9845  0.0696
 1510TIP3   OH226020   1.013   4.222   5.223  0.6913 -0.2695 -0.1546
 1510TIP3    H126021   1.069   4.174   5.162  1.6888  0.6369  0.0436
 1510TIP3    H226022   0.949   4.266   5.167  0.8296 -0.4523 -0.4571
 1511TIP3   OH226023   2.799   4.054   1.025 -0.2004  0.3409  0.1733
 1511TIP3    H126024   2.759   4.141   1.032 -0.1376  0.3223  0.7585
 1511TIP3    H226025   2.738   4.004   0.970  0.9948  1.4753 -2.3053
 1512TIP3   OH226026   3.859   6.443  15.982 -0.3899  0.1877  0.1951
 1512TIP3    H126027   3.883   6.401  16.064 -2.3273 -0.0067  0.6976
 1512TIP3    H226028   3.921   6.409  15.918 -0.5815 -1.7858  1.0278
 1513TIP3   OH226029   2.154   1.216   5.538 -0.1470 -0.0026  0.2880
 1513TIP3    H126030   2.227   1.232   5.598  1.0878  1.0371 -1.4222
 1513TIP3    H226031   2.122   1.303   5.516 -1.7253 -0.4455  0.7846
 1514TIP3   OH226032   1.074   4.567   2.575 -0.3701 -0.0748  0.5350
 1514TIP3    H126033   0.990   4.592   2.537 -1.0139  0.5092  2.2931
 1514TIP3    H226034   1.139   4.612   2.521 -1.3125  1.6240  0.7654
 1515TIP3   OH226035   6.733   6.506  11.289 -0.5070 -0.3377 -0.1156
 1515TIP3    H126036   6.776   6.586  11.258  0.9890 -0.6832  1.0125
 1515TIP3    H226037   6.719   6.454  11.210  1.7430 -0.4816 -0.4529
 1516TIP3   OH226038   1.213   4.497  16.736  0.8759  0.2118 -0.4568
 1516TIP3    H126039   1.257   4.440  16.799  0.1920 -1.7159 -1.6730
 1516TIP3    H226040   1.245   4.467  16.651 -1.2841  0.0683 -1.2486
 1517TIP3   OH226041   6.760   6.088  16.274 -0.0239  0.1289 -0.8552
 1517TIP3    H126042   6.800   6.001  16.269  0.2378  0.0748  1.6518
 1517TIP3    H226043   6.825   6.141  16.320 -1.5641  0.8124  0.5352
 1518TIP3   OH226044   6.797   2.600  14.005 -0.0559  0.1065 -0.4204
 1518TIP3    H126045   6.885   2.628  14.030 -0.1184  1.6421 -1.7859
 1518TIP3    H226046   6.741   2.632  14.075  0.4036 -0.2940  0.1281
 1519TIP3   OH226047   0.428   2.460  13.327  0.0962  0.5964 -0.0896
 1519TIP3    H126048   0.458   2.408  13.401 -1.7544 -1.4029 -0.6955
 1519TIP3    H226049   0.400   2.396  13.262  0.9659  2.3195 -2.2484
 1520TIP3   OH226050   3.158   1.710  11.246  0.2602  0.5296  0.3566
 1520TIP3    H126051   3.093   1.772  11.214 -1.3277 -0.8940  0.7309
 1520TIP3    H226052   3.223   1.705  11.176 -0.0103  1.9848 -0.0180
 1521TIP3   OH226053   2.719   3.042  14.692  0.4925  0.5899  0.1239
 1521TIP3    H126054   2.728   3.137  14.684  1.0715  0.4170 -1.6356
 1521TIP3    H226055   2.639   3.021  14.644  1.2298  0.0415 -0.9058
 1522TIP3   OH226056   2.653   4.907  14.423 -0.5020 -0.4891 -0.0909
 1522TIP3    H126057   2.581   4.961  14.457  1.6878  2.0853  0.6474
 1522TIP3    H226058   2.717   4.905  14.494  1.5179 -0.0996 -1.8550
 1523TIP3   OH226059   3.056   6.440  17.209 -0.1625  0.4837  0.5644
 1523TIP3    H126060   3.073   6.474  17.122 -1.4234 -1.5599 -0.5186
 1523TIP3    H226061   3.114   6.364  17.217 -1.1944 -0.2763  0.8817
 1524TIP3   OH226062   4.836   4.573  14.189 -0.5251 -0.0036  0.1979
 1524TIP3    H126063   4.862   4.481  14.193  1.9506  0.5737 -1.1471
 1524TIP3    H226064   4.742   4.571  14.171 -0.2876 -2.2669 -0.9788
 1525TIP3   OH226065   5.674   3.718   5.939  0.1078  0.3338  0.0296
 1525TIP3    H126066   5.605   3.738   6.003  0.4267  0.5254  0.3131
 1525TIP3    H226067   5.755   3.719   5.990  0.2998 -0.0699 -0.2722
 1526TIP3   OH226068   3.315   4.468  12.903  0.5000 -0.5367  0.0298
 1526TIP3    H126069   3.223   4.450  12.882  0.4748 -0.8882  0.4348
 1526TIP3    H226070   3.325   4.441  12.994  1.7362 -3.2340 -0.8719
 1527TIP3   OH226071   6.261   3.646  16.622 -0.3035 -0.4562  0.6424
 1527TIP3    H126072   6.330   3.597  16.576 -0.7988 -2.2003  1.7037
 1527TIP3    H226073   6.197   3.579  16.646 -0.8715  0.6831  2.3850
 1528TIP3   OH226074   1.500   5.908   3.810  0.1878 -0.4145  0.4555
 1528TIP3    H126075   1.422   5.853   3.800 -0.7610  1.1200 -0.9233
 1528TIP3    H226076   1.475   5.971   3.879  0.4492 -0.3284  0.4696
 1529TIP3   OH226077   0.125   2.457   5.558 -0.2666  0.1386 -0.3767
 1529TIP3    H126078   0.075   2.484   5.481 -0.5221 -0.7049 -0.5162
 1529TIP3    H226079   0.060   2.449   5.627 -0.5535 -2.1585 -0.8598
 1530TIP3   OH226080   2.303   6.118   4.578  0.5329 -0.5294  0.8812
 1530TIP3    H126081   2.219   6.163   4.589  0.2138 -0.7185 -0.6302
 1530TIP3    H226082   2.279   6.027   4.558  1.1260 -0.8702  1.6880
 1531TIP3   OH226083   5.433   1.420  10.864  0.1940 -0.3907  0.3469
 1531TIP3    H126084   5.433   1.423  10.768 -0.7227  1.1339  0.3910
 1531TIP3    H226085   5.525   1.424  10.888  0.3197  2.1701 -0.4032
 1532TIP3   OH226086   0.372   5.709   3.819  0.6091 -0.1525 -0.3866
 1532TIP3    H126087   0.318   5.777   3.859 -0.0172 -1.2165  0.6219
 1532TIP3    H226088   0.372   5.730   3.726 -1.1435  0.1475 -0.3407
 1533TIP3   OH226089   6.235   2.963   1.856  0.0435  0.0954  0.0337
 1533TIP3    H126090   6.287   2.906   1.800  0.1788 -0.2515  0.5087
 1533TIP3    H226091   6.283   3.046   1.857  0.6632 -0.2606  0.5719
 1534TIP3   OH226092   1.388   1.323   1.783  0.0533 -0.0402 -0.3896
 1534TIP3    H126093   1.350   1.294   1.866 -1.2523  0.2426 -0.8742
 1534TIP3    H226094   1.482   1.331   1.801 -0.2806  0.5339  1.2090
 1535TIP3   OH226095   0.749   4.847   1.054  0.8100 -0.3170  0.8241
 1535TIP3    H126096   0.656   4.822   1.048  0.7326 -0.1030  1.1240
 1535TIP3    H226097   0.788   4.814   0.973  0.0579  1.3709 -0.2492
 1536TIP3   OH226098   3.668   4.603  13.464 -0.6861  0.1829  0.3865
 1536TIP3    H126099   3.596   4.551  13.501  0.7044 -2.2092 -0.1404
 1536TIP3    H226100   3.659   4.592  13.370  0.7338 -0.6759  0.3333
 1537TIP3   OH226101   4.315   2.092  16.414  0.1692 -0.5402 -0.7714
 1537TIP3    H126102   4.382   2.026  16.429 -1.1225 -1.6210  0.3549
 1537TIP3    H226103   4.316   2.146  16.493 -2.5761 -2.6244  0.7484
 1538TIP3   OH226104   2.672   4.039   4.545 -0.0964  0.1830 -0.1035
 1538TIP3    H126105   2.681   4.021   4.451 -1.3114  0.4414 -0.2814
 1538TIP3    H226106   2.685   4.134   4.553  0.2835  0.1186  0.0205
 1539TIP3   OH226107   3.349   1.274   4.393 -0.3653  0.0002 -0.2472
 1539TIP3    H126108   3.318   1.183   4.396 -0.0424 -0.1159 -0.4393
 1539TIP3    H226109   3.343   1.298   4.301  0.7647 -0.2500 -0.3992
 1540TIP3   OH226110   0.174   5.149   0.395 -0.2232 -0.1286 -0.8610
 1540TIP3    H126111   0.229   5.207   0.447 -0.4376 -1.3908  0.7793
 1540TIP3    H226112   0.224   5.135   0.314  0.3024  1.4695 -0.8353
 1541TIP3   OH226113   5.161   4.427  14.293  0.4228  0.4014  0.2711
 1541TIP3    H126114   5.171   4.492  14.224  0.9508 -0.4462 -0.4595
 1541TIP3    H226115   5.169   4.343  14.249  0.3993 -0.1557  1.3039
 1542TIP3   OH226116   4.491   1.648  13.304  0.8153 -0.0398  0.4519
 1542TIP3    H126117   4.575   1.657  13.349  1.3497 -1.4183 -0.2528
 1542TIP3    H226118   4.480   1.731  13.258  2.6384 -0.4804 -0.8628
 1543TIP3   OH226119   0.593   1.985  14.747  0.5446  0.6693  0.4358
 1543TIP3    H126120   0.679   2.024  14.731  0.9598  0.0524  1.1496
 1543TIP3    H226121   0.608   1.918  14.814 -0.2643 -0.3002 -0.3146
 1544TIP3   OH226122   1.320   3.058  12.650  0.2969 -0.3364  0.2557
 1544TIP3    H126123   1.406   3.095  12.629  0.6000 -0.7159  0.8035
 1544TIP3    H226124   1.262   3.094  12.583  1.1619 -1.2713 -1.0211
 1545TIP3   OH226125   2.835   5.846   4.984 -0.0497 -0.2176 -0.1702
 1545TIP3    H126126   2.921   5.808   4.967  0.5296  0.5882  0.8495
 1545TIP3    H226127   2.852   5.940   4.993 -0.8409 -0.1852  1.2086
 1546TIP3   OH226128   3.894   3.330  14.878  0.2226  0.2094 -0.6907
 1546TIP3    H126129   3.928   3.297  14.962 -0.4322 -0.0945 -0.5466
 1546TIP3    H226130   3.847   3.256  14.840  0.3401  0.4100 -1.2339
 1547TIP3   OH226131   0.984   6.180  11.468  0.1214 -0.4126 -0.4338
 1547TIP3    H126132   1.069   6.224  11.459  0.0351 -0.1477  0.0005
 1547TIP3    H226133   1.003   6.100  11.517 -0.0234  0.1196  0.5034
 1548TIP3   OH226134   2.263   4.791   5.358  0.3722 -0.3842 -0.4281
 1548TIP3    H126135   2.251   4.699   5.334 -0.2935 -0.3344 -0.2982
 1548TIP3    H226136   2.175   4.827   5.358  0.5678  0.1030  0.1337
 1549TIP3   OH226137   3.730   0.058  14.003 -0.3325 -0.4841 -0.3461
 1549TIP3    H126138   3.688   0.142  13.986  1.4513  0.7447  1.1740
 1549TIP3    H226139   3.812   0.061  13.954 -0.1068 -1.2255 -0.0296
 1550TIP3   OH226140   1.363   4.059   2.689  0.4017 -0.5130 -0.5850
 1550TIP3    H126141   1.408   4.051   2.773  0.5710  0.0496 -0.6176
 1550TIP3    H226142   1.397   4.140   2.652 -0.4201 -0.2336 -0.7424
 1551TIP3   OH226143   2.447   4.048  15.491 -0.1741 -0.0111  0.7828
 1551TIP3    H126144   2.515   4.031  15.425 -0.2662 -1.8262  1.1248
 1551TIP3    H226145   2.472   3.994  15.566 -0.9067  0.8585  1.6744
 1552TIP3   OH226146   6.582   0.409  17.126 -0.0211  0.2211  0.0305
 1552TIP3    H126147   6.502   0.462  17.132  0.0834  0.3436  0.3819
 1552TIP3    H226148   6.650   0.464  17.167  0.5370  0.6979 -1.4988
 1553TIP3   OH226149   1.987   0.922  15.443 -0.2144  0.4634  1.1008
 1553TIP3    H126150   2.081   0.903  15.439 -0.2782  0.3992 -1.1414
 1553TIP3    H226151   1.982   1.016  15.422 -0.5835  0.6948  2.2215
 1554TIP3   OH226152   6.750   1.812  14.190  0.6432  0.4296 -0.5484
 1554TIP3    H126153   6.793   1.827  14.274  2.5052 -1.7014 -1.0842
 1554TIP3    H226154   6.710   1.726  14.198  0.5358  0.3631 -1.7174
 1555TIP3   OH226155   5.272   2.591   6.120  0.0417 -0.1507 -0.1068
 1555TIP3    H126156   5.323   2.511   6.114 -0.2347 -0.4248  1.0291
 1555TIP3    H226157   5.275   2.615   6.213 -2.4855 -0.5686  0.1109
 1556TIP3   OH226158   5.699   3.626  13.325  0.2682 -0.4841 -0.6881
 1556TIP3    H126159   5.666   3.555  13.380  2.6996  0.3999  2.0559
 1556TIP3    H226160   5.775   3.589  13.280  1.1624  0.1400  0.2668
 1557TIP3   OH226161   1.853   3.313  12.447  0.5207  0.2958 -0.1865
 1557TIP3    H126162   1.817   3.401  12.434 -0.2291  0.3028  1.6731
 1557TIP3    H226163   1.925   3.326  12.510  1.1223 -0.2737 -0.7571
 1558TIP3   OH226164   6.286   0.931  11.885 -0.6402  0.1810 -0.2058
 1558TIP3    H126165   6.206   0.885  11.912 -0.6143  1.1322  1.5502
 1558TIP3    H226166   6.260   1.023  11.879  0.4664  0.5847  0.9799
 1559TIP3   OH226167   6.364   4.939  16.002 -0.0791 -0.5271  0.0700
 1559TIP3    H126168   6.426   4.983  15.944 -0.4885 -0.3927 -0.2658
 1559TIP3    H226169   6.292   5.002  16.012  0.6485  0.0467  1.8839
 1560TIP3   OH226170   6.249   3.446   2.012  0.5071 -0.2014  0.8268
 1560TIP3    H126171   6.172   3.439   2.068  0.4163  2.5163  1.1196
 1560TIP3    H226172   6.214   3.469   1.926  1.0048  3.1079  1.4122
 1561TIP3   OH226173   0.661   4.757   2.752 -0.4234  0.2935 -0.3570
 1561TIP3    H126174   0.695   4.722   2.834  0.4807 -1.0561 -1.2888
 1561TIP3    H226175   0.725   4.823   2.725 -0.6508  0.6398 -0.0508
 1562TIP3   OH226176   4.077   3.718  16.108 -0.1927  0.1939 -0.2273
 1562TIP3    H126177   4.106   3.736  16.018 -0.0393 -0.5801 -0.3392
 1562TIP3    H226178   3.995   3.670  16.096  0.3646 -0.8331  0.0247
 1563TIP3   OH226179   6.576   1.920   5.594 -0.3281 -0.4246  0.5685
 1563TIP3    H126180   6.494   1.913   5.642  0.5536 -1.6998  1.9260
 1563TIP3    H226181   6.596   1.831   5.565  0.9732 -0.2640  0.9259
 1564TIP3   OH226182   6.532   5.085   1.804 -0.0018 -0.1590 -0.0161
 1564TIP3    H126183   6.596   5.122   1.865 -0.8271 -0.8901  1.3214
 1564TIP3    H226184   6.585   5.041   1.738  0.8870 -0.5240  0.9243
 1565TIP3   OH226185   0.185   6.563   5.349  0.1309  0.3337 -0.8385
 1565TIP3    H126186   0.112   6.567   5.287 -0.9464  0.2499  0.4165
 1565TIP3    H226187   0.216   6.654   5.355 -0.0415  0.4148 -1.1581
 1566TIP3   OH226188   5.248   4.847  16.908  0.0296 -0.3162 -0.0855
 1566TIP3    H126189   5.327   4.902  16.913 -0.6597  0.5092  1.9816
 1566TIP3    H226190   5.191   4.893  16.846 -0.2024  0.9147  1.0083
 1567TIP3   OH226191   6.480   4.471  14.126 -0.5135 -0.7662 -0.0206
 1567TIP3    H126192   6.447   4.425  14.202  1.0405  0.0410  1.1718
 1567TIP3    H226193   6.472   4.564  14.149  0.0121 -0.5183 -0.8246
 1568TIP3   OH226194   1.136   3.253   5.043  0.0721  0.1316  0.2179
 1568TIP3    H126195   1.111   3.161   5.053  0.5724  0.1174  1.4097
 1568TIP3    H226196   1.231   3.254   5.054  0.1849  0.6776 -0.7033
 1569TIP3   OH226197   6.279   2.714  13.682 -0.0684 -0.7264  0.1825
 1569TIP3    H126198   6.332   2.662  13.620  1.0078 -1.1973  1.4742
 1569TIP3    H226199   6.240   2.648  13.739  0.8120 -0.1662  1.4497
 1570TIP3   OH226200   1.064   0.853   3.355  0.2215  0.4402 -0.4135
 1570TIP3    H126201   0.969   0.851   3.342  0.0735  3.9357 -0.2613
 1570TIP3    H226202   1.096   0.910   3.285  2.1837 -0.3144 -0.1602
 1571TIP3   OH226203   6.119   0.209  10.828 -0.0972 -0.8271 -0.3980
 1571TIP3    H126204   6.029   0.178  10.817 -0.6679 -0.5704  2.8940
 1571TIP3    H226205   6.171   0.129  10.842 -0.2687 -0.8211  0.3014
 1572TIP3   OH226206   4.072   6.696   1.820 -0.4445 -0.0080  0.1195
 1572TIP3    H126207   4.090   6.605   1.843 -2.3041 -0.2791  0.6085
 1572TIP3    H226208   4.081   6.745   1.902 -1.0240 -0.0165  0.1941
 1573TIP3   OH226209   1.494   6.364  11.819  0.5205 -0.0372 -0.3567
 1573TIP3    H126210   1.444   6.403  11.890 -0.8365 -0.8694 -0.8268
 1573TIP3    H226211   1.485   6.426  11.746 -0.3716 -0.4717 -0.6314
 1574TIP3   OH226212   0.793   1.578  15.726 -1.1289 -0.0981  0.1947
 1574TIP3    H126213   0.790   1.491  15.767 -1.4526 -0.8097 -1.3130
 1574TIP3    H226214   0.764   1.563  15.636  1.3884  1.1020 -0.8683
 1575TIP3   OH226215   0.768   5.340  16.137 -0.6228 -0.3163 -0.3476
 1575TIP3    H126216   0.830   5.406  16.167 -0.9138  0.0940 -0.6277
 1575TIP3    H226217   0.694   5.346  16.197 -0.5626 -0.5288 -0.2506
 1576TIP3   OH226218   4.583   4.856  16.062  0.2618 -0.5367 -0.3399
 1576TIP3    H126219   4.488   4.851  16.063  0.2886 -1.1640  1.2055
 1576TIP3    H226220   4.610   4.812  16.143  1.7274  2.3274  0.8155
 1577TIP3   OH226221   5.144   4.621  14.111  0.0353  0.1011 -0.1710
 1577TIP3    H126222   5.055   4.647  14.088  0.1254 -0.2997 -0.9940
 1577TIP3    H226223   5.197   4.699  14.092  0.3888 -0.8075 -3.1780
 1578TIP3   OH226224   5.634   5.683  13.981 -0.6381  0.2390 -0.1813
 1578TIP3    H126225   5.676   5.752  13.931 -0.8339  1.1055  0.8278
 1578TIP3    H226226   5.581   5.635  13.918  0.9576 -0.1444 -1.2454
 1579TIP3   OH226227   5.365   0.152   3.714 -0.1836  0.6299 -0.2204
 1579TIP3    H126228   5.287   0.198   3.683  0.2451  0.5244 -1.4831
 1579TIP3    H226229   5.382   0.086   3.647 -0.0484 -0.5356  0.9386
 1580TIP3   OH226230   3.990   5.323  10.781 -0.3408 -0.2300 -0.3397
 1580TIP3    H126231   4.061   5.303  10.841  0.8444 -0.3869 -1.7681
 1580TIP3    H226232   4.031   5.328  10.695 -1.6880  1.8208 -0.9178
 1581TIP3   OH226233   2.354   4.930  10.924  0.0260 -0.2309 -0.1792
 1581TIP3    H126234   2.292   4.863  10.894 -1.0779  0.1839  1.1504
 1581TIP3    H226235   2.436   4.882  10.938  0.0020 -0.8028 -1.8306
 1582TIP3   OH226236   1.839   5.266   0.710  0.3699  0.3936 -0.4958
 1582TIP3    H126237   1.899   5.261   0.635  0.5519 -1.2651 -0.2430
 1582TIP3    H226238   1.758   5.227   0.678 -0.5035  2.2916 -0.7180
 1583TIP3   OH226239   2.958   0.856  14.009 -0.4271  0.3776  0.6960
 1583TIP3    H126240   3.029   0.816  14.058 -1.0022  0.2197  1.4005
 1583TIP3    H226241   2.946   0.943  14.048 -0.0084  0.7676 -0.0222
 1584TIP3   OH226242   5.819   5.263   1.145  0.1780 -0.1559 -0.2837
 1584TIP3    H126243   5.751   5.198   1.125  0.2141 -0.5424  0.8050
 1584TIP3    H226244   5.778   5.321   1.209  0.5970  0.1186 -0.2631
 1585TIP3   OH226245   3.504   4.254   5.996 -0.2593  0.0789  0.4855
 1585TIP3    H126246   3.547   4.271   5.912  0.6804  0.0700  0.9619
 1585TIP3    H226247   3.509   4.337   6.043 -0.2186 -0.0993  0.7945
 1586TIP3   OH226248   0.534   6.776  16.889  0.1552  0.2326 -0.0081
 1586TIP3    H126249   0.486   6.807  16.813  2.0752  0.6421 -1.1041
 1586TIP3    H226250   0.620   6.750  16.854  0.7773 -0.3608  1.8767
 1587TIP3   OH226251   2.969   3.248   6.070 -0.3183 -0.5343 -0.3330
 1587TIP3    H126252   2.882   3.215   6.049  0.1552 -0.9792 -1.6085
 1587TIP3    H226253   2.975   3.332   6.025 -0.2853 -0.2567  0.1851
 1588TIP3   OH226254   2.242   2.232  16.706  0.3593  0.1357 -0.0538
 1588TIP3    H126255   2.327   2.262  16.738  1.5676 -2.7005 -0.4362
 1588TIP3    H226256   2.263   2.169  16.637 -1.9276 -3.5707  2.4709
 1589TIP3   OH226257   3.380   1.406   2.956  0.2354  0.4526 -0.2182
 1589TIP3    H126258   3.316   1.337   2.941  1.0149 -0.4663  0.5747
 1589TIP3    H226259   3.329   1.482   2.984 -0.5061 -0.2513  0.3377
 1590TIP3   OH226260   1.401   4.979   5.214 -0.1363  0.3130  0.3537
 1590TIP3    H126261   1.486   4.976   5.170 -1.0448 -0.4964 -1.4199
 1590TIP3    H226262   1.422   4.971   5.307  1.7431  0.4572 -0.0308
 1591TIP3   OH226263   5.728   3.271  15.831 -0.2857  0.3503 -0.7902
 1591TIP3    H126264   5.632   3.268  15.823 -0.3188 -0.3640 -0.1541
 1591TIP3    H226265   5.754   3.179  15.840  0.1874  0.7231  2.0198
 1592TIP3   OH226266   1.539   5.703  16.217 -0.0156  0.2680  0.0629
 1592TIP3    H126267   1.616   5.653  16.245 -0.0301 -0.7942 -1.7168
 1592TIP3    H226268   1.469   5.673  16.275  0.1857 -1.1383 -0.4001
 1593TIP3   OH226269   5.762   0.811   0.500 -0.0078 -0.2947  0.4448
 1593TIP3    H126270   5.828   0.825   0.433  0.0658 -0.3592  0.5049
 1593TIP3    H226271   5.809   0.773   0.574  0.2040  1.1897  1.0998
 1594TIP3   OH226272   1.784   0.050   4.949 -0.2680  0.5116  0.2443
 1594TIP3    H126273   1.709  -0.001   4.979 -0.8415  0.3632 -1.4425
 1594TIP3    H226274   1.788   0.124   5.011 -2.2093  0.8888 -0.0574
 1595TIP3   OH226275   0.898   2.530  14.420 -0.2204  0.6895  0.1105
 1595TIP3    H126276   0.965   2.568  14.476 -0.9570  1.8912  0.1814
 1595TIP3    H226277   0.815   2.564  14.453 -0.8382 -0.3609 -0.3094
 1596TIP3   OH226278   4.303   2.292   0.123 -0.4225  0.4693  0.1702
 1596TIP3    H126279   4.260   2.323   0.043  0.0460  0.7399  0.0136
 1596TIP3    H226280   4.295   2.366   0.184 -2.4062 -0.4237  1.0147
 1597TIP3   OH226281   0.171   3.963   2.907  0.2888  0.1227  0.0328
 1597TIP3    H126282   0.242   4.006   2.860  0.8313 -1.4548 -0.6255
 1597TIP3    H226283   0.179   3.995   2.997 -0.6889  3.0768 -0.8819
 1598TIP3   OH226284   1.182   0.691   1.298  0.1630 -0.2157 -0.2570
 1598TIP3    H126285   1.115   0.758   1.310  0.5336 -0.0669  1.0896
 1598TIP3    H226286   1.261   0.728   1.337  0.9680 -0.4972 -1.5974
 1599TIP3   OH226287   3.831   3.560   5.248 -0.3505  0.6231 -0.2811
 1599TIP3    H126288   3.808   3.528   5.336  1.7651 -0.8633 -0.2250
 1599TIP3    H226289   3.833   3.655   5.257 -0.2300  0.4902  1.2615
 1600TIP3   OH226290   3.882   2.660  14.189 -0.9872  0.0658  0.5241
 1600TIP3    H126291   3.906   2.747  14.219 -0.9416 -0.3095  1.5933
 1600TIP3    H226292   3.900   2.661  14.095  1.5368  0.3812  0.9693
 1601TIP3   OH226293   6.289   3.610  15.841  0.0865  0.5058  0.4543
 1601TIP3    H126294   6.260   3.519  15.847 -0.1190  0.5397 -0.0297
 1601TIP3    H226295   6.228   3.650  15.779 -2.4725  1.9956  3.7857
 1602TIP3   OH226296   4.542   0.797  17.124 -0.8628  0.1197 -0.5307
 1602TIP3    H126297   4.460   0.836  17.093 -1.6453  0.6596  2.0554
 1602TIP3    H226298   4.514   0.739  17.195  1.0064  0.2472  0.3254
 1603TIP3   OH226299   3.123   3.402  11.383  0.4750  0.5953 -0.8510
 1603TIP3    H126300   3.202   3.436  11.342  1.5209 -1.1090 -0.3205
 1603TIP3    H226301   3.147   3.390  11.475 -0.6495  0.8144 -0.5148
 1604TIP3   OH226302   6.257   3.213   2.370 -0.0156 -0.1402  0.6243
 1604TIP3    H126303   6.310   3.196   2.448 -0.7519  1.9628  1.6296
 1604TIP3    H226304   6.167   3.219   2.402 -0.2897  1.1254 -0.2957
 1605TIP3   OH226305   4.695   5.108  13.123 -0.4903 -0.3469  0.3416
 1605TIP3    H126306   4.781   5.071  13.105 -0.9554 -1.2166 -0.1262
 1605TIP3    H226307   4.656   5.049  13.188 -1.3070 -0.7845 -0.5411
 1606TIP3   OH226308   1.223   2.346  13.259 -0.0132  0.6437  0.2256
 1606TIP3    H126309   1.220   2.442  13.258  0.4430  0.6541 -0.3829
 1606TIP3    H226310   1.297   2.325  13.317  0.7336  0.6846 -0.6978
 1607TIP3   OH226311   5.466   4.828   3.838  0.4501  0.2858 -1.0727
 1607TIP3    H126312   5.380   4.814   3.877  0.4300  0.6539 -0.9881
 1607TIP3    H226313   5.514   4.881   3.901  1.1803 -0.9653 -0.5446
 1608TIP3   OH226314   3.043   2.965  13.741 -0.9275  0.7311  0.4498
 1608TIP3    H126315   3.103   2.896  13.771  0.3558  0.9895 -1.4457
 1608TIP3    H226316   3.048   3.032  13.809 -0.2293  0.0886  1.0516
 1609TIP3   OH226317   2.301   5.503  16.925  0.3515 -0.6204 -0.1213
 1609TIP3    H126318   2.255   5.549  16.855 -0.5490  2.3214  2.2948
 1609TIP3    H226319   2.246   5.427  16.944 -1.8727  1.0931  0.5052
 1610TIP3   OH226320   2.220   6.484   4.554  0.3693 -0.0614  0.0164
 1610TIP3    H126321   2.152   6.543   4.521 -1.0604 -1.4956  0.3394
 1610TIP3    H226322   2.171   6.411   4.593  2.1016 -1.0264  0.4048
 1611TIP3   OH226323   0.704   5.506   5.180 -0.4459 -0.5654  0.3444
 1611TIP3    H126324   0.733   5.417   5.201  0.2939 -0.4555 -0.1957
 1611TIP3    H226325   0.781   5.561   5.196  0.1011 -0.4597 -2.4391
 1612TIP3   OH226326   0.325   2.508   4.803 -0.6855  0.3295  0.1253
 1612TIP3    H126327   0.278   2.556   4.735  0.7156  1.1838 -0.2678
 1612TIP3    H226328   0.407   2.556   4.813  1.4544 -2.9011 -1.3724
 1613TIP3   OH226329   1.997   0.611  12.967  0.4695  0.4150  0.3532
 1613TIP3    H126330   2.046   0.531  12.946  0.2836  0.5727 -0.7278
 1613TIP3    H226331   1.906   0.587  12.953  0.4810  1.1018 -0.9935
 1614TIP3   OH226332   6.808   4.611   0.445 -0.1794 -0.6964  0.2096
 1614TIP3    H126333   6.769   4.634   0.361  0.7751  1.5637  0.3250
 1614TIP3    H226334   6.893   4.654   0.444  0.5957 -2.1421  1.6145
 1615TIP3   OH226335   6.737   0.777   0.230  0.0926 -0.0109 -0.0471
 1615TIP3    H126336   6.718   0.840   0.299  1.4521  1.4174 -0.9377
 1615TIP3    H226337   6.686   0.806   0.155  0.9854  0.2330 -0.5646
 1616TIP3   OH226338   1.178   1.063   5.454  0.3019  0.1495  0.6126
 1616TIP3    H126339   1.103   1.109   5.417  2.7538  2.5737 -1.5402
 1616TIP3    H226340   1.212   1.011   5.381  1.2087 -0.2947  1.3439
 1617TIP3   OH226341   6.253   3.554  12.935 -0.1536 -0.4861  0.9259
 1617TIP3    H126342   6.221   3.641  12.960  0.3747 -0.2925  0.9211
 1617TIP3    H226343   6.173   3.504  12.915 -0.4821 -0.1635  1.4454
 1618TIP3   OH226344   0.130   1.939   5.076  0.4297 -0.1151  0.6677
 1618TIP3    H126345   0.059   1.881   5.048  0.9856  0.1384 -1.2856
 1618TIP3    H226346   0.210   1.889   5.060  0.9119  1.1551 -0.9917
 1619TIP3   OH226347   6.185   1.063  10.849  0.1058  0.5289 -0.2521
 1619TIP3    H126348   6.171   1.125  10.778  1.7879 -0.7872 -1.7828
 1619TIP3    H226349   6.257   1.100  10.899  2.5002 -1.1216 -2.3552
 1620TIP3   OH226350   5.586   2.178   4.118 -0.1487 -0.0601 -0.0032
 1620TIP3    H126351   5.576   2.262   4.073  1.2339 -0.1039 -0.4112
 1620TIP3    H226352   5.575   2.199   4.211  1.3548  0.7848 -0.0007
 1621TIP3   OH226353   5.860   2.005  13.567 -0.1976 -0.2814  0.3875
 1621TIP3    H126354   5.905   2.019  13.483  0.6838  0.8843  1.0346
 1621TIP3    H226355   5.929   2.016  13.632 -1.4084  1.3873  1.4031
 1622TIP3   OH226356   0.392   4.027  12.272  0.4886  0.1372 -0.2151
 1622TIP3    H126357   0.326   4.014  12.204 -0.5894  0.8000  0.6908
 1622TIP3    H226358   0.429   3.939  12.286 -0.0061 -0.1886 -0.9261
 1623TIP3   OH226359   6.628   0.288  11.751 -0.0703 -0.1816 -0.1318
 1623TIP3    H126360   6.682   0.309  11.675  0.8185  0.6258  0.7014
 1623TIP3    H226361   6.567   0.362  11.758  0.4503  0.1943  0.4715
 1624TIP3   OH226362   0.097   0.579  14.956 -0.9805  0.0541  0.8520
 1624TIP3    H126363   0.131   0.495  14.927 -0.0713  0.3529  1.0367
 1624TIP3    H226364   0.076   0.567  15.048 -1.0096 -0.0150  0.8357
 1625TIP3   OH226365   1.743   3.237  15.639 -0.0518 -0.2083  0.3187
 1625TIP3    H126366   1.791   3.185  15.703  2.4780  2.2009  0.4317
 1625TIP3    H226367   1.803   3.247  15.565 -1.8290 -0.4151 -1.2026
 1626TIP3   OH226368   0.307   0.920  13.674  0.2872 -0.0161 -0.4923
 1626TIP3    H126369   0.386   0.866  13.680  2.1158  2.6094  0.0617
 1626TIP3    H226370   0.253   0.877  13.608  0.3486 -4.0846  1.9252
 1627TIP3   OH226371   4.948   6.440   5.300 -0.2698  0.4106  0.6167
 1627TIP3    H126372   4.978   6.352   5.276  0.5790  1.0958 -0.9021
 1627TIP3    H226373   4.932   6.435   5.394  0.3075 -1.2187  0.6473
 1628TIP3   OH226374   6.684   1.122  11.069 -0.1260 -0.2209  0.0840
 1628TIP3    H126375   6.723   1.179  11.002  1.7707  0.7865  2.0017
 1628TIP3    H226376   6.709   1.033  11.042 -0.8153  0.0313 -1.4448
 1629TIP3   OH226377   3.711   4.191   3.439  0.4141 -0.2162 -0.1295
 1629TIP3    H126378   3.704   4.213   3.532  0.0855  0.2742 -0.2699
 1629TIP3    H226379   3.672   4.266   3.393  0.6628 -0.4098 -0.6652
 1630TIP3   OH226380   6.686   3.055   6.350 -0.1640  0.4877 -0.4619
 1630TIP3    H126381   6.683   2.976   6.404 -3.1596  0.2637 -0.8831
 1630TIP3    H226382   6.719   3.123   6.409 -0.8367 -0.3414  0.8888
 1631TIP3   OH226383   0.380   1.539   5.673 -0.0429 -0.2587 -0.4297
 1631TIP3    H126384   0.391   1.600   5.746 -1.6112 -0.4426 -0.0227
 1631TIP3    H226385   0.340   1.592   5.604 -2.1895 -1.0194  0.2202
 1632TIP3   OH226386   6.095   3.958   2.987  0.0132 -0.2102 -0.1639
 1632TIP3    H126387   6.159   3.948   3.057 -1.4205  1.8931  1.5028
 1632TIP3    H226388   6.113   4.044   2.950 -1.7263  0.3320  0.2156
 1633TIP3   OH226389   4.670   1.513   4.693  0.1702 -0.5100 -0.0016
 1633TIP3    H126390   4.732   1.442   4.677 -0.6777 -0.9470 -1.4537
 1633TIP3    H226391   4.609   1.479   4.758  0.0393 -0.9521 -0.3554
 1634TIP3   OH226392   0.708   0.977   0.892 -0.2207 -0.4694 -0.1413
 1634TIP3    H126393   0.747   0.894   0.864  1.4223  0.1378  0.2820
 1634TIP3    H226394   0.766   1.009   0.962 -1.3538  0.5737  0.3398
 1635TIP3   OH226395   4.261   6.411   6.394 -0.8839  0.1110  0.0377
 1635TIP3    H126396   4.265   6.348   6.322 -0.1625 -1.4189  1.3962
 1635TIP3    H226397   4.352   6.437   6.408 -1.1773  1.5036 -0.5255
 1636TIP3   OH226398   3.621   0.619  13.157  0.0371 -1.2937  1.0257
 1636TIP3    H126399   3.660   0.663  13.233  0.7733 -1.6778  0.8750
 1636TIP3    H226400   3.654   0.667  13.081  1.7814 -2.7690  0.7904
 1637TIP3   OH226401   3.910   5.995   3.027  0.1579  0.3722  0.8826
 1637TIP3    H126402   3.870   5.965   2.945 -1.7070  1.4360  1.3723
 1637TIP3    H226403   4.001   5.964   3.022  0.1968  0.7641 -1.7685
 1638TIP3   OH226404   1.289   1.810   5.166  0.7068 -0.0169  1.0318
 1638TIP3    H126405   1.223   1.778   5.105  1.0322  0.9792  0.1457
 1638TIP3    H226406   1.242   1.872   5.222  1.5018  3.0891 -1.5889
 1639TIP3   OH226407   6.356   3.807  16.038 -0.0072  0.4074 -0.1956
 1639TIP3    H126408   6.326   3.740  15.977  1.0595  0.4887 -0.8259
 1639TIP3    H226409   6.373   3.884  15.983 -1.4380  1.2823  0.5500
 1640TIP3   OH226410   3.185   0.468   5.072 -0.9336  0.0182 -0.4704
 1640TIP3    H126411   3.225   0.383   5.056 -0.4693 -0.2410  1.9054
 1640TIP3    H226412   3.090   0.452   5.065 -0.7777  0.1244 -3.6427
 1641TIP3   OH226413   2.076   1.025   6.017  0.6608 -0.1394 -0.4874
 1641TIP3    H126414   1.998   1.028   6.071  2.0543 -0.8680  1.6450
 1641TIP3    H226415   2.046   1.049   5.929 -1.2211  3.5475  1.0486
 1642TIP3   OH226416   6.483   2.706  14.325 -0.8988  0.4732 -0.3940
 1642TIP3    H126417   6.412   2.701  14.261 -0.7313  1.1452 -0.6386
 1642TIP3    H226418   6.448   2.760  14.395 -1.5444 -1.3235  0.7096
 1643TIP3   OH226419   4.673   4.956  14.277  0.2099  0.0447  0.0565
 1643TIP3    H126420   4.764   4.968  14.248 -0.1387  0.6761 -0.7683
 1643TIP3    H226421   4.681   4.902  14.356  1.2682 -0.3707 -0.3177
 1644TIP3   OH226422   1.480   1.990   4.178  0.5242  0.1889  0.1970
 1644TIP3    H126423   1.416   2.059   4.195  0.6011  0.3295 -0.0821
 1644TIP3    H226424   1.538   2.027   4.112  0.5338 -0.1610  0.0050
 1645TIP3   OH226425   5.723   6.178  17.036  0.2596  0.4695  0.2681
 1645TIP3    H126426   5.646   6.175  17.094  0.3468  2.5762  0.5317
 1645TIP3    H226427   5.727   6.090  16.997 -1.4814 -0.0874  1.2825
 1646TIP3   OH226428   2.751   4.195  12.948 -0.0823  0.1899  0.5065
 1646TIP3    H126429   2.705   4.264  12.900 -1.1574  0.8809  2.5053
 1646TIP3    H226430   2.684   4.131  12.968  0.6325 -0.7386 -0.0310
 1647TIP3   OH226431   5.269   6.487  12.603  0.0377  0.5482 -0.3723
 1647TIP3    H126432   5.328   6.480  12.678  0.3436  1.3634 -0.5279
 1647TIP3    H226433   5.318   6.540  12.539 -0.4808  0.4229 -0.8798
 1648TIP3   OH226434   4.762   6.803  12.548 -0.1217 -0.2627  0.4965
 1648TIP3    H126435   4.841   6.857  12.547  0.1450 -0.5846  2.1014
 1648TIP3    H226436   4.722   6.816  12.462  2.6871 -1.5893 -1.0728
 1649TIP3   OH226437   1.284   5.701  12.574 -0.5339  0.3673  0.0772
 1649TIP3    H126438   1.271   5.795  12.559 -0.2646  0.4756  0.5504
 1649TIP3    H226439   1.376   5.686  12.556 -0.3699  0.3605  0.9100
 1650TIP3   OH226440   2.679   2.809  12.908 -0.2908  0.3579 -0.2083
 1650TIP3    H126441   2.677   2.827  12.814 -0.7136  1.7077  0.0450
 1650TIP3    H226442   2.622   2.733  12.920 -1.7089  1.3062 -0.8178
 1651TIP3   OH226443   3.118   6.317  16.011 -0.0218  0.8752  0.4864
 1651TIP3    H126444   3.156   6.265  15.939  0.3896 -0.8241  1.8949
 1651TIP3    H226445   3.170   6.398  16.011 -0.4354  1.1744 -1.5190
 1652TIP3   OH226446   2.897   1.451  14.884  0.0703  0.6059 -0.3091
 1652TIP3    H126447   2.807   1.458  14.916  0.1292 -0.3742  0.0920
 1652TIP3    H226448   2.924   1.541  14.867 -0.6965  0.9705  0.3818
 1653TIP3   OH226449   3.303   5.963  13.714 -0.2155 -0.1473  0.9221
 1653TIP3    H126450   3.388   5.925  13.691 -0.9384 -2.0310  1.3351
 1653TIP3    H226451   3.289   5.937  13.805 -1.0677  0.4894  0.9754
 1654TIP3   OH226452   6.810   5.012  11.032 -0.3894  0.4996  0.0769
 1654TIP3    H126453   6.882   5.017  11.096 -0.7167 -0.0155  0.4913
 1654TIP3    H226454   6.838   4.945  10.970 -1.4060 -1.1888  1.3938
 1655TIP3   OH226455   2.849   3.663   4.816  0.3452 -0.2824  0.8130
 1655TIP3    H126456   2.768   3.640   4.860  0.0582 -0.2240  0.3253
 1655TIP3    H226457   2.896   3.579   4.807 -0.2497 -0.5252 -0.0679
 1656TIP3   OH226458   1.832   0.979  14.391 -0.3725  0.4586 -0.3506
 1656TIP3    H126459   1.813   0.937  14.475 -1.5245  0.9987 -0.3341
 1656TIP3    H226460   1.785   0.927  14.327 -0.8988  1.0645 -0.4594
 1657TIP3   OH226461   2.504   4.782   0.072 -0.4304 -0.8154 -0.0580
 1657TIP3    H126462   2.471   4.868   0.095  0.9883 -0.1427 -0.4557
 1657TIP3    H226463   2.438   4.745   0.014 -1.3562 -0.2674  0.6338
 1658TIP3   OH226464   3.905   5.253   3.580 -0.6633 -0.1393 -1.3013
 1658TIP3    H126465   3.831   5.307   3.608  1.1217  0.6059  2.2239
 1658TIP3    H226466   3.925   5.283   3.491 -2.7029  1.6734 -1.1675
 1659TIP3   OH226467   0.227   6.340  12.908  0.1951  0.1948  0.2274
 1659TIP3    H126468   0.226   6.435  12.912  0.1317  0.2084 -0.1065
 1659TIP3    H226469   0.146   6.316  12.863 -1.2075 -0.1584  2.8885
 1660TIP3   OH226470   5.840   6.579  12.804 -0.0846  0.1835  0.7548
 1660TIP3    H126471   5.887   6.658  12.780 -1.8146  1.1395  0.4492
 1660TIP3    H226472   5.895   6.507  12.771  0.8611  1.2848 -0.0863
 1661TIP3   OH226473   1.473   6.344  15.215 -0.3585 -0.1556  0.4251
 1661TIP3    H126474   1.379   6.343  15.199  0.0541 -0.4177 -2.2811
 1661TIP3    H226475   1.501   6.253  15.207  0.6503  0.3484 -2.7293
 1662TIP3   OH226476   0.117   2.933   1.818  0.8167  0.1404  0.4794
 1662TIP3    H126477   0.035   2.978   1.841  0.4012  0.3964 -1.4421
 1662TIP3    H226478   0.175   2.951   1.892 -0.9772 -0.3782  2.0600
 1663TIP3   OH226479   0.903   1.525  17.201 -0.1459 -0.3159  0.3308
 1663TIP3    H126480   0.862   1.469  17.136 -2.5033  1.2902  0.3348
 1663TIP3    H226481   0.995   1.528  17.177 -0.5461 -1.6782 -1.4658
 1664TIP3   OH226482   2.523   6.098   0.429 -0.4568  0.6343  0.0802
 1664TIP3    H126483   2.514   6.132   0.518  1.0051  1.6605 -0.1405
 1664TIP3    H226484   2.515   6.176   0.373  3.4418  0.8121 -0.4048
 1665TIP3   OH226485   1.207   3.710   5.266  1.1209  0.1346  0.2223
 1665TIP3    H126486   1.122   3.751   5.250  0.9534 -0.4810 -0.4802
 1665TIP3    H226487   1.266   3.753   5.204  1.7076  1.7799  1.8724
 1666TIP3   OH226488   0.301   4.447   0.393 -0.1874  0.7944 -0.0152
 1666TIP3    H126489   0.240   4.442   0.467  0.0514  0.0488  0.1342
 1666TIP3    H226490   0.385   4.473   0.432  0.0459 -0.0301  0.0414
 1667TIP3   OH226491   1.913   5.054   3.492 -0.1182  0.2308 -1.2716
 1667TIP3    H126492   1.943   5.145   3.491 -0.9850  0.5036 -3.0488
 1667TIP3    H226493   1.955   5.014   3.416 -0.7158 -0.5488 -1.1924
 1668TIP3   OH226494   2.883   2.357   2.302  0.1686 -0.1597 -0.2618
 1668TIP3    H126495   2.792   2.333   2.285 -0.0123  0.8787 -0.8012
 1668TIP3    H226496   2.927   2.347   2.218  0.3717  0.1298 -0.1923
 1669TIP3   OH226497   6.121   4.266   3.855  0.1714 -0.5305  0.3754
 1669TIP3    H126498   6.115   4.320   3.775 -0.0672  0.9283  1.3554
 1669TIP3    H226499   6.059   4.195   3.841 -1.5995  0.9963  0.2204
 1670TIP3   OH226500   4.600   2.558   1.989  0.3900 -0.0708 -0.1573
 1670TIP3    H126501   4.514   2.582   1.953 -0.2753 -1.5339  0.4508
 1670TIP3    H226502   4.625   2.480   1.941  1.9205  0.9790 -1.1284
 1671TIP3   OH226503   6.608   2.240   0.221  0.2803 -0.1090 -0.1666
 1671TIP3    H126504   6.555   2.316   0.245  1.6018  1.4993 -2.1753
 1671TIP3    H226505   6.556   2.193   0.157 -1.1794 -1.7685  2.1583
 1672TIP3   OH226506   4.115   6.809  12.931 -0.7097 -0.2249  0.0322
 1672TIP3    H126507   4.140   6.809  13.023  0.3019 -1.9794 -0.2290
 1672TIP3    H226508   4.021   6.791  12.932 -0.9764  1.1573  0.7779
 1673TIP3   OH226509   5.515   0.230   1.084  0.3577  0.3512  0.1089
 1673TIP3    H126510   5.547   0.303   1.030 -0.2272  1.1665  0.8384
 1673TIP3    H226511   5.545   0.152   1.040  3.2164  1.0928  0.6772
 1674TIP3   OH226512   5.394   0.607  12.290  0.4950  0.0652 -0.0295
 1674TIP3    H126513   5.429   0.609  12.201 -0.8902  0.7244 -0.5741
 1674TIP3    H226514   5.414   0.694  12.326  0.0739  0.1882 -0.0883
 1675TIP3   OH226515   3.423   4.338  11.490  0.3518  0.3318 -0.7010
 1675TIP3    H126516   3.469   4.418  11.514  0.4775  0.2925 -0.8099
 1675TIP3    H226517   3.352   4.367  11.433  1.2023  0.2369 -1.8393
 1676TIP3   OH226518   2.221   2.239   3.893 -0.3788  0.3121 -0.2003
 1676TIP3    H126519   2.158   2.303   3.860 -0.1195  1.1593  0.9344
 1676TIP3    H226520   2.170   2.158   3.902 -1.3652  1.0553  0.9271
 1677TIP3   OH226521   1.089   6.596   3.886 -0.6605  0.0469  0.2732
 1677TIP3    H126522   1.121   6.679   3.851  2.7058 -1.8835 -1.4243
 1677TIP3    H226523   1.049   6.552   3.810  0.1250 -1.0564  0.4847
 1678TIP3   OH226524   1.787   2.398   0.954  0.3661 -0.7642 -0.2598
 1678TIP3    H126525   1.877   2.368   0.940  0.2048 -1.6795  0.5701
 1678TIP3    H226526   1.733   2.330   0.915  0.0369 -0.1110 -0.9418
 1679TIP3   OH226527   0.689   4.218   6.141 -0.0452  0.3566  0.4916
 1679TIP3    H126528   0.674   4.135   6.187  1.9112 -0.5789 -0.4701
 1679TIP3    H226529   0.769   4.252   6.179  0.2519  0.7905 -0.5151
 1680TIP3   OH226530   1.927   4.050  14.953 -0.5951  0.6262  0.1687
 1680TIP3    H126531   1.937   4.017  15.043 -0.6607  1.2648  0.4097
 1680TIP3    H226532   1.840   4.089  14.951 -0.7705  0.2178 -0.3029
 1681TIP3   OH226533   2.310   5.951   0.316 -0.0155 -0.6037  0.5331
 1681TIP3    H126534   2.394   5.990   0.342 -0.2425 -0.8504  1.6829
 1681TIP3    H226535   2.247   5.988   0.378 -0.4301 -1.8874  0.8819
 1682TIP3   OH226536   1.158   3.340   6.417  0.0053 -0.1144  0.0521
 1682TIP3    H126537   1.206   3.389   6.483  1.0096 -1.0432  0.0160
 1682TIP3    H226538   1.177   3.385   6.335 -0.0269  0.1404  0.1835
 1683TIP3   OH226539   0.445   3.271  11.566  0.4841  0.7521  0.3590
 1683TIP3    H126540   0.474   3.190  11.608  1.6609  1.0811  0.1989
 1683TIP3    H226541   0.523   3.304  11.520 -0.2507  1.4363 -0.4296
 1684TIP3   OH226542   2.932   1.720   4.854 -0.7346  0.6896 -0.0317
 1684TIP3    H126543   2.853   1.672   4.826 -2.3454  2.6645  0.9893
 1684TIP3    H226544   2.951   1.686   4.941 -1.3361  1.2614  0.3227
 1685TIP3   OH226545   2.072   0.337  15.808  0.4503 -0.1679 -0.2934
 1685TIP3    H126546   1.982   0.336  15.839  0.4887  1.2845 -0.1007
 1685TIP3    H226547   2.123   0.300  15.881  0.0495 -0.7935 -0.3232
 1686TIP3   OH226548   6.504   5.558   6.506  1.0717  0.1328  0.1773
 1686TIP3    H126549   6.512   5.648   6.476 -0.4466  0.2534  0.1069
 1686TIP3    H226550   6.487   5.565   6.600 -0.3709 -0.0253 -0.0622
 1687TIP3   OH226551   6.162   1.299  14.384 -0.1962  0.4506 -0.4418
 1687TIP3    H126552   6.133   1.324  14.472 -0.9561 -0.8868 -0.3039
 1687TIP3    H226553   6.215   1.373  14.355 -0.7319  1.3286  0.7592
 1688TIP3   OH226554   4.861   0.224   4.423  0.7790 -0.3963 -0.0605
 1688TIP3    H126555   4.843   0.313   4.454  1.9364 -0.2192  0.1378
 1688TIP3    H226556   4.886   0.235   4.331  1.7908 -0.4157  0.2101
 1689TIP3   OH226557   2.747   6.691  16.074  0.3305 -0.2321 -0.5295
 1689TIP3    H126558   2.768   6.747  16.149 -0.3711  0.1327 -0.5978
 1689TIP3    H226559   2.701   6.616  16.111 -0.2273  0.0637 -0.6134
 1690TIP3   OH226560   2.950   4.917  13.343  0.2188  0.5100 -0.2110
 1690TIP3    H126561   3.031   4.897  13.296  1.9785  1.2354  2.3795
 1690TIP3    H226562   2.931   4.836  13.391  0.3819  0.9092  0.5279
 1691TIP3   OH226563   2.324   0.517   1.815 -0.5763 -0.2434  0.4595
 1691TIP3    H126564   2.373   0.438   1.788 -1.0946 -0.2702 -0.4196
 1691TIP3    H226565   2.277   0.543   1.736 -2.5511 -0.6273  1.4969
 1692TIP3   OH226566   1.888   2.534  14.536 -0.0842  0.4892 -0.0091
 1692TIP3    H126567   1.971   2.510  14.493  0.5844  0.6091  1.1882
 1692TIP3    H226568   1.904   2.622  14.571 -0.9672  0.8005 -0.3813
 1693TIP3   OH226569   1.214   0.502  12.867  0.1768 -0.2547  0.3449
 1693TIP3    H126570   1.289   0.464  12.913  0.5716  0.0259 -0.0474
 1693TIP3    H226571   1.243   0.592  12.847 -0.5347  0.0785  0.8030
 1694TIP3   OH226572   0.329   1.520  16.705  0.3485 -0.1003  0.3846
 1694TIP3    H126573   0.354   1.606  16.739  1.5863 -0.0501 -0.6097
 1694TIP3    H226574   0.238   1.509  16.731  0.5634  0.9668  1.6200
 1695TIP3   OH226575   3.735   6.579   0.521 -0.2752 -0.5571 -0.8415
 1695TIP3    H126576   3.698   6.523   0.588 -1.1886 -0.0924 -0.9514
 1695TIP3    H226577   3.723   6.532   0.439 -0.9374 -0.2559 -0.9194
 1696TIP3   OH226578   4.976   3.651   2.296 -0.0389  0.1361  0.0115
 1696TIP3    H126579   5.029   3.573   2.314 -1.4386 -0.7750  0.2298
 1696TIP3    H226580   4.890   3.616   2.271 -0.3762  1.5832 -0.8808
 1697TIP3   OH226581   5.922   3.367   1.832 -0.3037  0.2008 -0.0098
 1697TIP3    H126582   5.905   3.450   1.787  0.1378 -0.3735 -1.2685
 1697TIP3    H226583   6.013   3.347   1.811 -0.8683 -1.3878 -1.0177
 1698TIP3   OH226584   3.639   4.255  14.270 -0.0705  0.2538  0.7073
 1698TIP3    H126585   3.626   4.350  14.262  0.0515  0.1172 -1.4964
 1698TIP3    H226586   3.573   4.217  14.212  2.7659 -0.8304 -1.9621
 1699TIP3   OH226587   4.878   1.632  14.732  0.3317  0.0081  0.5704
 1699TIP3    H126588   4.960   1.599  14.769  0.8225  2.3307  1.6931
 1699TIP3    H226589   4.816   1.628  14.805  0.7975  2.8571  1.1685
 1700TIP3   OH226590   2.133   3.668   2.445 -0.5165 -0.3743  0.1502
 1700TIP3    H126591   2.100   3.738   2.501 -2.1999 -0.1047 -1.1277
 1700TIP3    H226592   2.172   3.605   2.506 -1.8239  0.1672  1.5831
 1701TIP3   OH226593   5.507   4.990   3.627  0.0039  0.1587  0.0976
 1701TIP3    H126594   5.447   4.926   3.589  1.5274  0.0166 -2.1801
 1701TIP3    H226595   5.512   4.966   3.719 -1.8338 -1.0836 -0.0944
 1702TIP3   OH226596   0.073   4.569   0.023  0.1059  0.3022  0.0175
 1702TIP3    H126597   0.092   4.507   0.094 -1.4231  0.6714  0.7528
 1702TIP3    H226598   0.101   4.523  -0.056  2.0497 -0.0239  0.8634
 1703TIP3   OH226599   5.397   0.567   5.111 -0.6619 -0.3105  0.2070
 1703TIP3    H126600   5.409   0.622   5.034  0.8979  0.6631  1.0961
 1703TIP3    H226601   5.481   0.573   5.157 -1.0682 -2.0701  1.2010
 1704TIP3   OH226602   3.460   4.115   0.139 -0.1802  0.0484  0.6836
 1704TIP3    H126603   3.448   4.053   0.211 -0.3876  0.7871  1.2922
 1704TIP3    H226604   3.404   4.189   0.162  1.1246  1.0646  0.6705
 1705TIP3   OH226605   0.133   2.478  11.384  0.2806  0.4711  0.4727
 1705TIP3    H126606   0.200   2.539  11.413  0.1502 -0.2165  2.3005
 1705TIP3    H226607   0.180   2.414  11.331  1.2906 -0.6163  2.6181
 1706TIP3   OH226608   6.704   3.570  15.270  0.3653 -0.1330 -0.8777
 1706TIP3    H126609   6.647   3.645  15.252  1.2133  0.2513 -2.0030
 1706TIP3    H226610   6.676   3.540  15.357 -0.4046  1.1000 -0.6743
 1707TIP3   OH226611   1.342   1.691   3.730 -0.2553 -0.0983 -0.7514
 1707TIP3    H126612   1.284   1.702   3.804  0.7051  2.3444 -0.3061
 1707TIP3    H226613   1.420   1.743   3.752 -0.5462  1.9013 -4.0534
 1708TIP3   OH226614   0.863   5.187   5.800 -0.1522  0.6266  1.0188
 1708TIP3    H126615   0.861   5.093   5.785  0.4785  0.5453  1.4229
 1708TIP3    H226616   0.955   5.207   5.816 -0.4715  1.0801  2.3522
 1709TIP3   OH226617   0.342   0.983   3.389  0.2072 -0.5157  0.0724
 1709TIP3    H126618   0.283   0.916   3.356 -1.2174  0.7227  0.0574
 1709TIP3    H226619   0.366   1.035   3.311  1.2620 -0.9576  0.0899
 1710TIP3   OH226620   2.018   2.613  13.023  0.3811 -0.1877  1.2263
 1710TIP3    H126621   2.024   2.697  12.979 -0.1295  0.7302  2.8843
 1710TIP3    H226622   2.102   2.604  13.068  1.3508 -1.6378 -0.7817
 1711TIP3   OH226623   6.230   6.131  15.528  0.0766 -0.2626 -0.1030
 1711TIP3    H126624   6.270   6.213  15.557 -1.2782  0.4291 -0.1746
 1711TIP3    H226625   6.137   6.151  15.520  0.0023 -1.2475 -2.0414
 1712TIP3   OH226626   1.108   3.599   3.716  0.3309 -0.2407 -0.1848
 1712TIP3    H126627   1.018   3.631   3.722  0.9393  1.2470  1.8626
 1712TIP3    H226628   1.125   3.560   3.802  1.2963 -1.4294 -0.9081
 1713TIP3   OH226629   2.659   1.555   2.626  0.2604  0.4171  0.4504
 1713TIP3    H126630   2.718   1.524   2.557 -0.8323 -0.7976  0.0581
 1713TIP3    H226631   2.716   1.605   2.685  1.0189  2.4137 -1.8934
 1714TIP3   OH226632   5.551   5.376   6.151 -0.9173  0.2520 -0.0248
 1714TIP3    H126633   5.498   5.308   6.112 -0.1332  0.6113 -1.7677
 1714TIP3    H226634   5.505   5.458   6.132 -0.0323  0.5188 -1.0934
 1715TIP3   OH226635   6.354   3.209   1.859 -0.3342 -0.0501 -0.2272
 1715TIP3    H126636   6.296   3.285   1.856 -0.8341 -0.4675 -2.9497
 1715TIP3    H226637   6.401   3.217   1.942 -1.4144  2.4480  0.1858
 1716TIP3   OH226638   5.120   1.647  14.951 -0.3964 -0.1849 -0.0479
 1716TIP3    H126639   5.147   1.663  14.860  0.3628 -0.3221  0.1488
 1716TIP3    H226640   5.091   1.732  14.983 -0.5896 -0.1204 -0.3986
 1717TIP3   OH226641   2.020   2.137   5.540 -0.5044 -0.2362  0.2155
 1717TIP3    H126642   2.112   2.113   5.536 -0.2551  0.8380 -0.7643
 1717TIP3    H226643   2.020   2.224   5.579 -1.2608 -1.0272  2.0336
 1718TIP3   OH226644   3.720   4.908  17.151  0.1354  0.6728  0.5053
 1718TIP3    H126645   3.694   4.984  17.203  2.0860  0.0684  2.4254
 1718TIP3    H226646   3.765   4.850  17.213 -1.5022 -2.1717 -0.8571
 1719TIP3   OH226647   3.200   2.576  16.751 -0.3014 -0.6384  0.6604
 1719TIP3    H126648   3.282   2.562  16.703  0.2172 -1.1723  1.6714
 1719TIP3    H226649   3.154   2.643  16.701  0.5517 -0.6538 -0.1706
 1720TIP3   OH226650   0.713   0.118  17.259  0.4653  0.1338  0.2857
 1720TIP3    H126651   0.722   0.104  17.353 -1.7741 -2.1493  0.2004
 1720TIP3    H226652   0.744   0.036  17.219 -1.6567 -0.1588 -0.7989
 1721TIP3   OH226653   2.565   6.616   3.805  0.3628 -0.5363 -0.4256
 1721TIP3    H126654   2.501   6.669   3.758 -0.8789 -1.1372  0.5537
 1721TIP3    H226655   2.543   6.526   3.784  0.7600 -0.7582  0.0785
 1722TIP3   OH226656   2.879   3.630   2.736  0.4624  0.4125 -0.0735
 1722TIP3    H126657   2.859   3.684   2.812  2.1249  1.4681 -0.3592
 1722TIP3    H226658   2.831   3.671   2.664  0.9918  0.9637 -0.1108
 1723TIP3   OH226659   3.887   6.600  13.760 -0.2615 -0.6220  0.1097
 1723TIP3    H126660   3.839   6.518  13.768 -2.0860  0.2890 -1.1892
 1723TIP3    H226661   3.899   6.613  13.666 -1.1356  1.2047  0.2104
 1724TIP3   OH226662   6.536   0.020   3.486  0.2184 -0.2985  0.0297
 1724TIP3    H126663   6.590   0.099   3.498  1.2028 -0.5661 -2.4426
 1724TIP3    H226664   6.597  -0.052   3.498  0.1680 -0.6215 -1.6119
 1725TIP3   OH226665   3.707   5.107   0.215 -0.0935 -0.3987 -0.0655
 1725TIP3    H126666   3.742   5.113   0.304 -2.0231  1.0399  0.6366
 1725TIP3    H226667   3.654   5.027   0.216  0.4203 -0.7380 -0.1078
 1726TIP3   OH226668   0.724   5.823  11.354  0.1387  0.1098 -0.6160
 1726TIP3    H126669   0.712   5.809  11.260 -1.4598  0.6419 -0.5204
 1726TIP3    H226670   0.818   5.821  11.367  0.3342 -1.2476 -2.0333
 1727TIP3   OH226671   3.364   0.362  14.524  0.3294 -0.1685 -0.4762
 1727TIP3    H126672   3.408   0.277  14.527 -1.3712 -1.0378  0.3990
 1727TIP3    H226673   3.319   0.362  14.439 -0.3071 -0.4831 -0.1448
 1728TIP3   OH226674   3.020   0.132   0.650  0.2112 -0.2369  0.5400
 1728TIP3    H126675   2.983   0.148   0.737  0.3751 -2.5886  1.0760
 1728TIP3    H226676   3.071   0.052   0.660 -0.0577 -0.7497 -1.8301
 1729TIP3   OH226677   0.247   6.092   0.872 -0.1940 -0.3207 -0.4067
 1729TIP3    H126678   0.242   6.188   0.875 -0.8609 -0.3273 -1.1681
 1729TIP3    H226679   0.157   6.064   0.857 -0.3121 -1.1654  1.7821
 1730TIP3   OH226680   3.474   0.908   1.299 -0.2133 -0.0254 -0.8306
 1730TIP3    H126681   3.502   0.931   1.388  0.1673  0.5196 -1.0900
 1730TIP3    H226682   3.380   0.895   1.306 -0.0454 -0.9581 -0.1363
 1731TIP3   OH226683   4.079   2.600  12.842  0.1162  0.4984  0.2262
 1731TIP3    H126684   4.054   2.511  12.867 -1.2845  1.2704  1.6637
 1731TIP3    H226685   4.175   2.598  12.840  0.1237 -0.8184  1.0749
 1732TIP3   OH226686   3.923   0.092  13.796  0.1779 -0.4359 -0.3933
 1732TIP3    H126687   4.010   0.052  13.797  0.5413  0.2189 -3.4827
 1732TIP3    H226688   3.868   0.030  13.749 -0.7392 -0.1935  0.3287
 1733TIP3   OH226689   5.927   4.805  13.491  0.3987 -0.0383  0.5890
 1733TIP3    H126690   5.860   4.744  13.523 -0.1149 -0.6003 -1.4854
 1733TIP3    H226691   6.006   4.751  13.484  0.0966 -0.3171 -0.6648
 1734TIP3   OH226692   1.440   3.585  15.910 -0.3089  0.3459 -0.1848
 1734TIP3    H126693   1.471   3.520  15.847  1.0348 -1.7742  2.5260
 1734TIP3    H226694   1.350   3.559  15.929 -0.3806  0.3705 -0.4986
 1735TIP3   OH226695   2.171   2.656  16.693 -0.1706 -0.3448 -0.3647
 1735TIP3    H126696   2.266   2.656  16.702 -0.3096 -3.1138  1.9905
 1735TIP3    H226697   2.151   2.581  16.637 -0.9915 -0.0886 -0.4310
 1736TIP3   OH226698   0.888   1.826   5.918  0.4647  0.0645  0.0357
 1736TIP3    H126699   0.899   1.830   6.013  0.2750  2.6878  0.0040
 1736TIP3    H226700   0.810   1.880   5.901 -0.2315 -1.3907 -1.5040
 1737TIP3   OH226701   6.738   2.836   1.018  0.8304  0.1444  0.0655
 1737TIP3    H126702   6.658   2.789   1.043  0.3675  1.2498  0.6825
 1737TIP3    H226703   6.752   2.899   1.089  1.1835  1.2614 -0.9893
 1738TIP3   OH226704   0.731   6.203  11.504  0.3135 -1.3280 -1.2315
 1738TIP3    H126705   0.826   6.210  11.499  0.3626 -1.0671 -0.1250
 1738TIP3    H226706   0.703   6.185  11.414  1.5326 -2.9804 -1.2965
 1739TIP3   OH226707   0.903   5.835   6.236  0.4694 -0.3363  0.1703
 1739TIP3    H126708   0.952   5.776   6.293  1.5563 -2.1443 -2.5286
 1739TIP3    H226709   0.813   5.829   6.267  1.2515 -0.1813  2.5679
 1740TIP3   OH226710   1.927   1.885  11.671  0.2919 -0.5383 -0.1508
 1740TIP3    H126711   1.943   1.833  11.749  0.2978 -0.9438 -0.4190
 1740TIP3    H226712   1.831   1.892  11.666  0.2113 -2.0542 -1.1002
 1741TIP3   OH226713   3.560   1.702   2.715 -0.0133 -0.2156 -0.2645
 1741TIP3    H126714   3.512   1.720   2.796  1.3410  0.7923  0.3409
 1741TIP3    H226715   3.555   1.784   2.665  0.6279 -0.2771 -0.4274
 1742TIP3   OH226716   4.600   4.765   4.070  0.1273  0.7213 -0.4946
 1742TIP3    H126717   4.562   4.700   4.128  2.7739  0.2638  0.8055
 1742TIP3    H226718   4.577   4.849   4.109 -0.0764  0.4694 -0.0755
 1743TIP3   OH226719   0.763   4.254   2.232 -0.8723  0.1698 -0.2969
 1743TIP3    H126720   0.673   4.223   2.244 -0.6235 -0.4482 -0.0354
 1743TIP3    H226721   0.814   4.206   2.297 -0.6930  2.0402  0.9667
 1744TIP3   OH226722   5.171   2.937   3.229  0.0193 -0.1208 -0.2049
 1744TIP3    H126723   5.113   2.882   3.281 -0.2841 -0.4718 -0.9152
 1744TIP3    H226724   5.185   3.015   3.283 -2.1331  0.5458 -0.5723
 1745TIP3   OH226725   6.089   0.299  15.896  0.6401  0.3832 -0.5841
 1745TIP3    H126726   6.075   0.283  15.803  0.2950 -0.6905 -0.3485
 1745TIP3    H226727   6.183   0.290  15.909  0.6963  0.5981 -0.8337
 1746TIP3   OH226728   2.769   0.235   0.621 -0.0777  0.4391  0.6100
 1746TIP3    H126729   2.846   0.179   0.608  0.5421  1.4645 -0.1968
 1746TIP3    H226730   2.798   0.323   0.597 -1.2102  1.0213  1.3155
 1747TIP3   OH226731   4.580   4.147   5.090  0.4048  0.2540 -0.1742
 1747TIP3    H126732   4.490   4.130   5.059 -0.0636  0.4372  1.0624
 1747TIP3    H226733   4.617   4.059   5.103 -0.3819  0.1641  1.5393
 1748TIP3   OH226734   6.700   1.905   1.381  0.5558  0.1092 -0.4318
 1748TIP3    H126735   6.675   1.825   1.427  0.8646 -0.3589 -1.0724
 1748TIP3    H226736   6.657   1.975   1.430 -1.6029 -0.6364 -1.1803
 1749TIP3   OH226737   5.298   4.572   6.130  0.2651 -0.2067  0.4205
 1749TIP3    H126738   5.252   4.640   6.179 -1.5884 -2.7121  2.2757
 1749TIP3    H226739   5.359   4.534   6.193 -0.5110 -1.9513  0.1299
 1750TIP3   OH226740   5.630   3.766  16.206  0.2014  0.3603 -0.2812
 1750TIP3    H126741   5.712   3.785  16.160  0.5989 -0.4871  0.0597
 1750TIP3    H226742   5.643   3.800  16.294  1.4044 -2.5367  0.7164
 1751TIP3   OH226743   0.673   0.834   5.168 -0.2427  0.5340  0.1740
 1751TIP3    H126744   0.639   0.747   5.189  1.9409 -0.2526  0.5361
 1751TIP3    H226745   0.613   0.868   5.101 -1.4582 -0.9889  0.4634
 1752TIP3   OH226746   6.743   6.132   2.032 -0.2366 -0.3280  0.4622
 1752TIP3    H126747   6.718   6.151   1.942  0.8628 -1.7345 -0.1691
 1752TIP3    H226748   6.830   6.093   2.025 -0.2420 -0.6899  2.1121
 1753TIP3   OH226749   6.799   3.091   6.100 -0.6951 -0.3722  0.5877
 1753TIP3    H126750   6.831   3.007   6.065  3.3758  1.1353  0.4210
 1753TIP3    H226751   6.755   3.067   6.182  0.0647 -2.7320  0.3597
 1754TIP3   OH226752   1.204   0.470   3.503  0.2053 -0.0870 -0.0561
 1754TIP3    H126753   1.113   0.487   3.528  0.4915  1.4356 -0.0182
 1754TIP3    H226754   1.205   0.480   3.408  0.4231  0.3086 -0.0114
 1755TIP3   OH226755   2.555   6.044   5.472 -0.0358  0.4243  0.0194
 1755TIP3    H126756   2.541   6.074   5.382  0.7873  0.7754  0.0102
 1755TIP3    H226757   2.492   6.094   5.524 -1.3679 -0.6605 -0.5174
 1756TIP3   OH226758   0.419   1.191  15.068  0.2611  0.2730 -0.5873
 1756TIP3    H126759   0.352   1.133  15.032  0.7673 -0.6978  0.0300
 1756TIP3    H226760   0.421   1.171  15.161  2.3427 -0.6753 -0.8076
 1757TIP3   OH226761   3.532   3.066   5.037  0.1587  0.3992 -0.5552
 1757TIP3    H126762   3.564   3.098   5.121 -0.2665  1.6260 -0.8469
 1757TIP3    H226763   3.470   2.997   5.059  0.2640  0.5206  0.1252
 1758TIP3   OH226764   5.120   2.475   3.775 -0.5686  0.0276  0.2571
 1758TIP3    H126765   5.122   2.381   3.758  1.7755  0.1539 -0.4252
 1758TIP3    H226766   5.053   2.486   3.842 -2.3997 -1.8350 -1.2170
 1759TIP3   OH226767   1.959   5.304   4.095  0.4365  0.6362  0.2877
 1759TIP3    H126768   1.991   5.250   4.167 -1.1981 -0.2129  0.3959
 1759TIP3    H226769   1.999   5.267   4.017  0.3963  0.1267  0.5116
 1760TIP3   OH226770   6.425   4.558   5.641 -0.5753 -0.2491 -0.1158
 1760TIP3    H126771   6.511   4.559   5.598 -0.9055  0.7016 -0.7734
 1760TIP3    H226772   6.440   4.601   5.725 -0.3154 -0.4522 -0.0581
 1761TIP3   OH226773   0.354   2.833  16.247  0.1635 -0.0491  0.1751
 1761TIP3    H126774   0.265   2.868  16.260  0.6344  0.2784  2.6831
 1761TIP3    H226775   0.340   2.748  16.205 -1.3353 -0.0435  0.6242
 1762TIP3   OH226776   6.369   2.488   1.015 -0.1056 -0.2192 -0.2244
 1762TIP3    H126777   6.345   2.402   0.981  0.3368 -0.6777  0.6045
 1762TIP3    H226778   6.306   2.504   1.086 -0.4074  0.3000 -0.6040
 1763TIP3   OH226779   5.841   1.963  11.735  0.2686 -0.1949 -0.0059
 1763TIP3    H126780   5.747   1.960  11.716  0.3978 -0.7983 -0.5187
 1763TIP3    H226781   5.875   2.031  11.676  0.4118 -1.0197 -0.8744
 1764TIP3   OH226782   6.682   3.852  13.679  0.4178 -0.1545 -0.3283
 1764TIP3    H126783   6.708   3.885  13.593  2.1342  1.9045  0.9294
 1764TIP3    H226784   6.659   3.930  13.728 -0.0254 -1.2603  1.2510
 1765TIP3   OH226785   5.039   2.118  12.302  0.1272 -0.3436 -0.1343
 1765TIP3    H126786   4.960   2.064  12.307  0.7026 -0.9406  3.6838
 1765TIP3    H226787   5.009   2.201  12.264 -1.6074 -1.7919 -1.9954
 1766TIP3   OH226788   0.347   3.991  14.093 -0.6704  0.8791 -0.2577
 1766TIP3    H126789   0.255   3.966  14.099 -0.8912  1.2541 -1.8517
 1766TIP3    H226790   0.394   3.908  14.090 -1.0038  0.6875 -0.2268
 1767TIP3   OH226791   1.684   2.855   1.536 -0.6208 -0.3410  0.2917
 1767TIP3    H126792   1.642   2.815   1.460 -0.9761  1.1686 -0.3194
 1767TIP3    H226793   1.618   2.849   1.605 -0.5914 -0.9968  0.2655
 1768TIP3   OH226794   1.272   0.618   0.791  0.3804  0.0523 -0.6894
 1768TIP3    H126795   1.198   0.578   0.838  0.1944  1.3656  0.1490
 1768TIP3    H226796   1.331   0.649   0.860  0.6664  0.9632 -1.3312
 1769TIP3   OH226797   5.616   2.958  13.199 -0.6110 -0.3514 -0.1734
 1769TIP3    H126798   5.640   2.907  13.276 -1.3781 -0.3142  0.0992
 1769TIP3    H226799   5.520   2.953  13.196 -0.5733 -0.5248 -1.2405
 1770TIP3   OH226800   1.903   0.594  11.823 -0.3814  0.8272  0.5587
 1770TIP3    H126801   1.947   0.514  11.854  0.3420  0.8179 -0.4634
 1770TIP3    H226802   1.936   0.663  11.880  0.3849  0.6916  0.2845
 1771TIP3   OH226803   5.979   0.102   0.098 -0.1698  0.1554  0.9771
 1771TIP3    H126804   6.060   0.147   0.120  1.6762 -2.2384 -0.6813
 1771TIP3    H226805   6.002   0.009   0.096 -2.7809 -0.5177 -0.1699
 1772TIP3   OH226806   5.104   1.283  13.348 -0.5881 -0.1336 -0.0594
 1772TIP3    H126807   5.051   1.304  13.425 -1.0014  1.1625 -0.6819
 1772TIP3    H226808   5.194   1.285  13.380 -0.7422  0.6712  0.3547
 1773TIP3   OH226809   6.200   4.853   6.665 -0.8168 -0.3169  0.4607
 1773TIP3    H126810   6.279   4.899   6.637 -0.5314 -1.3145 -0.4028
 1773TIP3    H226811   6.211   4.841   6.759 -0.9494  1.4832  0.7163
 1774TIP3   OH226812   0.335   5.020   2.124 -1.0900 -0.2510 -0.1220
 1774TIP3    H126813   0.241   5.015   2.107 -1.5089  1.4565  1.4522
 1774TIP3    H226814   0.355   4.936   2.167 -1.7778 -0.8417 -0.9259
 1775TIP3   OH226815   1.987   5.552   5.637 -0.8650 -0.4340  0.0840
 1775TIP3    H126816   1.929   5.545   5.714  1.5834  2.2975  2.2678
 1775TIP3    H226817   2.048   5.479   5.647 -1.8894 -1.3863 -0.4835
 1776TIP3   OH226818   0.454   6.357  16.261  0.6563  0.1945 -0.5650
 1776TIP3    H126819   0.512   6.303  16.315 -0.1834 -0.0372  0.1015
 1776TIP3    H226820   0.500   6.365  16.177  0.7108 -1.6865 -0.7221
 1777TIP3   OH226821   2.235   2.965   5.098 -0.4367 -0.5658  0.2454
 1777TIP3    H126822   2.325   2.940   5.118 -0.3135 -2.3451 -2.2770
 1777TIP3    H226823   2.218   2.924   5.013 -3.1782  0.8684  0.0776
 1778TIP3   OH226824   4.750   0.021   0.009  0.5972 -0.8261 -0.9253
 1778TIP3    H126825   4.678   0.053   0.063  0.5285 -1.8252 -0.4100
 1778TIP3    H226826   4.827   0.026   0.066  1.2631  1.7171 -1.9689
 1779TIP3   OH226827   1.343   1.477  13.453 -0.7371 -0.1801  0.1409
 1779TIP3    H126828   1.281   1.547  13.476 -0.9925 -0.5234  0.4939
 1779TIP3    H226829   1.419   1.492  13.510 -0.0538  0.8657 -1.0185
 1780TIP3   OH226830   1.872   4.471  11.351  1.0579 -0.9020  0.0660
 1780TIP3    H126831   1.897   4.526  11.425  0.0253 -1.8717  1.1645
 1780TIP3    H226832   1.828   4.396  11.391  0.5203 -1.4611 -1.5302
 1781TIP3   OH226833   1.433   3.947  14.705 -0.1095 -0.0401 -0.3789
 1781TIP3    H126834   1.385   4.006  14.764  0.0934  0.4468 -0.6979
 1781TIP3    H226835   1.502   4.002  14.667  0.1632 -0.5170 -0.5804
 1782TIP3   OH226836   6.498   3.575  16.480  0.4602 -0.5940 -0.0150
 1782TIP3    H126837   6.529   3.665  16.493  1.0753 -0.8776  0.5239
 1782TIP3    H226838   6.487   3.566  16.386 -0.9429  0.4843  0.0219
 1783TIP3   OH226839   4.658   4.089   0.942 -0.2710  0.3746 -0.0899
 1783TIP3    H126840   4.609   4.048   1.013  0.5661 -1.6377 -0.6482
 1783TIP3    H226841   4.715   4.152   0.987 -0.8532  0.2398  0.8716
 1784TIP3   OH226842   3.872   0.130   1.905  0.4132  0.4834 -0.5282
 1784TIP3    H126843   3.967   0.138   1.896  0.8181 -1.9035  1.2083
 1784TIP3    H226844   3.854   0.162   1.994 -0.5837  2.0191 -1.2560
 1785TIP3   OH226845   2.518   3.547   1.859  0.0863  0.1442 -0.1996
 1785TIP3    H126846   2.506   3.461   1.900  0.6593 -0.1892 -0.7174
 1785TIP3    H226847   2.506   3.531   1.766  0.2294  0.6182 -0.2991
 1786TIP3   OH226848   2.884   2.275   5.104  0.5768  0.6835  0.1236
 1786TIP3    H126849   2.941   2.333   5.053  0.3723  0.7321 -0.0522
 1786TIP3    H226850   2.942   2.206   5.136  0.3914 -0.3575 -1.6892
 1787TIP3   OH226851   2.852   1.339  12.748  0.3894 -0.1832 -0.7450
 1787TIP3    H126852   2.824   1.413  12.695 -0.8595  0.1193  0.3154
 1787TIP3    H226853   2.857   1.374  12.838  3.0390 -0.5246 -0.7094
 1788TIP3   OH226854   5.609   3.970  15.820 -0.3484 -0.0220 -0.2354
 1788TIP3    H126855   5.572   4.056  15.804  0.1634  0.4500  1.0515
 1788TIP3    H226856   5.648   3.945  15.737 -1.4760  0.4937 -0.9343
 1789TIP3   OH226857   5.379   0.081  14.383 -0.2065 -0.4784 -0.3018
 1789TIP3    H126858   5.392   0.004  14.439  1.2454 -0.6967 -0.9177
 1789TIP3    H226859   5.358   0.044  14.297  1.2852 -0.2028 -0.7889
 1790TIP3   OH226860   4.852   3.062  12.506  0.1564 -0.2699  0.5228
 1790TIP3    H126861   4.771   3.091  12.546  0.5016  1.2640  0.1432
 1790TIP3    H226862   4.902   3.142  12.492  1.5911 -1.1574  0.4369
 1791TIP3   OH226863   2.764   5.693  14.482  0.1560 -0.0701  0.2562
 1791TIP3    H126864   2.737   5.632  14.414  0.8780 -0.4043  0.2664
 1791TIP3    H226865   2.761   5.779  14.440  0.1954 -0.2274 -0.0719
 1792TIP3   OH226866   5.653   3.844   2.217 -0.0502 -0.4374  0.2682
 1792TIP3    H126867   5.623   3.769   2.165  1.4170 -1.7508  1.2721
 1792TIP3    H226868   5.747   3.827   2.231  0.4068  1.8213  0.1194
 1793TIP3   OH226869   6.296   5.786   5.559 -0.1027  0.2669  0.5158
 1793TIP3    H126870   6.323   5.861   5.613  1.4323  0.0585  0.0827
 1793TIP3    H226871   6.298   5.820   5.469 -0.1353 -0.0845  0.3830
 1794TIP3   OH226872   3.591   2.004   4.371  0.4497  0.1805 -0.7082
 1794TIP3    H126873   3.575   2.012   4.465  1.6232 -0.3982 -0.4488
 1794TIP3    H226874   3.642   2.083   4.349 -0.4927  0.7098 -1.0192
 1795TIP3   OH226875   3.712   0.091  15.249 -0.0035  0.1579 -0.2835
 1795TIP3    H126876   3.742   0.066  15.162  0.2505  0.5458 -0.3051
 1795TIP3    H226877   3.678   0.009  15.287  4.2127 -1.1255  1.0348
 1796TIP3   OH226878   4.601   6.120  11.079  0.5082  0.7667  0.1857
 1796TIP3    H126879   4.540   6.178  11.126 -0.5436 -0.6532  0.6075
 1796TIP3    H226880   4.582   6.135  10.987 -0.0901  0.7574  0.3036
 1797TIP3   OH226881   5.297   4.351   4.580  0.3930 -0.1901  0.1040
 1797TIP3    H126882   5.359   4.300   4.632  0.3966  1.0227  1.3202
 1797TIP3    H226883   5.306   4.316   4.491  1.2493 -1.4819  0.6798
 1798TIP3   OH226884   5.710   4.822  16.331  0.4147  0.4163  0.1655
 1798TIP3    H126885   5.785   4.855  16.381  1.7151 -0.7875 -0.9285
 1798TIP3    H226886   5.690   4.738  16.370  0.9080 -0.1528 -0.7659
 1799TIP3   OH226887   5.504   4.031   2.454  0.5461  0.1455  0.2480
 1799TIP3    H126888   5.500   3.957   2.393  0.1618 -0.0388  0.5003
 1799TIP3    H226889   5.577   4.010   2.512  1.1617  0.5018 -0.3793
 1800TIP3   OH226890   1.752   3.244  10.612 -0.6561  0.3554  0.3432
 1800TIP3    H126891   1.705   3.324  10.588 -0.6990  0.2936  0.2201
 1800TIP3    H226892   1.684   3.186  10.645 -0.6474  0.3098  0.2801
 1801TIP3   OH226893   4.557   6.578  12.100  0.2305 -0.0098 -0.1665
 1801TIP3    H126894   4.501   6.614  12.169 -0.7524 -1.8835  0.0385
 1801TIP3    H226895   4.642   6.566  12.142 -0.5393 -1.8022  0.9678
 1802TIP3   OH226896   2.140   5.870   6.008 -0.8400 -0.3300 -0.4730
 1802TIP3    H126897   2.104   5.781   6.014 -0.6135 -0.3222  1.0550
 1802TIP3    H226898   2.167   5.891   6.097 -1.8119  1.6660 -0.6259
 1803TIP3   OH226899   0.778   4.460   3.399  0.0480 -0.4450  0.2219
 1803TIP3    H126900   0.764   4.467   3.305 -1.7137 -1.2483  0.3961
 1803TIP3    H226901   0.749   4.372   3.421 -4.1801  1.3030  2.2311
 1804TIP3   OH226902   1.095   1.155  11.753  0.1965 -0.4205 -0.9434
 1804TIP3    H126903   1.156   1.130  11.684  0.9197 -0.6216 -0.2388
 1804TIP3    H226904   1.072   1.246  11.733  0.0088 -0.6391 -1.7282
 1805TIP3   OH226905   5.530   1.608  14.581  0.0979 -0.2466 -0.1360
 1805TIP3    H126906   5.526   1.639  14.671  1.7550 -1.6623  0.4552
 1805TIP3    H226907   5.464   1.539  14.575 -0.9160  0.7334 -0.3847
 1806TIP3   OH226908   3.538   2.832   5.936 -0.0945 -0.5193 -0.0715
 1806TIP3    H126909   3.581   2.874   6.011 -0.9782 -0.0385  0.1655
 1806TIP3    H226910   3.563   2.740   5.943  1.4655 -0.1260 -0.3239
 1807TIP3   OH226911   5.974   1.423  16.260  0.5364  0.2097  0.1621
 1807TIP3    H126912   6.022   1.341  16.275  1.0826  0.6514  0.8363
 1807TIP3    H226913   5.991   1.443  16.168  0.2258 -0.5393 -0.0699
 1808TIP3   OH226914   5.428   4.263   3.287 -0.2862 -0.4858 -0.4009
 1808TIP3    H126915   5.428   4.347   3.333  2.0389  0.5455 -2.1514
 1808TIP3    H226916   5.445   4.199   3.356 -2.0154  0.4729  0.9504
 1809TIP3   OH226917   3.157   4.472   5.908 -0.1490 -0.1984 -0.1721
 1809TIP3    H126918   3.178   4.389   5.950  0.9253 -0.1058 -0.5295
 1809TIP3    H226919   3.201   4.539   5.960 -2.0176  0.2778  0.8408
 1810TIP3   OH226920   6.327   6.820  12.618  0.1923  0.8279 -0.1122
 1810TIP3    H126921   6.388   6.888  12.646  3.2771 -1.6389 -0.6077
 1810TIP3    H226922   6.293   6.783  12.700 -0.7798  2.2662  0.1621
 1811TIP3   OH226923   3.096   0.515  13.481 -0.4658  0.2805  0.3621
 1811TIP3    H126924   3.080   0.434  13.530 -1.3466  0.2749  0.0740
 1811TIP3    H226925   3.065   0.496  13.392  1.3058  0.2280 -0.2670
 1812TIP3   OH226926   5.644   0.897   3.874 -0.0487 -0.4679 -0.3428
 1812TIP3    H126927   5.631   0.824   3.814 -1.6973  0.5572 -1.2656
 1812TIP3    H226928   5.631   0.975   3.820 -0.0887  0.4942  1.0272
 1813TIP3   OH226929   4.310   5.754  10.419  0.2571  0.4287  0.6927
 1813TIP3    H126930   4.235   5.702  10.390  0.7325 -0.4199  0.9823
 1813TIP3    H226931   4.293   5.841  10.384  1.5581 -0.8962 -3.5728
 1814TIP3   OH226932   1.459   1.193  11.059  0.1780 -0.0894  0.3707
 1814TIP3    H126933   1.451   1.182  11.153 -2.4504 -0.6789  0.1029
 1814TIP3    H226934   1.478   1.286  11.047 -0.6301  0.2105  1.4082
 1815TIP3   OH226935   2.710   0.080  15.885  0.2099  0.1295 -0.6366
 1815TIP3    H126936   2.798   0.087  15.848  0.3977  0.2530 -0.1696
 1815TIP3    H226937   2.719   0.014  15.954 -0.1798 -0.2386 -0.9389
 1816TIP3   OH226938   3.672   3.859   0.242  0.2029  0.3399 -0.7947
 1816TIP3    H126939   3.710   3.784   0.287 -2.1238  0.1843  1.0081
 1816TIP3    H226940   3.597   3.884   0.296 -0.2592  2.6958 -2.4525
 1817TIP3   OH226941   5.447   2.458  12.914  0.1564  0.0793 -0.3195
 1817TIP3    H126942   5.367   2.440  12.864  0.5479 -0.9162 -0.6141
 1817TIP3    H226943   5.503   2.382  12.897  0.2692 -0.3300  1.7003
 1818TIP3   OH226944   2.131   2.280  11.784  0.5287 -0.1985  0.2434
 1818TIP3    H126945   2.157   2.276  11.876  1.6546 -1.5163 -0.1054
 1818TIP3    H226946   2.121   2.373  11.765 -1.8439  0.0024  2.2734
 1819TIP3   OH226947   2.308   1.308   0.467 -0.4420 -0.4967  0.3740
 1819TIP3    H126948   2.341   1.287   0.554  0.7973  2.2910  0.6480
 1819TIP3    H226949   2.387   1.326   0.416 -1.2128 -1.0618 -1.0355
 1820TIP3   OH226950   4.167   3.831   1.405  0.5659  0.1270  0.0596
 1820TIP3    H126951   4.244   3.788   1.368  0.5581  0.8284 -0.7872
 1820TIP3    H226952   4.121   3.867   1.329  0.2242  1.0636  0.7065
 1821TIP3   OH226953   3.081   5.982  10.857  0.2620  0.0864  0.3371
 1821TIP3    H126954   3.008   6.038  10.830  0.4041 -0.0281 -0.2976
 1821TIP3    H226955   3.079   5.909  10.795  0.2845 -0.4428  0.9502
 1822TIP3   OH226956   3.029   4.539   3.739  0.1774 -0.9245  0.0047
 1822TIP3    H126957   3.075   4.605   3.688 -0.2516 -1.8844 -1.6756
 1822TIP3    H226958   3.095   4.472   3.757 -0.2286 -1.7183 -1.3607
 1823TIP3   OH226959   4.071   5.581  10.416  0.5783 -0.0397  0.2577
 1823TIP3    H126960   4.130   5.521  10.463 -0.3089 -0.3331  1.0373
 1823TIP3    H226961   3.995   5.589  10.475 -0.0627  0.4798 -0.6369
 1824TIP3   OH226962   0.579   4.540   1.524  0.2716  0.1355  0.4744
 1824TIP3    H126963   0.616   4.629   1.516  1.1573 -0.1523  1.2617
 1824TIP3    H226964   0.531   4.542   1.607 -2.2538  0.7660 -0.9571
 1825TIP3   OH226965   1.937   0.200   2.502 -0.7067 -0.0329  0.5521
 1825TIP3    H126966   1.992   0.224   2.427 -1.4396 -0.5939 -0.1698
 1825TIP3    H226967   1.874   0.137   2.466  0.2531 -1.9191  2.0892
 1826TIP3   OH226968   4.471   3.353  13.413  0.0331  0.0984 -0.3703
 1826TIP3    H126969   4.453   3.443  13.440  0.4081  0.5947 -1.7184
 1826TIP3    H226970   4.518   3.362  13.330  2.5133 -1.2816  0.8345
 1827TIP3   OH226971   5.103   3.380   2.609 -0.5782 -0.1271 -0.0434
 1827TIP3    H126972   5.088   3.474   2.614 -0.3413  0.0577 -2.3197
 1827TIP3    H226973   5.016   3.342   2.596 -0.4400 -0.0084 -1.4349
 1828TIP3   OH226974   3.220   2.687   0.108 -0.3755 -0.4429  0.0652
 1828TIP3    H126975   3.298   2.634   0.123  1.1251  1.3432 -1.1625
 1828TIP3    H226976   3.225   2.756   0.174  0.4984  1.1925 -1.6823
 1829TIP3   OH226977   4.503   2.485  15.161  0.3853 -0.2002  0.1863
 1829TIP3    H126978   4.497   2.520  15.072 -2.2416 -0.4617  0.2137
 1829TIP3    H226979   4.490   2.562  15.217 -3.8673 -0.7929  0.2477
 1830TIP3   OH226980   6.659   4.979  16.410 -0.1989  0.2283 -0.0350
 1830TIP3    H126981   6.692   4.979  16.320  2.5550 -0.2232  0.9466
 1830TIP3    H226982   6.649   5.071  16.432 -0.8320  0.3437 -0.7473
 1831TIP3   OH226983   1.606   6.787   3.384  0.6263  0.1239 -0.0897
 1831TIP3    H126984   1.531   6.727   3.382  1.4867 -0.9660 -0.1377
 1831TIP3    H226985   1.665   6.749   3.448  0.5368  1.7312  0.9705
 1832TIP3   OH226986   0.641   0.950   4.555  0.1472 -0.3513 -1.1871
 1832TIP3    H126987   0.568   0.966   4.495  0.6061 -2.2538 -2.2888
 1832TIP3    H226988   0.694   0.884   4.511  0.0804 -2.3790  1.6884
 1833TIP3   OH226989   0.588   4.000  11.650  0.1527 -0.1580  0.2362
 1833TIP3    H126990   0.643   3.945  11.706 -0.3849 -0.8988  0.0391
 1833TIP3    H226991   0.630   4.086  11.653  1.1998 -0.6602  0.2600
 1834TIP3   OH226992   3.904   6.778   3.627  0.2692 -0.1838 -0.2109
 1834TIP3    H126993   3.817   6.766   3.665  0.8324 -3.2138  0.2692
 1834TIP3    H226994   3.895   6.853   3.568 -2.2741  0.4674  0.9467
 1835TIP3   OH226995   0.728   5.994   4.997 -0.1320 -0.8227 -0.4152
 1835TIP3    H126996   0.662   6.063   5.008  0.8539  0.2446 -1.0944
 1835TIP3    H226997   0.711   5.933   5.069 -1.5301 -0.2974 -0.2802
 1836TIP3   OH226998   6.445   2.992  15.514  0.4448 -0.1924 -0.6504
 1836TIP3    H126999   6.420   2.993  15.421  1.2552  0.7894 -0.8678
 1836TIP3    H227000   6.480   2.904  15.529 -0.5858 -0.6779 -1.0265
 1837TIP3   OH227001   0.684   6.609  13.329  0.2470 -0.0614 -0.2213
 1837TIP3    H127002   0.771   6.572  13.347  1.3727  2.5213 -0.1366
 1837TIP3    H227003   0.661   6.657  13.409 -1.2256 -0.6349 -0.2811
 1838TIP3   OH227004   0.381   0.810   4.773 -0.9419 -0.4670  0.2192
 1838TIP3    H127005   0.288   0.813   4.749 -1.3094 -2.0746  1.2940
 1838TIP3    H227006   0.421   0.752   4.708 -1.2222 -1.8624  1.2590
 1839TIP3   OH227007   0.624   0.598   6.167  0.0856  0.1018  0.3260
 1839TIP3    H127008   0.716   0.625   6.170  0.0358  0.2478  0.5004
 1839TIP3    H227009   0.627   0.503   6.179  0.2328  0.0708  0.0648
 1840TIP3   OH227010   3.861   0.238  15.419  0.2675 -0.1916 -0.0163
 1840TIP3    H127011   3.805   0.202  15.349 -1.7101  1.0704  0.8813
 1840TIP3    H227012   3.948   0.241  15.380 -0.6225 -0.4202 -2.1079
 1841TIP3   OH227013   2.499   2.997   5.130 -0.5370 -0.2123 -0.0543
 1841TIP3    H127014   2.542   3.062   5.185 -0.2411  0.4398 -1.0474
 1841TIP3    H227015   2.556   2.988   5.054 -1.4415 -0.3855 -0.7193
 1842TIP3   OH227016   1.077   2.146  11.728  0.2469 -0.2472  0.2379
 1842TIP3    H127017   1.104   2.129  11.819 -0.0173  0.0222  0.3664
 1842TIP3    H227018   1.003   2.088  11.713  0.7329 -0.8022 -0.0341
 1843TIP3   OH227019   4.635   6.753   1.856  0.5816 -0.3857  0.2069
 1843TIP3    H127020   4.650   6.691   1.927  0.2974  0.3673  0.9405
 1843TIP3    H227021   4.714   6.748   1.802 -0.1499 -2.5887 -0.6700
 1844TIP3   OH227022   4.478   0.838  12.353  0.4150 -0.5721 -0.1632
 1844TIP3    H127023   4.411   0.796  12.407  0.7023 -2.0138 -0.9332
 1844TIP3    H227024   4.559   0.792  12.375  1.0833  0.8062  0.3605
 1845TIP3   OH227025   5.612   2.676  16.918  0.3003 -0.5067 -0.3709
 1845TIP3    H127026   5.680   2.640  16.976  1.9170  1.0984 -1.2189
 1845TIP3    H227027   5.604   2.612  16.848  0.5686 -0.9719  0.0211
 1846TIP3   OH227028   4.721   5.549  13.126  0.0834 -0.0505  0.7901
 1846TIP3    H127029   4.633   5.521  13.154 -0.3445  0.1868 -0.2974
 1846TIP3    H227030   4.714   5.644  13.118  0.0445 -0.1723 -0.6509
 1847TIP3   OH227031   5.025   6.342   6.618 -0.7606 -0.0797  0.3646
 1847TIP3    H127032   5.025   6.434   6.593  0.5151 -0.1770 -0.0563
 1847TIP3    H227033   4.934   6.315   6.612 -0.8547  0.5908 -1.6041
 1848TIP3   OH227034   5.278   4.969   3.011  0.2736 -0.3922 -0.3679
 1848TIP3    H127035   5.257   5.035   3.077  1.3379  1.1049 -1.4625
 1848TIP3    H227036   5.198   4.919   2.999 -0.5240  0.6489  0.5695
 1849TIP3   OH227037   1.828   6.162  14.316 -0.3272  0.1439 -0.1480
 1849TIP3    H127038   1.831   6.236  14.377  0.5167 -0.3095  0.3603
 1849TIP3    H227039   1.735   6.142  14.308 -0.7215  2.3134 -1.5748
 1850TIP3   OH227040   4.027   0.737  14.939 -0.3818 -0.2919 -0.1848
 1850TIP3    H127041   4.065   0.729  15.026 -1.7136 -0.0494  0.4301
 1850TIP3    H227042   4.040   0.829  14.915  1.5179 -0.7302 -0.9875
 1851TIP3   OH227043   2.321   2.382   0.645 -0.4899  0.6951  0.0581
 1851TIP3    H127044   2.392   2.445   0.637  0.6622 -0.5364  0.5526
 1851TIP3    H227045   2.304   2.377   0.739 -1.8253  1.6227 -0.1144
 1852TIP3   OH227046   4.129   1.547   2.309 -0.0935 -0.2237  0.3984
 1852TIP3    H127047   4.139   1.506   2.223 -0.2160 -0.4792  0.5057
 1852TIP3    H227048   4.035   1.558   2.320 -0.0554  0.2046  0.3166
 1853TIP3   OH227049   3.837   3.897   1.923 -0.2316  0.1522 -0.4819
 1853TIP3    H127050   3.779   3.873   1.851 -1.7449 -0.2019  0.8329
 1853TIP3    H227051   3.925   3.897   1.884 -1.0955  0.6317 -2.4628
 1854TIP3   OH227052   3.538   4.211   3.128  0.0139 -0.2204  0.3497
 1854TIP3    H127053   3.576   4.133   3.168  0.1154 -0.1663  0.3584
 1854TIP3    H227054   3.568   4.208   3.037 -2.6039 -1.9185 -0.5321
 1855TIP3   OH227055   2.060   2.929  14.470 -0.0176  0.0844  0.3777
 1855TIP3    H127056   2.130   2.925  14.535  0.2700  0.4935  0.1024
 1855TIP3    H227057   2.105   2.916  14.386 -0.2936  0.1869  0.2141
 1856TIP3   OH227058   5.940   2.191  11.623 -0.6451 -0.2572 -0.0084
 1856TIP3    H127059   5.912   2.213  11.534 -0.9438 -0.4683  0.0335
 1856TIP3    H227060   5.881   2.240  11.680 -0.1416  0.2562  0.0683
 1857TIP3   OH227061   3.624   5.176   5.419  0.2785 -0.3644 -0.3075
 1857TIP3    H127062   3.677   5.130   5.484  1.1795 -0.1781 -0.8925
 1857TIP3    H227063   3.673   5.257   5.403 -0.0352 -0.3324 -1.0848
 1858TIP3   OH227064   2.039   2.648  12.584  0.2822  0.1341 -0.3107
 1858TIP3    H127065   2.081   2.734  12.583 -0.8419  0.6990 -1.3316
 1858TIP3    H227066   1.958   2.662  12.632  1.4679 -1.0647  2.0943
 1859TIP3   OH227067   5.081   1.037  11.105  0.1501 -0.0259  0.5383
 1859TIP3    H127068   5.034   1.120  11.098 -0.5484 -0.4759 -0.2850
 1859TIP3    H227069   5.039   0.991  11.177 -1.2372 -0.7591 -0.6977
 1860TIP3   OH227070   6.482   4.519  15.576  0.5325  0.1743 -0.1526
 1860TIP3    H127071   6.537   4.470  15.637 -1.3638 -0.0551  1.4273
 1860TIP3    H227072   6.398   4.527  15.620 -0.5104  1.1308 -2.2190
 1861TIP3   OH227073   1.810   3.833  12.966 -0.4727  0.6107 -0.0137
 1861TIP3    H127074   1.823   3.902  12.901  0.1613  1.5943  1.1251
 1861TIP3    H227075   1.752   3.770  12.924  0.2175  1.0526 -1.6538
 1862TIP3   OH227076   4.555   4.785  13.837 -0.3536 -0.3328 -0.5055
 1862TIP3    H127077   4.564   4.702  13.883  0.2946  1.0285  1.9295
 1862TIP3    H227078   4.502   4.839  13.896  1.5153  1.8635 -0.7818
 1863TIP3   OH227079   5.696   0.023  13.998  0.2391 -0.0792  0.6490
 1863TIP3    H127080   5.684   0.114  14.024 -3.7497  0.2826 -1.9972
 1863TIP3    H227081   5.607  -0.009  13.981  1.8268 -3.2997 -2.2780
 1864TIP3   OH227082   5.331   4.537   2.320  0.3668  0.2101 -0.0172
 1864TIP3    H127083   5.240   4.517   2.343  0.3347 -0.1771 -0.4712
 1864TIP3    H227084   5.374   4.451   2.317  0.5869  0.3392 -0.4852
 1865TIP3   OH227085   3.688   6.365   4.734 -0.1758  0.1914  0.1205
 1865TIP3    H127086   3.692   6.458   4.757 -1.0446  0.4547 -0.7558
 1865TIP3    H227087   3.620   6.360   4.667 -0.7710 -1.2145  0.8259
 1866TIP3   OH227088   0.357   6.011  10.728 -0.5985 -0.0806 -0.4121
 1866TIP3    H127089   0.274   6.050  10.700 -1.1201 -1.0400 -0.2107
 1866TIP3    H227090   0.406   6.085  10.764 -2.9323 -0.1282  3.1102
 1867TIP3   OH227091   2.631   1.508  11.258  0.0108 -0.0197 -0.4366
 1867TIP3    H127092   2.695   1.467  11.200  0.7992 -0.2490  0.5842
 1867TIP3    H227093   2.550   1.458  11.243  0.5413 -0.9131 -0.3910
 1868TIP3   OH227094   3.903   3.559   5.807 -0.4954  0.3903 -0.2365
 1868TIP3    H127095   3.861   3.478   5.835 -0.4303  0.1587 -0.8129
 1868TIP3    H227096   3.996   3.544   5.819 -0.5188  0.5825  0.1911
 1869TIP3   OH227097   2.026   5.860   0.813 -0.4017  0.6438 -0.2450
 1869TIP3    H127098   2.093   5.853   0.881 -0.3755  0.1410 -0.3197
 1869TIP3    H227099   2.048   5.940   0.765  1.4273 -0.6639 -1.6308
 1870TIP3   OH227100   0.862   3.794   4.397 -0.1448 -0.1507  0.5669
 1870TIP3    H127101   0.794   3.743   4.352 -2.3429  1.6983  1.6988
 1870TIP3    H227102   0.861   3.879   4.354  0.7791  0.2106  1.2493
 1871TIP3   OH227103   6.663   1.075  14.232 -0.3954  0.0010  0.2146
 1871TIP3    H127104   6.743   1.024  14.240  1.0017  2.1679  0.4318
 1871TIP3    H227105   6.615   1.057  14.313  0.4278 -0.3672  0.6219
 1872TIP3   OH227106   3.196   5.572  12.871  0.3690  0.0782 -0.2922
 1872TIP3    H127107   3.280   5.608  12.842 -0.1428  1.1539 -0.4813
 1872TIP3    H227108   3.131   5.633  12.836 -0.3037  0.9974  2.4167
 1873TIP3   OH227109   5.068   3.663  16.481 -0.2234  0.5724 -0.3707
 1873TIP3    H127110   5.093   3.756  16.486 -2.1618  1.1812 -1.3878
 1873TIP3    H227111   5.024   3.654  16.396 -0.3895 -1.1895 -0.1166
 1874TIP3   OH227112   1.271   1.154   5.884  0.1973  0.2703 -0.1279
 1874TIP3    H127113   1.244   1.140   5.974 -1.1728 -1.1613 -0.7240
 1874TIP3    H227114   1.302   1.244   5.881 -1.9875  1.1083  1.2497
 1875TIP3   OH227115   5.816   6.604   5.299 -0.4704  0.1768 -0.3579
 1875TIP3    H127116   5.816   6.617   5.394 -2.5344  0.9016 -0.4305
 1875TIP3    H227117   5.833   6.510   5.287 -0.5257  0.0252  0.7258
 1876TIP3   OH227118   4.055   6.314   4.787  0.4371 -0.3686  0.4754
 1876TIP3    H127119   4.137   6.353   4.757 -0.3768  1.3516  0.4097
 1876TIP3    H227120   4.006   6.388   4.824 -0.9771 -1.4206  0.7259
 1877TIP3   OH227121   6.392   3.218  13.784  0.1863 -0.3734 -0.0307
 1877TIP3    H127122   6.337   3.294  13.801  1.7599  0.6022  0.8082
 1877TIP3    H227123   6.403   3.216  13.689 -2.4441 -1.4297 -0.3569
 1878TIP3   OH227124   1.668   0.069   1.265  0.0081 -0.0807  0.2306
 1878TIP3    H127125   1.615   0.089   1.187 -1.2783 -1.1913  0.8023
 1878TIP3    H227126   1.625   0.117   1.336  0.4139 -0.1054  0.4926
 1879TIP3   OH227127   6.102   1.989   0.093  0.4332 -0.1342  0.4723
 1879TIP3    H127128   6.041   1.968   0.023  0.4674 -1.1118  0.7291
 1879TIP3    H227129   6.048   1.998   0.171  0.5276 -0.2749  0.5561
 1880TIP3   OH227130   4.611   4.390  16.015  0.4150  0.0333  0.4274
 1880TIP3    H127131   4.544   4.452  15.987  0.8187  0.3113  0.0845
 1880TIP3    H227132   4.568   4.305  16.011  0.5757  0.0112 -1.4255
 1881TIP3   OH227133   2.648   5.344   1.758  0.3777 -0.7742 -0.0174
 1881TIP3    H127134   2.707   5.332   1.833  0.1867  0.7430  0.3885
 1881TIP3    H227135   2.706   5.373   1.687 -0.0512  2.3810  0.8355
 1882TIP3   OH227136   2.899   5.927   5.874 -0.6465 -0.0980 -0.1090
 1882TIP3    H127137   2.857   5.916   5.959 -1.2298  0.8508 -0.2677
 1882TIP3    H227138   2.885   6.019   5.852 -0.6182 -0.3645 -1.2862
 1883TIP3   OH227139   4.542   4.434  11.064  0.4783 -0.1256 -0.5266
 1883TIP3    H127140   4.453   4.406  11.086  0.3355  0.4917 -0.3042
 1883TIP3    H227141   4.577   4.362  11.011 -0.6839  0.2974 -1.8949
 1884TIP3   OH227142   2.542   6.774  12.194  0.2176 -0.4946  0.2529
 1884TIP3    H127143   2.618   6.830  12.208  0.4554 -1.0325  1.2232
 1884TIP3    H227144   2.503   6.805  12.113  0.7287  0.6321  0.4317
 1885TIP3   OH227145   4.633   0.655   3.752 -0.2160  0.1907 -0.1293
 1885TIP3    H127146   4.546   0.690   3.734 -0.8947 -0.5715  1.5563
 1885TIP3    H227147   4.670   0.716   3.817  0.8484  0.9783 -1.4380
 1886TIP3   OH227148   1.081   2.614  16.487 -0.5198  0.0657  0.1684
 1886TIP3    H127149   1.001   2.578  16.449 -1.2042  1.4417  0.2833
 1886TIP3    H227150   1.084   2.578  16.576 -0.0808 -1.3646 -0.3966
 1887TIP3   OH227151   5.144   2.996   4.426  0.0838 -0.2987  0.8243
 1887TIP3    H127152   5.085   3.041   4.365 -0.9012 -1.6834  0.7312
 1887TIP3    H227153   5.171   3.064   4.487 -1.7540  0.3405  0.9600
 1888TIP3   OH227154   2.593   4.450   1.729  0.3811 -0.4698  0.3728
 1888TIP3    H127155   2.604   4.524   1.788  0.6961 -0.3000  0.1062
 1888TIP3    H227156   2.639   4.477   1.649  1.5278 -1.4384  0.6894
 1889TIP3   OH227157   0.647   5.041  15.657 -0.0157  0.0672 -0.7167
 1889TIP3    H127158   0.561   5.077  15.636 -0.4883 -1.3659 -1.2983
 1889TIP3    H227159   0.708   5.111  15.636 -1.0107  0.9809 -0.6202
 1890TIP3   OH227160   5.211   2.413   5.867 -0.0320  0.4589  0.0432
 1890TIP3    H127161   5.146   2.348   5.842  0.4463 -0.0627  0.1269
 1890TIP3    H227162   5.244   2.383   5.952 -0.3604  1.2328  0.4477
 1891TIP3   OH227163   6.509   3.414  16.888  0.2191  0.3029 -0.4290
 1891TIP3    H127164   6.418   3.389  16.875  0.3041 -0.9153  1.1176
 1891TIP3    H227165   6.506   3.508  16.905 -0.8742  0.1139  0.5370
 1892TIP3   OH227166   6.292   1.763  10.561  0.2677  0.3950  0.0281
 1892TIP3    H127167   6.231   1.692  10.583 -0.0033  0.6742  0.1730
 1892TIP3    H227168   6.291   1.820  10.638  0.5162  0.5406 -0.0763
 1893TIP3   OH227169   5.895   4.042  10.773 -0.0524 -0.4341  0.2490
 1893TIP3    H127170   5.803   4.024  10.792  0.4539 -0.4579  2.8200
 1893TIP3    H227171   5.929   4.082  10.852  2.0435  0.0731 -0.8597
 1894TIP3   OH227172   1.667   2.694  12.773  0.5883 -0.0603 -0.3276
 1894TIP3    H127173   1.621   2.760  12.721 -0.9437 -1.2634 -0.5405
 1894TIP3    H227174   1.684   2.736  12.857  0.6049  0.9614 -0.8393
 1895TIP3   OH227175   0.898   4.083  17.113  0.3845  0.3573  0.1176
 1895TIP3    H127176   0.915   4.174  17.138  1.5772 -0.2189  1.4751
 1895TIP3    H227177   0.981   4.038  17.129 -0.0817 -0.8945 -0.9111
 1896TIP3   OH227178   4.068   2.794   5.787  0.0576 -0.4208  0.1831
 1896TIP3    H127179   4.059   2.747   5.870  1.0953 -0.5393  0.2355
 1896TIP3    H227180   3.987   2.844   5.779  0.7676  1.1366  2.2382
 1897TIP3   OH227181   2.362   4.283   2.603  0.1813 -0.4447  0.0721
 1897TIP3    H127182   2.290   4.277   2.540  0.5434 -0.9041 -0.2968
 1897TIP3    H227183   2.323   4.325   2.680 -0.1425  0.5765 -0.6351
 1898TIP3   OH227184   5.540   0.508   2.352  0.1157 -0.2541 -0.0325
 1898TIP3    H127185   5.626   0.520   2.393 -0.1532 -0.9254  0.7614
 1898TIP3    H227186   5.559   0.489   2.260  0.6804  2.6300 -0.5397
 1899TIP3   OH227187   2.116   5.289   6.333 -0.6787 -0.1846  1.0808
 1899TIP3    H127188   2.021   5.281   6.332 -0.7902  0.9777  1.4874
 1899TIP3    H227189   2.132   5.382   6.317  0.4788 -0.9135 -2.7156
 1900TIP3   OH227190   4.190   2.711  15.724 -0.0599 -0.1146 -0.2683
 1900TIP3    H127191   4.122   2.748  15.781 -1.0186 -0.4819 -1.1505
 1900TIP3    H227192   4.229   2.641  15.776 -0.2045  0.2495  0.3344
 1901TIP3   OH227193   4.717   4.214   3.588  0.3079 -0.3047  0.3965
 1901TIP3    H127194   4.634   4.168   3.590 -1.1088  2.1256 -0.5245
 1901TIP3    H227195   4.734   4.237   3.680 -1.1678  1.1327  0.3207
 1902TIP3   OH227196   5.938   3.978   0.662 -0.6630 -0.4889  0.0805
 1902TIP3    H127197   5.989   3.951   0.586 -0.7209 -0.6697  0.1044
 1902TIP3    H227198   5.984   4.054   0.697  0.7728 -1.9093  1.3411
 1903TIP3   OH227199   1.101   1.570   5.101  0.8820 -0.3694 -0.4380
 1903TIP3    H127200   1.094   1.477   5.079  1.1508 -0.2742 -0.9319
 1903TIP3    H227201   1.168   1.574   5.168 -0.5812 -0.7715  1.0732
 1904TIP3   OH227202   4.540   6.489   1.132 -0.9351  0.0838  0.3677
 1904TIP3    H127203   4.630   6.464   1.155 -0.8236  1.9680  2.0683
 1904TIP3    H227204   4.499   6.407   1.105  0.5159 -1.2491  2.1099
 1905TIP3   OH227205   1.081   2.970   4.448  0.3334  0.6227  0.3757
 1905TIP3    H127206   0.989   2.957   4.426  0.8314 -1.0979 -0.7989
 1905TIP3    H227207   1.096   3.064   4.438 -0.7278  0.5961 -1.6568
 1906TIP3   OH227208   2.976   4.884  16.379  0.3800  0.4840  0.8184
 1906TIP3    H127209   2.908   4.951  16.364  0.7695  0.5455 -0.7332
 1906TIP3    H227210   2.971   4.827  16.303  2.7923  1.1118  0.1317
 1907TIP3   OH227211   0.154   0.795  11.683 -0.0735  0.1700  0.3077
 1907TIP3    H127212   0.219   0.862  11.704 -0.0412 -0.2011  1.4382
 1907TIP3    H227213   0.158   0.786  11.588  0.1548  1.5293  0.1816
 1908TIP3   OH227214   2.318   3.878   5.153  0.6017 -0.2519  0.5594
 1908TIP3    H127215   2.282   3.936   5.086 -1.0113 -0.7318  0.9857
 1908TIP3    H227216   2.406   3.858   5.123  0.4686  0.8456 -0.5854
 1909TIP3   OH227217   3.606   2.222  16.303  0.3404  0.5989 -0.5704
 1909TIP3    H127218   3.609   2.289  16.234 -0.6623 -0.1504 -1.3597
 1909TIP3    H227219   3.696   2.192  16.311  0.3088 -0.0964 -2.3757
 1910TIP3   OH227220   3.263   0.675  12.985 -0.4217 -0.3143 -0.4655
 1910TIP3    H127221   3.186   0.723  13.017 -1.7261 -2.5479 -0.2042
 1910TIP3    H227222   3.315   0.742  12.941 -3.0677  1.0594 -1.6689
 1911TIP3   OH227223   4.072   4.904  11.919 -0.5816  0.3472  0.2203
 1911TIP3    H127224   4.003   4.932  11.858 -1.2257  0.1965  0.8813
 1911TIP3    H227225   4.102   4.986  11.959  0.1034  0.4912 -0.5586
 1912TIP3   OH227226   4.917   1.351  11.336  0.0670  0.2493 -0.5425
 1912TIP3    H127227   4.946   1.304  11.258 -1.9135 -2.1488  0.0797
 1912TIP3    H227228   4.997   1.361  11.389  0.8390 -0.9078 -1.4664
 1913TIP3   OH227229   2.268   2.913  16.930 -0.2698 -0.1131  0.1066
 1913TIP3    H127230   2.302   2.942  16.846 -0.7752  0.7788  0.2020
 1913TIP3    H227231   2.179   2.884  16.912 -0.6123  0.7037  0.4392
 1914TIP3   OH227232   0.484   1.914  13.322 -0.3519  0.4905 -0.7054
 1914TIP3    H127233   0.542   1.978  13.281 -0.7489  0.9152 -0.6092
 1914TIP3    H227234   0.450   1.861  13.250  0.6150 -0.1459 -0.7019
 1915TIP3   OH227235   4.641   0.125   0.225 -0.1506 -0.2555 -0.1586
 1915TIP3    H127236   4.709   0.164   0.280  0.0024  0.2493 -0.7022
 1915TIP3    H227237   4.569   0.188   0.230 -0.0970 -0.1557 -0.6214
 1916TIP3   OH227238   2.968   5.582  13.502  0.5014  0.1519 -0.5269
 1916TIP3    H127239   3.046   5.605  13.553 -0.9832  3.1658  0.4990
 1916TIP3    H227240   2.916   5.527  13.560 -0.2878  2.0014  0.5531
 1917TIP3   OH227241   1.617   0.141  15.715 -0.3468  0.3333  0.5168
 1917TIP3    H127242   1.686   0.150  15.780 -0.3533 -0.0436  0.5809
 1917TIP3    H227243   1.557   0.077  15.753 -0.0840 -0.2757 -0.0748
 1918TIP3   OH227244   4.259   1.451   3.706  0.5450 -0.3756  0.3518
 1918TIP3    H127245   4.189   1.443   3.771 -1.6981 -0.9528 -2.0487
 1918TIP3    H227246   4.296   1.538   3.722 -1.5438  0.4676  0.8883
 1919TIP3   OH227247   6.164   0.509  11.933  0.3394  0.2810  0.1479
 1919TIP3    H127248   6.197   0.468  11.854 -1.0337 -3.0836  1.2209
 1919TIP3    H227249   6.084   0.554  11.906 -1.9702 -3.6682  0.1674
 1920TIP3   OH227250   6.770   1.093   1.778 -0.3105  0.5113  0.1560
 1920TIP3    H127251   6.685   1.057   1.752 -0.0921  0.2061 -0.1316
 1920TIP3    H227252   6.774   1.178   1.733 -0.0758  0.1291 -0.5487
 1921TIP3   OH227253   1.303   1.153  13.070 -0.1046  0.2061  0.3697
 1921TIP3    H127254   1.361   1.096  13.121 -0.4228 -2.1653 -1.8032
 1921TIP3    H227255   1.240   1.187  13.134  0.4175 -1.4814  1.8152
 1922TIP3   OH227256   3.612   5.833   1.363  0.2337  0.1667  0.2161
 1922TIP3    H127257   3.686   5.841   1.423  0.2464  0.7489  0.1252
 1922TIP3    H227258   3.541   5.800   1.417 -0.5603  3.3362  1.2110
 1923TIP3   OH227259   4.409   5.260  15.420  0.0170  0.0015  0.1361
 1923TIP3    H127260   4.427   5.250  15.326  0.2821 -0.8392  0.2812
 1923TIP3    H227261   4.326   5.307  15.423 -0.1087 -0.1767 -0.5251
 1924TIP3   OH227262   4.014   5.994  14.449 -0.3001  0.1285  0.4041
 1924TIP3    H127263   4.045   6.023  14.363  0.2655  0.6421  0.7807
 1924TIP3    H227264   4.088   6.008  14.507 -1.3457  1.7023  1.3891
 1925TIP3   OH227265   6.659   4.939  13.636 -0.1502  0.3577  0.4342
 1925TIP3    H127266   6.674   5.019  13.685  0.5364  0.1707  0.5297
 1925TIP3    H227267   6.676   4.868  13.698  2.4895  0.0821 -0.5165
 1926TIP3   OH227268   1.465   5.058   6.620 -0.0171 -0.3784  0.5418
 1926TIP3    H127269   1.491   4.968   6.639 -2.2410 -0.9476  0.9501
 1926TIP3    H227270   1.460   5.061   6.525 -0.9737 -0.9841  0.5698
 1927TIP3   OH227271   0.560   5.999   6.336 -0.3331 -0.2513 -0.1842
 1927TIP3    H127272   0.582   5.917   6.292 -0.3216 -0.3857  0.0691
 1927TIP3    H227273   0.484   6.033   6.288 -0.4109 -0.4702 -0.2174
 1928TIP3   OH227274   6.728   0.412   4.946  0.0767  0.6139  0.5251
 1928TIP3    H127275   6.679   0.483   4.986  0.2475  1.0653 -0.0717
 1928TIP3    H227276   6.717   0.424   4.852 -0.2948 -0.4235  0.4236
 1929TIP3   OH227277   0.593   1.699   3.178  0.3035  0.3768  0.3283
 1929TIP3    H127278   0.659   1.767   3.188 -0.6648  1.1223  1.7009
 1929TIP3    H227279   0.510   1.743   3.192 -0.3625 -1.0230  0.8858
 1930TIP3   OH227280   5.530   4.205   4.615 -0.3024 -0.1862 -0.3884
 1930TIP3    H127281   5.584   4.164   4.682 -0.5365 -0.6589 -0.4883
 1930TIP3    H227282   5.579   4.191   4.534 -0.4121 -0.3208 -0.4312
 1931TIP3   OH227283   5.842   0.342  14.758  0.6028 -0.1043 -0.0665
 1931TIP3    H127284   5.840   0.386  14.673 -2.4717 -0.1839 -0.0796
 1931TIP3    H227285   5.824   0.251  14.739  2.2888 -0.5744  0.4642
 1932TIP3   OH227286   0.312   4.954   2.477  0.3342 -0.2913  0.9505
 1932TIP3    H127287   0.354   4.894   2.539 -1.2528 -2.0979  0.3286
 1932TIP3    H227288   0.315   4.908   2.393 -1.9059 -0.0323  0.6873
 1933TIP3   OH227289   1.164   2.930  13.479  0.2411 -0.0994  0.5775
 1933TIP3    H127290   1.153   2.895  13.391  3.8596 -0.9549  0.4137
 1933TIP3    H227291   1.135   3.021  13.472 -1.4123 -0.7081 -0.9585
 1934TIP3   OH227292   5.610   5.331  10.588 -0.2780 -0.1207  0.4570
 1934TIP3    H127293   5.540   5.355  10.649  0.7424  0.6731  1.3341
 1934TIP3    H227294   5.635   5.413  10.546 -1.7496 -0.8310 -1.9091
 1935TIP3   OH227295   3.411   0.160  11.414  0.3085 -0.5261 -0.0570
 1935TIP3    H127296   3.406   0.214  11.335  0.0942  0.8671  0.8847
 1935TIP3    H227297   3.485   0.197  11.463  0.2245 -1.1644  0.5534
 1936TIP3   OH227298   0.592   5.744   5.440  0.2975 -0.0023 -0.3190
 1936TIP3    H127299   0.599   5.671   5.502  0.9990 -1.3472 -1.9581
 1936TIP3    H227300   0.517   5.795   5.472  0.9363 -0.3817  1.9033
 1937TIP3   OH227301   3.571   6.009  17.242  0.1145 -0.1274 -0.4454
 1937TIP3    H127302   3.610   5.947  17.304  0.2822  0.6531  0.2299
 1937TIP3    H227303   3.481   5.979  17.232  1.0908 -2.5418 -2.7701
 1938TIP3   OH227304   6.402   4.894   1.470  0.3426 -0.4249  0.7381
 1938TIP3    H127305   6.343   4.821   1.450  0.7518 -0.9083  1.2832
 1938TIP3    H227306   6.455   4.862   1.543  0.2280  0.5821  1.2596
 1939TIP3   OH227307   5.774   6.673  12.176 -0.0237  0.0539 -0.1024
 1939TIP3    H127308   5.760   6.601  12.236  2.4139  1.0032  1.6829
 1939TIP3    H227309   5.755   6.752  12.227 -2.4225  0.7555 -1.9429
 1940TIP3   OH227310   1.810   3.555   5.506  0.3687 -0.2069  0.0324
 1940TIP3    H127311   1.843   3.549   5.417  1.9739 -0.3214  0.6165
 1940TIP3    H227312   1.831   3.644   5.533 -2.6603  0.7717 -0.6570
 1941TIP3   OH227313   0.453   2.590  16.479  0.4924  0.4411 -0.4122
 1941TIP3    H127314   0.480   2.556  16.564 -0.7749 -0.1037 -0.2124
 1941TIP3    H227315   0.479   2.681  16.479  3.1633 -0.2896 -0.5955
 1942TIP3   OH227316   3.210   6.618   1.122 -0.7662  0.0397 -0.1137
 1942TIP3    H127317   3.179   6.709   1.121 -0.7501  0.0416 -1.3093
 1942TIP3    H227318   3.298   6.622   1.086 -1.5618 -0.7170 -2.1981
 1943TIP3   OH227319   0.768   0.761  13.935 -0.4444 -0.7769 -0.4954
 1943TIP3    H127320   0.696   0.804  13.889 -1.6266 -0.7232  1.3665
 1943TIP3    H227321   0.826   0.833  13.960  0.8047 -0.9044 -2.8290
 1944TIP3   OH227322   4.890   0.622  16.637 -0.0496  0.2613 -0.2200
 1944TIP3    H127323   4.968   0.678  16.627 -0.3484  0.7818  0.3118
 1944TIP3    H227324   4.823   0.681  16.672 -1.0444  0.1001 -1.8427
 1945TIP3   OH227325   6.172   6.078   5.931  0.1921  0.5259  0.4445
 1945TIP3    H127326   6.192   6.006   5.992 -0.6014 -1.0970 -1.1415
 1945TIP3    H227327   6.104   6.128   5.975 -1.2945 -1.3707  0.3986
 1946TIP3   OH227328   2.749   4.873   4.471 -0.4260 -0.2004 -0.0602
 1946TIP3    H127329   2.733   4.945   4.532 -0.9841  0.8642 -1.4224
 1946TIP3    H227330   2.703   4.899   4.391  1.8019 -0.6707 -1.5634
 1947TIP3   OH227331   3.152   6.413   3.245  0.2378 -0.6509  0.5353
 1947TIP3    H127332   3.175   6.326   3.276  2.0655 -0.6326 -0.6439
 1947TIP3    H227333   3.180   6.414   3.153 -1.4511  0.5709 -0.0048
 1948TIP3   OH227334   4.619   5.447  10.412  0.3531 -0.0725 -0.4418
 1948TIP3    H127335   4.548   5.402  10.367 -1.2053  2.7703 -0.9316
 1948TIP3    H227336   4.669   5.377  10.454 -2.5318 -2.1640 -0.3339
 1949TIP3   OH227337   1.715   6.525   5.952 -0.0357  0.9323 -0.2406
 1949TIP3    H127338   1.763   6.572   6.021 -0.3862  1.4768 -0.3713
 1949TIP3    H227339   1.735   6.433   5.969  0.9023  1.1405 -0.1724
 1950TIP3   OH227340   5.838   2.056   4.557  0.3291 -0.4866 -0.3475
 1950TIP3    H127341   5.818   1.963   4.570 -1.5638 -0.0173  0.2842
 1950TIP3    H227342   5.758   2.101   4.584  1.2044  1.3250 -0.7385
 1951TIP3   OH227343   0.290   1.603   1.618  0.3025 -0.3135  0.2750
 1951TIP3    H127344   0.338   1.668   1.669 -0.7396  0.3710  0.4081
 1951TIP3    H227345   0.234   1.655   1.561 -1.9735 -1.0776  1.7456
 1952TIP3   OH227346   0.552   2.540   5.493 -0.4525 -0.0245 -0.5171
 1952TIP3    H127347   0.619   2.606   5.476 -1.0689  1.0052  0.9937
 1952TIP3    H227348   0.577   2.466   5.437  1.0531  0.9299 -1.1396
 1953TIP3   OH227349   4.951   3.955  15.707  0.3884  0.1033  0.0567
 1953TIP3    H127350   4.915   3.893  15.770  0.4390 -0.2701 -0.2752
 1953TIP3    H227351   4.878   4.012  15.683  0.6743  1.0440  1.3948
 1954TIP3   OH227352   1.182   2.082   2.015 -0.4801 -0.1525  0.4469
 1954TIP3    H127353   1.194   2.034   1.933  0.9409 -0.2152  0.6719
 1954TIP3    H227354   1.168   2.013   2.081  0.4262 -0.2207  0.5814
 1955TIP3   OH227355   2.474   5.532   1.870 -0.2487  0.0794  0.4320
 1955TIP3    H127356   2.528   5.457   1.846  0.3772  0.9230 -0.8184
 1955TIP3    H227357   2.421   5.500   1.944  0.8571 -1.2160  0.6920
 1956TIP3   OH227358   3.431   3.679   5.330  0.1399  0.1278  0.4797
 1956TIP3    H127359   3.480   3.686   5.248 -0.6411  0.4028  0.0322
 1956TIP3    H227360   3.457   3.757   5.380  0.3534  0.1400  0.3495
 1957TIP3   OH227361   6.061   4.265   0.700  0.0517  0.2938 -0.5884
 1957TIP3    H127362   6.118   4.299   0.630  0.3204  0.6282 -0.2055
 1957TIP3    H227363   6.045   4.340   0.756  1.1761 -0.3670  0.6268
 1958TIP3   OH227364   0.642   4.348  15.926 -0.3555 -0.5784  0.0362
 1958TIP3    H127365   0.719   4.389  15.888 -0.0553  0.2352  1.4976
 1958TIP3    H227366   0.568   4.390  15.882 -0.0358  1.1213  1.0580
 1959TIP3   OH227367   6.074   3.348   3.731  0.6331 -0.2870 -0.4103
 1959TIP3    H127368   6.118   3.330   3.648 -0.3605 -2.0342 -0.5814
 1959TIP3    H227369   6.031   3.265   3.754 -1.3195  0.9458  0.5013
 1960TIP3   OH227370   3.550   2.053  11.754  0.0418  0.5543  0.4624
 1960TIP3    H127371   3.537   2.050  11.660  0.9331  4.3724  0.1297
 1960TIP3    H227372   3.626   1.997  11.771 -1.6915 -2.2436 -0.6767
 1961TIP3   OH227373   1.364   3.065   6.317  0.1999 -0.7219  0.6704
 1961TIP3    H127374   1.308   3.084   6.242 -1.8939 -3.2635  1.5136
 1961TIP3    H227375   1.447   3.106   6.296 -2.2008  4.0233 -0.1942
 1962TIP3   OH227376   5.773   5.926  13.426 -0.4660 -0.3836  0.1119
 1962TIP3    H127377   5.819   6.005  13.398  0.3282 -0.0504  2.1873
 1962TIP3    H227378   5.683   5.954  13.440 -0.5854 -0.2710 -0.8956
 1963TIP3   OH227379   5.170   1.099   0.098  0.4037 -0.0212  0.0373
 1963TIP3    H127380   5.217   1.018   0.076 -1.8808 -1.2335 -0.5643
 1963TIP3    H227381   5.239   1.161   0.120  2.2258 -2.0915  0.3924
 1964TIP3   OH227382   5.301   4.747  17.162  0.2510 -0.2242  0.0984
 1964TIP3    H127383   5.324   4.663  17.123 -2.1719 -1.6178  1.5816
 1964TIP3    H227384   5.263   4.798  17.090 -0.9216 -1.4590 -0.1660
 1965TIP3   OH227385   0.636   0.972   3.422 -0.5744 -0.1802  0.1050
 1965TIP3    H127386   0.666   1.062   3.408 -2.7904  0.4455 -0.7062
 1965TIP3    H227387   0.541   0.978   3.430 -0.9765 -2.6663 -1.8609
 1966TIP3   OH227388   1.380   4.290  11.901 -0.7243 -0.5430  0.1247
 1966TIP3    H127389   1.294   4.260  11.871 -0.3142 -0.8906 -0.7361
 1966TIP3    H227390   1.424   4.210  11.931 -0.9631 -0.2636  1.2588
 1967TIP3   OH227391   2.817   5.212  15.095 -0.2761  0.4031  0.5904
 1967TIP3    H127392   2.826   5.247  15.184 -0.8360  1.6636  0.1487
 1967TIP3    H227393   2.849   5.282  15.038 -1.1864  0.1076 -0.2814
 1968TIP3   OH227394   6.133   6.278   4.090  0.7932  0.7736 -0.6195
 1968TIP3    H127395   6.176   6.325   4.161  0.6157 -0.3013  0.2159
 1968TIP3    H227396   6.064   6.338   4.060 -0.9730  0.1475  2.0035
 1969TIP3   OH227397   2.092   2.048  12.269  0.1258 -0.0809 -0.2043
 1969TIP3    H127398   2.095   2.071  12.362  0.6172  0.7058 -0.4088
 1969TIP3    H227399   2.010   2.001  12.258  0.3326 -0.6829  0.7447
 1970TIP3   OH227400   2.884   3.301   4.404 -0.2657 -0.0321  0.1583
 1970TIP3    H127401   2.824   3.354   4.352 -1.0899  0.3546  1.5021
 1970TIP3    H227402   2.904   3.354   4.481  0.0367 -1.0709  0.8106
 1971TIP3   OH227403   0.762   3.995   4.840  0.2996 -0.1371 -0.2425
 1971TIP3    H127404   0.851   3.986   4.804  1.0115  1.7226  0.9775
 1971TIP3    H227405   0.723   3.908   4.830  2.1786 -0.9241 -0.9866
 1972TIP3   OH227406   2.917   3.880   0.603 -0.1483 -0.5070  0.1656
 1972TIP3    H127407   2.917   3.820   0.529  1.0955 -0.8744  0.4576
 1972TIP3    H227408   2.892   3.826   0.678 -4.9687  0.5665 -0.4906
 1973TIP3   OH227409   1.546   3.152   4.023  0.2482  0.5256 -0.1925
 1973TIP3    H127410   1.615   3.188   4.078 -0.5036  0.4696  0.8038
 1973TIP3    H227411   1.465   3.185   4.061 -0.2634  0.8347 -1.5302
 1974TIP3   OH227412   6.364   3.497  16.234  0.0428 -0.2224  0.4824
 1974TIP3    H127413   6.279   3.506  16.190 -0.5275  0.4468  1.6897
 1974TIP3    H227414   6.415   3.442  16.175 -0.0827  2.1083 -1.9136
 1975TIP3   OH227415   5.525   4.684  12.730 -0.1161  0.1710 -0.7150
 1975TIP3    H127416   5.585   4.757  12.716  1.1480 -0.4306  1.2771
 1975TIP3    H227417   5.470   4.712  12.803  1.8372 -1.6589  1.5636
 1976TIP3   OH227418   3.924   5.796  16.443  0.2974 -0.1240 -0.8812
 1976TIP3    H127419   3.935   5.891  16.433 -0.9317  0.5482  3.1857
 1976TIP3    H227420   3.924   5.782  16.538 -1.2736 -3.9972 -1.3723
 1977TIP3   OH227421   2.077   5.580   1.643 -0.0462 -0.4624  0.2236
 1977TIP3    H127422   2.036   5.630   1.573 -1.2931  0.2050  1.4120
 1977TIP3    H227423   2.171   5.594   1.630 -0.3318  1.1133 -0.2628
 1978TIP3   OH227424   2.531   4.689  13.663  0.8874 -0.2787  0.6556
 1978TIP3    H127425   2.547   4.704  13.570  2.1075  1.8823  1.1812
 1978TIP3    H227426   2.535   4.594  13.674  0.0222 -0.5915 -1.6051
 1979TIP3   OH227427   0.549   2.825  14.293  1.4320  0.1332 -0.2348
 1979TIP3    H127428   0.610   2.899  14.297  1.2416  0.2918 -0.2179
 1979TIP3    H227429   0.502   2.837  14.210  0.2582  0.9488  0.5295
 1980TIP3   OH227430   1.941   5.326   3.716 -0.2086 -0.5204 -0.2031
 1980TIP3    H127431   1.848   5.345   3.705  0.5110  2.5668 -1.3126
 1980TIP3    H227432   1.982   5.355   3.635  1.9082 -0.5120  0.8351
 1981TIP3   OH227433   4.437   0.200   4.234  0.1314 -0.0284  0.0009
 1981TIP3    H127434   4.469   0.285   4.261 -1.1179  0.7007 -0.7645
 1981TIP3    H227435   4.416   0.210   4.141  2.3027 -1.8615 -0.7470
 1982TIP3   OH227436   5.951   1.825  10.689  0.0930  0.6017  0.2263
 1982TIP3    H127437   5.874   1.882  10.685  1.0321  1.7818 -2.2400
 1982TIP3    H227438   6.012   1.872  10.745  0.1683  1.1554 -0.3135
 1983TIP3   OH227439   1.488   6.191   5.202 -0.0710  0.3210  0.9869
 1983TIP3    H127440   1.521   6.237   5.124 -0.1098 -0.8450  0.2645
 1983TIP3    H227441   1.526   6.238   5.276  3.0281 -0.7817  0.1929
 1984TIP3   OH227442   3.987   0.387   1.598 -0.3049 -0.2095 -0.3374
 1984TIP3    H127443   3.954   0.448   1.664 -2.1162 -1.2282 -0.2620
 1984TIP3    H227444   3.919   0.320   1.591  1.1921 -1.6923 -1.1334
 1985TIP3   OH227445   3.170   2.339   1.536  0.1758  0.3769  0.4954
 1985TIP3    H127446   3.079   2.361   1.554  0.5265  0.9263  1.5714
 1985TIP3    H227447   3.187   2.377   1.449 -1.2941 -1.7100 -0.7595
 1986TIP3   OH227448   1.531   6.741  14.874 -0.0141 -0.0093 -0.0912
 1986TIP3    H127449   1.531   6.835  14.888 -1.1238  0.0035 -0.1507
 1986TIP3    H227450   1.446   6.712  14.905  0.3181 -0.9939 -0.0811
 1987TIP3   OH227451   1.953   0.159   0.058  0.3455  0.0157 -0.6282
 1987TIP3    H127452   1.962   0.252   0.077  0.2245  0.0469 -0.7231
 1987TIP3    H227453   1.993   0.115   0.133 -0.7028  0.1319  0.0013
 1988TIP3   OH227454   2.070   0.776  14.839 -0.0072  0.0611 -0.4434
 1988TIP3    H127455   2.154   0.745  14.871 -0.0989 -0.4138 -0.6526
 1988TIP3    H227456   2.061   0.864  14.875  0.5395  0.0804 -0.3546
 1989TIP3   OH227457   4.362   0.693  16.729 -0.7050 -0.2931  0.7899
 1989TIP3    H127458   4.335   0.620  16.673  2.5032  0.1002 -1.3743
 1989TIP3    H227459   4.454   0.677  16.747 -0.5346  2.0471  2.1361
 1990TIP3   OH227460   4.777   2.794  12.956 -0.3921  0.2095  0.3710
 1990TIP3    H127461   4.871   2.799  12.974 -0.3084 -1.3282  0.4527
 1990TIP3    H227462   4.771   2.732  12.883 -1.4254 -0.4467  1.0157
 1991TIP3   OH227463   5.254   5.595  16.673 -0.7175 -0.3285  0.4390
 1991TIP3    H127464   5.181   5.553  16.717  0.4122 -0.3134  2.4042
 1991TIP3    H227465   5.286   5.531  16.610 -1.6674 -0.7744  0.4148
 1992TIP3   OH227466   0.548   2.987   1.366  1.2052  0.4112  0.2649
 1992TIP3    H127467   0.484   2.915   1.373  0.9743  0.6190  0.3013
 1992TIP3    H227468   0.624   2.947   1.323  0.2313  0.6834 -1.7903
 1993TIP3   OH227469   0.454   3.911  11.137  0.1021  0.4262  0.3136
 1993TIP3    H127470   0.532   3.885  11.089 -0.5514  0.2130 -0.6578
 1993TIP3    H227471   0.480   3.908  11.229  0.6921 -1.5128  0.1060
 1994TIP3   OH227472   0.999   5.561   0.090 -0.1430 -0.2307  0.1982
 1994TIP3    H127473   1.089   5.555   0.122 -0.1289 -1.8062 -0.1179
 1994TIP3    H227474   0.957   5.481   0.122 -0.8595 -0.5129 -1.4263
 1995TIP3   OH227475   1.202   3.032   1.900  0.2024 -0.0038  0.6415
 1995TIP3    H127476   1.262   2.979   1.848  1.0775  0.6967  0.9468
 1995TIP3    H227477   1.254   3.064   1.973 -0.7667 -0.1315  1.3972
 1996TIP3   OH227478   0.223   4.436  13.942 -0.5093  0.2770 -0.2054
 1996TIP3    H127479   0.244   4.439  13.849 -2.7076  0.7502 -0.7142
 1996TIP3    H227480   0.180   4.351  13.954  1.2776 -0.5249  0.7344
 1997TIP3   OH227481   0.715   0.936   2.679  0.4076  0.4965 -0.5006
 1997TIP3    H127482   0.693   1.024   2.651  2.1182  0.9542 -0.4547
 1997TIP3    H227483   0.722   0.886   2.598  0.2107  0.5864 -0.5725
 1998TIP3   OH227484   3.324   2.274   3.901  0.0379  0.5770  0.3609
 1998TIP3    H127485   3.382   2.350   3.901  0.0613  0.5690  1.5279
 1998TIP3    H227486   3.320   2.247   3.993 -1.2395  0.1450  0.1845
 1999TIP3   OH227487   2.645   1.604   5.531  0.5041 -0.0542  0.1736
 1999TIP3    H127488   2.693   1.570   5.456  1.6747  1.6141  0.1433
 1999TIP3    H227489   2.710   1.609   5.601 -0.4339 -1.0251  1.1464
 2000TIP3   OH227490   5.818   5.563   0.227  0.5643 -0.0391  0.1244
 2000TIP3    H127491   5.878   5.634   0.203  0.5963 -0.2433 -0.4080
 2000TIP3    H227492   5.858   5.523   0.304  1.5342 -0.6800 -0.6922
 2001TIP3   OH227493   1.472   2.525   1.588 -0.0707  0.0588  0.0720
 2001TIP3    H127494   1.558   2.490   1.568 -0.2622 -0.6894  0.5495
 2001TIP3    H227495   1.475   2.545   1.681 -0.4778 -0.1579  0.1334
 2002TIP3   OH227496   1.394   1.088  13.429 -0.1908  0.6238  0.3378
 2002TIP3    H127497   1.431   1.176  13.422  0.4256  0.5349  2.2425
 2002TIP3    H227498   1.445   1.046  13.498 -1.2611 -0.8404  0.2599
 2003TIP3   OH227499   4.106   3.606  16.759 -0.1052  0.5419 -0.6639
 2003TIP3    H127500   4.051   3.642  16.689 -0.4040  0.6997 -0.3483
 2003TIP3    H227501   4.091   3.512  16.754  1.1386  0.3941 -1.8868
 2004TIP3   OH227502   1.315   6.476  12.007 -0.2143  0.5462  0.5572
 2004TIP3    H127503   1.289   6.557  12.051 -0.9637  0.7464 -0.2378
 2004TIP3    H227504   1.250   6.412  12.035 -1.4620  0.9799 -1.2113
 2005TIP3   OH227505   2.940   2.647   3.336  0.4657 -0.0681  0.4764
 2005TIP3    H127506   2.859   2.620   3.378 -0.4470  0.3514 -0.9985
 2005TIP3    H227507   3.003   2.578   3.359 -1.0436 -1.8951 -0.6966
 2006TIP3   OH227508   1.062   3.580  17.265  0.3793 -0.1850  0.2766
 2006TIP3    H127509   1.012   3.518  17.318  1.2642 -1.2503 -0.1304
 2006TIP3    H227510   1.036   3.561  17.175  0.6802  0.0083  0.1488
 2007TIP3   OH227511   4.553   5.530   2.552 -0.1778  0.3656 -0.4706
 2007TIP3    H127512   4.512   5.491   2.629  0.6409  0.0383 -0.2009
 2007TIP3    H227513   4.609   5.460   2.517  0.7132  1.0470 -0.4148
 2008TIP3   OH227514   2.219   3.077  13.617  0.2888 -0.4822  0.2886
 2008TIP3    H127515   2.132   3.092  13.582  1.2282  0.7071 -1.6050
 2008TIP3    H227516   2.233   3.150  13.678  1.0990  1.0617 -1.6775
 2009TIP3   OH227517   2.362   6.818   5.388  0.3441 -0.0678 -0.1356
 2009TIP3    H127518   2.317   6.900   5.366  0.6364 -0.2582 -1.4508
 2009TIP3    H227519   2.451   6.829   5.355  0.3657 -0.9449 -0.3911
 2010TIP3   OH227520   3.563   0.740   0.511 -0.1146  0.4322 -0.2535
 2010TIP3    H127521   3.551   0.834   0.521 -2.0264  0.4225 -2.2583
 2010TIP3    H227522   3.489   0.701   0.558  0.3293 -0.0667  0.0382
 2011TIP3   OH227523   5.995   1.522  16.007  0.3013  0.6662 -0.0778
 2011TIP3    H127524   5.931   1.586  15.975  0.4927  0.6910 -0.4089
 2011TIP3    H227525   5.978   1.444  15.955 -0.2842  0.2705  0.6924
 2012TIP3   OH227526   5.899   4.406  14.497 -0.2787  0.2373 -0.0245
 2012TIP3    H127527   5.822   4.425  14.443 -0.8777 -1.8348  0.0851
 2012TIP3    H227528   5.874   4.435  14.585 -0.3490  0.9950 -0.2876
 2013TIP3   OH227529   2.751   2.974  11.567  0.3872 -0.0624 -0.5503
 2013TIP3    H127530   2.826   2.957  11.624  0.3238 -0.7052 -0.6557
 2013TIP3    H227531   2.713   3.055  11.601  1.2292  0.3591 -0.6028
 2014TIP3   OH227532   2.083   5.144  13.383  0.2610 -0.3059 -0.0457
 2014TIP3    H127533   2.160   5.089  13.371  0.4282  0.0577 -0.6147
 2014TIP3    H227534   2.048   5.117  13.468  2.1133  0.8740  1.1273
 2015TIP3   OH227535   4.652   6.350  11.732  0.0237  0.1811 -0.0567
 2015TIP3    H127536   4.739   6.374  11.700 -0.4276 -0.1030 -1.5409
 2015TIP3    H227537   4.636   6.264  11.694 -0.2633 -0.4694  1.5063
 2016TIP3   OH227538   4.306   1.025   5.351 -0.6157  0.4125 -0.2466
 2016TIP3    H127539   4.374   1.055   5.411 -0.6074 -2.0305  1.0392
 2016TIP3    H227540   4.284   1.102   5.299  2.3175  1.5278  0.0755
 2017TIP3   OH227541   1.166   1.728   0.063  0.0810 -0.1191  0.4609
 2017TIP3    H127542   1.152   1.736  -0.032  2.0618  1.6706  0.2918
 2017TIP3    H227543   1.158   1.634   0.080 -1.5128 -0.3371 -1.2576
 2018TIP3   OH227544   2.733   1.265  16.485 -0.2876  0.9268 -0.2944
 2018TIP3    H127545   2.787   1.190  16.510 -1.4537 -0.1653 -0.9935
 2018TIP3    H227546   2.794   1.327  16.445  0.4314 -0.2975 -1.1169
 2019TIP3   OH227547   2.849   3.092  14.413  0.1769 -0.1943  0.1979
 2019TIP3    H127548   2.915   3.151  14.448 -0.6395  0.4532  0.6443
 2019TIP3    H227549   2.785   3.083  14.484 -0.2362 -0.7866 -0.2489
 2020TIP3   OH227550   1.236   5.883   3.089  0.2241  0.3838  0.0683
 2020TIP3    H127551   1.240   5.889   2.993  0.2943 -0.1209  0.0418
 2020TIP3    H227552   1.314   5.929   3.119  0.1048  0.7053 -0.1121
 2021TIP3   OH227553   2.957   2.407  15.847 -0.4733  0.7041 -0.6465
 2021TIP3    H127554   3.049   2.419  15.827  0.1091  0.5662  1.7755
 2021TIP3    H227555   2.949   2.434  15.939 -2.0000 -3.1918  0.4481
 2022TIP3   OH227556   5.238   6.732   5.484 -0.0243 -0.4191 -0.0168
 2022TIP3    H127557   5.211   6.722   5.393 -0.0606 -1.6523  0.1267
 2022TIP3    H227558   5.247   6.643   5.517 -1.1522  0.0098  1.5301
 2023TIP3   OH227559   0.291   1.007  11.546  0.3363 -0.2604 -0.3470
 2023TIP3    H127560   0.259   0.979  11.460  0.6776  1.5931 -1.0977
 2023TIP3    H227561   0.266   1.099  11.552  3.3324  0.5923  0.0806
 2024TIP3   OH227562   5.001   4.116   5.101 -0.5002 -0.2620 -0.1858
 2024TIP3    H127563   4.988   4.194   5.154 -0.9167 -0.4350 -0.0339
 2024TIP3    H227564   5.005   4.149   5.011 -0.5693 -0.0553 -0.1125
 2025TIP3   OH227565   2.423   6.588   0.064 -0.0359 -0.1055  0.5596
 2025TIP3    H127566   2.352   6.589   0.128  1.2177 -0.4373  1.9920
 2025TIP3    H227567   2.460   6.676   0.066 -1.1052  0.3949 -1.0031
 2026TIP3   OH227568   4.094   5.530  12.055 -0.3936  0.8507 -0.6487
 2026TIP3    H127569   4.156   5.485  12.112  0.7940  0.5163 -2.1683
 2026TIP3    H227570   4.056   5.598  12.111  1.7876  1.4473  0.1656
 2027TIP3   OH227571   2.290   6.030   3.795  0.7624 -0.2268  0.1656
 2027TIP3    H127572   2.212   6.000   3.749 -0.3802  1.5179  0.9302
 2027TIP3    H227573   2.333   5.949   3.823 -0.5081 -1.2215 -0.6783
 2028TIP3   OH227574   0.774   6.276   1.621  0.5223  0.6149 -0.0985
 2028TIP3    H127575   0.718   6.213   1.666  0.9528 -0.6584 -1.3250
 2028TIP3    H227576   0.714   6.346   1.594 -0.1440  0.1667  0.2189
 2029TIP3   OH227577   1.260   0.000   6.466 -0.1691  0.1735  0.1425
 2029TIP3    H127578   1.183   0.039   6.424 -0.6445 -1.4759 -0.5448
 2029TIP3    H227579   1.331   0.062   6.447 -1.4543  2.1196  1.4708
 2030TIP3   OH227580   3.461   6.617  13.354  0.1375 -0.4597 -0.3433
 2030TIP3    H127581   3.448   6.711  13.356 -0.2052 -0.5259  0.8060
 2030TIP3    H227582   3.502   6.600  13.269  0.1368  0.7059 -0.5820
 2031TIP3   OH227583   5.166   0.748   4.751 -0.5640 -0.1436 -0.1030
 2031TIP3    H127584   5.163   0.836   4.788 -0.4616  0.0445 -0.5340
 2031TIP3    H227585   5.190   0.762   4.659 -0.2431 -0.6423 -0.0958
 2032TIP3   OH227586   0.055   5.765   2.050  0.2320 -0.9512  0.3872
 2032TIP3    H127587   0.090   5.853   2.038 -0.2924 -0.3987  2.5495
 2032TIP3    H227588   0.032   5.735   1.962  0.0834  1.2168 -0.3322
 2033TIP3   OH227589   4.104   6.582   6.615 -0.4831  0.4976 -0.2440
 2033TIP3    H127590   4.105   6.663   6.667  1.1527  0.5180 -0.3079
 2033TIP3    H227591   4.178   6.589   6.556  0.7415 -1.8055  0.9298
 2034TIP3   OH227592   2.490   2.492   3.444 -0.9184  0.1207 -0.1414
 2034TIP3    H127593   2.463   2.581   3.467  0.8065  0.3963  0.9383
 2034TIP3    H227594   2.543   2.463   3.519  0.3914 -0.9644 -1.4509
 2035TIP3   OH227595   6.024   5.747  17.253 -0.1797  0.3095 -0.0946
 2035TIP3    H127596   5.998   5.668  17.207  1.1600  0.5236 -1.2359
 2035TIP3    H227597   6.089   5.718  17.317 -0.1136  0.3976 -0.1223
 2036TIP3   OH227598   4.800   6.167   4.316 -0.1592 -0.4788  0.4181
 2036TIP3    H127599   4.824   6.075   4.318  0.9044 -0.2007  0.8142
 2036TIP3    H227600   4.883   6.214   4.328 -0.4912  0.5418 -1.0885
 2037TIP3   OH227601   4.766   5.124   1.473 -0.1657  0.4495 -0.0371
 2037TIP3    H127602   4.765   5.214   1.505 -0.0047  0.7991 -1.0017
 2037TIP3    H227603   4.784   5.132   1.379  1.3483 -0.6775  0.1524
 2038TIP3   OH227604   3.245   2.613   2.673  1.1305  0.4415  0.0775
 2038TIP3    H127605   3.193   2.674   2.724  0.5377  1.6517 -1.9403
 2038TIP3    H227606   3.181   2.554   2.633  1.5071  0.3295 -0.3608
 2039TIP3   OH227607   5.028   0.984   2.413  0.1719  0.2985 -0.1267
 2039TIP3    H127608   5.059   1.033   2.489 -0.8009 -0.0613  0.5042
 2039TIP3    H227609   5.053   1.039   2.338 -0.9465  1.8047  0.5780
 2040TIP3   OH227610   3.615   6.128   2.405  0.2627 -0.8626  0.1714
 2040TIP3    H127611   3.683   6.091   2.349  1.4349  0.6814  0.5416
 2040TIP3    H227612   3.556   6.174   2.345  0.5266 -0.7050  0.0348
 2041TIP3   OH227613   5.948   4.172  11.011  0.1561 -0.3746  0.4056
 2041TIP3    H127614   5.999   4.129  11.080  1.3480  0.1650 -0.1112
 2041TIP3    H227615   6.014   4.208  10.952 -0.8219  1.3005  0.3041
 2042TIP3   OH227616   5.729   1.704   3.330  0.5566  0.1637  0.0623
 2042TIP3    H127617   5.762   1.653   3.404  1.4954 -1.6232 -1.5424
 2042TIP3    H227618   5.635   1.688   3.329  0.3752  1.1167  1.5561
 2043TIP3   OH227619   0.260   0.778  16.639  0.4062 -0.4059  0.1683
 2043TIP3    H127620   0.209   0.717  16.692  1.1508 -1.2839 -0.1077
 2043TIP3    H227621   0.314   0.825  16.702 -0.7424  0.5443  0.4650
 2044TIP3   OH227622   1.352   5.400  15.086 -0.6914 -0.2828 -0.4123
 2044TIP3    H127623   1.398   5.471  15.131 -0.5950  0.1272 -1.1304
 2044TIP3    H227624   1.291   5.365  15.150 -1.1390  0.8287 -0.2167
 2045TIP3   OH227625   6.667   0.694  16.218  0.2353 -0.0119 -0.6303
 2045TIP3    H127626   6.678   0.706  16.124 -0.4225  0.9373 -0.5907
 2045TIP3    H227627   6.606   0.763  16.244 -0.9003 -1.3073  0.2042
 2046TIP3   OH227628   5.995   6.245   5.540  0.2068 -0.2434  0.2218
 2046TIP3    H127629   5.952   6.202   5.614  1.0659  1.8730  1.9931
 2046TIP3    H227630   6.036   6.173   5.492 -2.6691 -1.9507  0.2332
 2047TIP3   OH227631   1.927   3.249   0.241 -0.5020 -0.6810 -0.0615
 2047TIP3    H127632   1.933   3.212   0.329 -1.9399  2.0219  1.2700
 2047TIP3    H227633   2.013   3.235   0.202  1.0863  0.5638  2.8566
 2048TIP3   OH227634   5.361   5.114   2.108 -0.1296 -0.1808  0.5891
 2048TIP3    H127635   5.449   5.078   2.110  0.8674  2.0524 -0.9426
 2048TIP3    H227636   5.364   5.181   2.039 -2.6698  0.7640  1.3429
 2049TIP3   OH227637   5.312   0.290  14.574 -0.6080 -0.0075  0.1591
 2049TIP3    H127638   5.216   0.291  14.574 -0.6480 -1.9675  2.0944
 2049TIP3    H227639   5.335   0.235  14.499 -0.9810  0.4445 -0.2970
 2050TIP3   OH227640   5.015   2.471  13.215  0.1486  0.1197  0.4186
 2050TIP3    H127641   4.965   2.398  13.180  1.6066 -0.7559  0.1564
 2050TIP3    H227642   4.971   2.493  13.297 -1.7585  0.5503 -0.6961
 2051TIP3   OH227643   0.982   4.569  13.917 -0.8349 -0.1885  0.1819
 2051TIP3    H127644   0.973   4.476  13.934 -1.4867 -0.1911 -0.1575
 2051TIP3    H227645   0.893   4.603  13.922 -0.6651  0.3192 -0.2362
 2052TIP3   OH227646   0.836   4.012   0.728 -0.2432  0.1718  0.2612
 2052TIP3    H127647   0.819   3.954   0.654 -0.8780 -1.2109  1.4600
 2052TIP3    H227648   0.921   4.052   0.708 -0.4509 -0.1123 -1.2520
 2053TIP3   OH227649   1.342   4.504  11.664  0.1677  0.2116 -0.6270
 2053TIP3    H127650   1.273   4.444  11.637 -0.5021  0.2781  0.8860
 2053TIP3    H227651   1.394   4.455  11.727 -0.6630  1.3430  0.9698
 2054TIP3   OH227652   0.002   4.714   1.342  0.1934 -0.0476 -0.5890
 2054TIP3    H127653   0.069   4.660   1.299 -0.4799 -0.0268 -1.6663
 2054TIP3    H227654   0.011   4.692   1.435  0.1068 -1.8515 -0.9745
 2055TIP3   OH227655   5.451   2.898   5.124 -0.0978  0.2369  0.1979
 2055TIP3    H127656   5.357   2.918   5.124 -0.3010 -0.6815  0.3622
 2055TIP3    H227657   5.464   2.844   5.046  0.4600  1.0894 -0.3014
 2056TIP3   OH227658   1.090   0.199  13.169  0.0331  0.4355 -0.4587
 2056TIP3    H127659   1.066   0.291  13.163  0.9415  0.7710  0.8048
 2056TIP3    H227660   1.172   0.192  13.121  1.0410  0.7177  1.1817
 2057TIP3   OH227661   5.111   3.485  12.124  0.2671 -0.2597  0.3462
 2057TIP3    H127662   5.166   3.408  12.136 -2.3259 -1.6440  4.3962
 2057TIP3    H227663   5.153   3.553  12.176  1.8173  0.6980 -2.1247
 2058TIP3   OH227664   4.578   6.614   5.108 -0.3789 -0.4400 -0.2545
 2058TIP3    H127665   4.672   6.611   5.094 -0.2119  0.7305  0.5836
 2058TIP3    H227666   4.565   6.584   5.198 -0.6647  0.8130  0.1382
 2059TIP3   OH227667   6.783   5.389  16.866 -0.5845 -0.0230 -0.1214
 2059TIP3    H127668   6.868   5.392  16.822  0.0810  1.2738  1.2186
 2059TIP3    H227669   6.734   5.462  16.828  0.0993  1.2870  1.4612
 2060TIP3   OH227670   0.936   1.999  11.435 -0.3268 -1.1950  0.2453
 2060TIP3    H127671   0.884   2.042  11.503 -1.6813 -1.8386 -0.3638
 2060TIP3    H227672   0.897   2.029  11.353  1.6110 -0.0306 -0.2806
 2061TIP3   OH227673   1.962   4.851   1.765 -0.0601  0.3434  0.5442
 2061TIP3    H127674   2.006   4.772   1.733  0.8505  1.1870 -0.3241
 2061TIP3    H227675   1.912   4.822   1.841  2.1644 -0.6146  1.6793
 2062TIP3   OH227676   5.875   6.357  11.592 -0.1498  0.3590  0.3148
 2062TIP3    H127677   5.901   6.448  11.578 -0.7868  0.8424  2.2150
 2062TIP3    H227678   5.958   6.308  11.596  0.3299  1.3434  2.6140
 2063TIP3   OH227679   3.444   0.944   3.511  0.0062 -0.5716 -0.5537
 2063TIP3    H127680   3.407   1.009   3.450  3.3642  1.1432 -0.9052
 2063TIP3    H227681   3.377   0.935   3.579 -2.1586  0.4202 -2.4552
 2064TIP3   OH227682   3.702   6.647  14.802 -0.0992  0.2993 -0.0997
 2064TIP3    H127683   3.784   6.618  14.763 -0.1728 -0.5112  0.3419
 2064TIP3    H227684   3.634   6.613  14.743 -0.2107 -0.9331  0.7429
 2065TIP3   OH227685   4.534   0.020   5.791 -0.3972 -0.1794 -0.4562
 2065TIP3    H127686   4.518  -0.052   5.731 -0.7598  0.7481 -1.4954
 2065TIP3    H227687   4.599   0.075   5.746 -0.7172  0.5554 -0.0282
 2066TIP3   OH227688   0.879   5.024   4.003  0.7807  0.3523 -0.4116
 2066TIP3    H127689   0.947   5.066   4.056  1.5393  1.6903 -2.4068
 2066TIP3    H227690   0.826   5.097   3.971 -2.4035 -0.7307  2.1412
 2067TIP3   OH227691   1.831   2.766  13.180 -0.1363  0.0489 -0.1132
 2067TIP3    H127692   1.892   2.722  13.120 -0.3562 -0.4212  0.0043
 2067TIP3    H227693   1.752   2.778  13.127 -0.5202 -0.8554  0.2375
 2068TIP3   OH227694   3.128   4.221  17.223 -0.0319 -0.4310 -0.1734
 2068TIP3    H127695   3.132   4.262  17.310 -1.4169  1.8234 -1.1268
 2068TIP3    H227696   3.212   4.242  17.182  1.1575 -2.6019  1.0493
 2069TIP3   OH227697   0.174   5.277  12.450  0.2354  0.2737 -0.1492
 2069TIP3    H127698   0.169   5.280  12.545 -0.7225  0.3304 -0.1900
 2069TIP3    H227699   0.120   5.201  12.425 -1.5365  1.6687 -0.7512
 2070TIP3   OH227700   4.147   3.629  14.914  0.4989 -0.1960 -0.1581
 2070TIP3    H127701   4.170   3.574  14.839 -0.7098  0.9339 -1.3785
 2070TIP3    H227702   4.223   3.623  14.972  2.5215  0.8468 -2.5967
 2071TIP3   OH227703   4.080   2.215   2.598 -0.2061  0.0940  0.2323
 2071TIP3    H127704   4.075   2.248   2.687  1.9844  0.3114  0.3159
 2071TIP3    H227705   4.087   2.293   2.543  0.1353 -0.0826  0.0194
 2072TIP3   OH227706   3.909   1.005   2.679  0.1811 -0.2947 -0.2925
 2072TIP3    H127707   3.825   1.009   2.726 -0.2307  1.4702 -1.1264
 2072TIP3    H227708   3.910   1.085   2.627  1.4354 -1.3782 -1.9464
 2073TIP3   OH227709   6.413   4.209   2.823 -0.0074  0.0178  0.2251
 2073TIP3    H127710   6.491   4.240   2.870 -0.2108 -0.5694  0.9540
 2073TIP3    H227711   6.419   4.113   2.828 -1.5143 -0.0211  1.5070
 2074TIP3   OH227712   6.108   3.043  15.760 -0.1035  0.1519  0.2108
 2074TIP3    H127713   6.016   3.039  15.787 -0.1289 -0.0227  0.0980
 2074TIP3    H227714   6.104   3.065  15.667 -0.0295  0.2148  0.2223
 2075TIP3   OH227715   5.978   0.421  13.292  0.3028  0.1772  0.3204
 2075TIP3    H127716   5.990   0.337  13.336 -1.1546 -0.0879  0.2105
 2075TIP3    H227717   5.937   0.478  13.357  0.7028  0.6203  0.1933
 2076TIP3   OH227718   4.526   1.644   6.655  0.6964 -0.2591 -0.1707
 2076TIP3    H127719   4.440   1.603   6.648  1.3577 -1.2837 -2.4835
 2076TIP3    H227720   4.518   1.725   6.604  0.6616  0.4677  0.9464
 2077TIP3   OH227721   1.022   6.515  10.976  0.2692  0.3993 -0.3457
 2077TIP3    H127722   0.937   6.556  10.993  0.1234  0.4693 -1.2213
 2077TIP3    H227723   1.084   6.563  11.032  0.0537  1.6322 -1.1515
 2078TIP3   OH227724   4.848   1.161   4.967 -0.3574 -0.1562 -0.2445
 2078TIP3    H127725   4.793   1.232   4.933 -0.2275 -0.5687 -1.3429
 2078TIP3    H227726   4.785   1.096   4.999 -0.4835  0.1900  0.2128
 2079TIP3   OH227727   3.087   3.692  17.278 -0.5025  0.2092 -0.0011
 2079TIP3    H127728   3.013   3.717  17.335 -0.6866 -2.9948  1.2231
 2079TIP3    H227729   3.159   3.749  17.306 -1.6123  1.2073  0.8925
 2080TIP3   OH227730   5.519   3.387  14.466 -0.4330  0.5396 -0.3375
 2080TIP3    H127731   5.439   3.349  14.432  0.3181  0.2614 -1.8505
 2080TIP3    H227732   5.562   3.425  14.389  0.4011  1.5554  0.6078
 2081TIP3   OH227733   3.882   1.886   5.236 -0.4130  0.1159  0.0456
 2081TIP3    H127734   3.897   1.906   5.143  0.8576  0.2971  0.2894
 2081TIP3    H227735   3.894   1.792   5.242  0.2231  0.2057  0.1664
 2082TIP3   OH227736   5.729   3.685   1.484  0.0657  0.1110  0.2303
 2082TIP3    H127737   5.640   3.652   1.495  0.4800 -0.9169  0.5394
 2082TIP3    H227738   5.718   3.771   1.442 -0.9747 -0.9125 -1.6396
 2083TIP3   OH227739   3.290   5.178   1.819  0.3079 -0.5227 -0.2576
 2083TIP3    H127740   3.343   5.229   1.881 -0.4565 -0.2034  0.1434
 2083TIP3    H227741   3.268   5.098   1.867 -0.9980  0.0974  0.2129
 2084TIP3   OH227742   6.613   4.961  12.186  0.2131 -0.3412  0.5665
 2084TIP3    H127743   6.627   4.953  12.280  1.7534 -0.0919  0.3735
 2084TIP3    H227744   6.651   4.880  12.149 -0.2731 -0.3841  0.1462
 2085TIP3   OH227745   2.075   0.372   2.927  0.3992 -0.5452 -0.0477
 2085TIP3    H127746   2.121   0.402   2.849  0.8287  1.8056  1.0408
 2085TIP3    H227747   2.137   0.316   2.973  0.0146 -2.2228 -1.5625
 2086TIP3   OH227748   0.531   1.102   2.909 -0.3075 -0.1512 -0.4351
 2086TIP3    H127749   0.616   1.109   2.866 -1.1177  0.1563 -2.0213
 2086TIP3    H227750   0.487   1.185   2.889 -1.2406 -0.5835 -0.1989
 2087TIP3   OH227751   1.750   5.912  11.367 -0.4912 -0.3194 -0.3817
 2087TIP3    H127752   1.749   5.919  11.463 -1.5374  2.0730 -0.5400
 2087TIP3    H227753   1.839   5.937  11.342 -0.2455 -0.8504 -0.0621
 2088TIP3   OH227754   6.040   2.029  11.922  0.2304 -0.8321 -0.5239
 2088TIP3    H127755   6.009   2.118  11.940 -0.7510 -0.4093 -3.9699
 2088TIP3    H227756   5.972   1.990  11.868  1.1267 -3.3611  0.1132
 2089TIP3   OH227757   0.586   2.652   0.540  0.8316 -0.5258 -0.1606
 2089TIP3    H127758   0.496   2.626   0.519  0.8749 -1.2132  0.4533
 2089TIP3    H227759   0.617   2.697   0.462 -0.4689  0.8122  0.0706
 2090TIP3   OH227760   6.052   3.411  14.276 -0.1526  0.5931 -0.0197
 2090TIP3    H127761   5.989   3.476  14.311  0.0721  0.2523  1.0294
 2090TIP3    H227762   6.098   3.458  14.207 -2.3711  0.5034 -1.6458
 2091TIP3   OH227763   2.374   4.648   1.490 -0.1035  0.0365  0.2338
 2091TIP3    H127764   2.387   4.732   1.535  1.1319  0.1826 -0.3795
 2091TIP3    H227765   2.331   4.672   1.408 -0.8776 -0.0643  0.6057
 2092TIP3   OH227766   0.571   3.071   5.673  0.1163  0.2046 -0.6439
 2092TIP3    H127767   0.609   3.092   5.759 -0.9747  1.9978 -0.5748
 2092TIP3    H227768   0.646   3.071   5.614  0.5065  2.0261 -0.2007
 2093TIP3   OH227769   0.036   4.828  12.856  0.9792 -0.0548 -0.2152
 2093TIP3    H127770  -0.028   4.853  12.923  1.8351  3.1863 -0.5027
 2093TIP3    H227771   0.101   4.898  12.859  3.0681 -1.8603 -1.8253
 2094TIP3   OH227772   2.515   1.176   1.851 -0.0819 -0.2332  0.1032
 2094TIP3    H127773   2.610   1.165   1.857 -0.1196 -0.4425  0.2985
 2094TIP3    H227774   2.502   1.271   1.847  0.1819 -0.2230 -0.6479
 2095TIP3   OH227775   4.128   4.048   4.173  0.6278 -0.4529 -0.4076
 2095TIP3    H127776   4.036   4.045   4.199  0.8147  1.3572  0.5256
 2095TIP3    H227777   4.132   3.992   4.095 -1.8737  1.7952 -2.2449
 2096TIP3   OH227778   5.515   2.345   1.079 -0.7864  0.1468 -0.2331
 2096TIP3    H127779   5.544   2.420   1.028  1.9582 -1.0861 -0.5528
 2096TIP3    H227780   5.465   2.383   1.151 -0.6516  2.1867 -1.1840
 2097TIP3   OH227781   5.335   4.545   3.365  0.0927  0.1307 -0.1912
 2097TIP3    H127782   5.277   4.499   3.305  1.6970  0.0947 -1.7633
 2097TIP3    H227783   5.287   4.548   3.448 -0.9214 -2.4889 -0.6258
 2098TIP3   OH227784   4.752   2.513  15.462 -0.2752  0.2155  0.3976
 2098TIP3    H127785   4.756   2.533  15.555 -0.4523  1.3100  0.1746
 2098TIP3    H227786   4.661   2.485  15.448 -0.3128  0.2868  0.5030
 2099TIP3   OH227787   2.098   0.576   0.807  0.3869 -0.1984  0.6216
 2099TIP3    H127788   2.163   0.643   0.830  0.7354 -0.5227  0.5831
 2099TIP3    H227789   2.052   0.613   0.732  0.5263  0.0339  0.6492
 2100TIP3   OH227790   4.269   1.951   4.570 -0.1081  0.6272 -0.7760
 2100TIP3    H127791   4.355   1.962   4.530  0.7652  1.6590  1.3091
 2100TIP3    H227792   4.257   2.029   4.623 -1.4945 -0.4141  0.4924
 2101TIP3   OH227793   0.082   3.932   6.604  0.2461  0.5530  0.5130
 2101TIP3    H127794   0.098   3.939   6.698 -0.1974 -1.6117  0.7705
 2101TIP3    H227795  -0.004   3.891   6.597  0.6548 -0.0933 -0.8380
 2102TIP3   OH227796   4.734   1.572  13.860 -0.0636 -0.0302 -0.0472
 2102TIP3    H127797   4.789   1.639  13.900 -0.9214  0.3180  0.5528
 2102TIP3    H227798   4.742   1.496  13.918 -1.3137  0.4770  0.8198
 2103TIP3   OH227799   6.604   4.435   3.583  0.0529 -0.3846  0.0615
 2103TIP3    H127800   6.690   4.408   3.615 -0.4009  0.4760  2.0615
 2103TIP3    H227801   6.592   4.523   3.619 -1.6448 -0.4751 -0.2531
 2104TIP3   OH227802   3.980   5.041  15.728  0.2826  0.0735 -0.3575
 2104TIP3    H127803   3.972   4.963  15.674  1.0480 -1.1750  1.3065
 2104TIP3    H227804   3.918   5.028  15.800  2.1299 -0.1471  1.2444
 2105TIP3   OH227805   0.361   3.951   1.786  0.1939  0.2503  0.0648
 2105TIP3    H127806   0.307   3.952   1.707 -0.2302  0.7139  0.3589
 2105TIP3    H227807   0.348   3.863   1.822  1.3576 -0.3800 -1.0387
 2106TIP3   OH227808   5.873   2.293  16.090  0.8148  0.4081  0.2504
 2106TIP3    H127809   5.891   2.385  16.073 -3.5164  1.0578 -1.6349
 2106TIP3    H227810   5.922   2.246  16.022  1.9836  1.3922  0.3982
 2107TIP3   OH227811   5.476   0.132   4.386 -0.1798  0.1666 -0.1486
 2107TIP3    H127812   5.500   0.132   4.478  0.8905  0.3430 -0.4261
 2107TIP3    H227813   5.397   0.187   4.382 -0.9551 -0.8549  0.8365
 2108TIP3   OH227814   5.380   0.465   0.332  0.6707  0.0003 -0.0631
 2108TIP3    H127815   5.438   0.539   0.351  1.2534  0.0813 -2.0485
 2108TIP3    H227816   5.434   0.406   0.278 -0.0034 -1.5563  0.9275
 2109TIP3   OH227817   2.481   2.568  14.702 -0.1587  0.1550  0.2837
 2109TIP3    H127818   2.554   2.609  14.656 -1.5816  2.2017 -0.1925
 2109TIP3    H227819   2.503   2.574  14.795  1.0183 -0.7177  0.0748
 2110TIP3   OH227820   6.494   5.673   3.300 -0.3180 -0.5402 -0.3221
 2110TIP3    H127821   6.504   5.669   3.395 -1.2717 -0.8207 -0.2215
 2110TIP3    H227822   6.582   5.661   3.266  0.5754  3.0916  0.5749
 2111TIP3   OH227823   2.799   3.821   2.524 -0.2302  0.0854 -0.0397
 2111TIP3    H127824   2.715   3.775   2.528 -0.1412 -0.2188 -1.4905
 2111TIP3    H227825   2.780   3.901   2.476 -0.0496  0.8357  1.1269
 2112TIP3   OH227826   3.563   3.032   2.005  0.5182  0.7496  0.6263
 2112TIP3    H127827   3.553   3.127   2.018  0.0068  0.9983 -1.4191
 2112TIP3    H227828   3.556   3.020   1.911  0.0718 -1.4075  0.9160
 2113TIP3   OH227829   2.711   5.843  13.639  0.4209  0.3891  0.6581
 2113TIP3    H127830   2.734   5.888  13.557 -3.2438  0.9451 -0.1758
 2113TIP3    H227831   2.744   5.754  13.628  0.4377  0.6116 -1.2258
 2114TIP3   OH227832   3.985   1.269  16.806 -0.3801  0.2317  0.2536
 2114TIP3    H127833   4.001   1.234  16.893 -3.3595 -1.6251  0.1246
 2114TIP3    H227834   3.942   1.353  16.820 -0.5390  0.0941  0.5794
 2115TIP3   OH227835   1.907   1.972  13.395  0.5300 -0.3518  0.2826
 2115TIP3    H127836   1.871   1.936  13.476 -0.2810  3.7667  1.8786
 2115TIP3    H227837   1.997   1.938  13.392 -0.0661 -2.1758  1.8127
 2116TIP3   OH227838   1.420   0.065  13.638  0.2059 -0.4192  0.5942
 2116TIP3    H127839   1.428   0.018  13.721  1.0988 -0.8606  0.2539
 2116TIP3    H227840   1.500   0.116  13.631  0.4296 -0.8801 -0.3114
 2117TIP3   OH227841   6.431   1.930   6.008  0.4536 -0.5744  0.6220
 2117TIP3    H127842   6.424   2.013   6.055  0.5598 -0.5479  0.5894
 2117TIP3    H227843   6.523   1.904   6.017  1.1784  0.8985 -2.1047
 2118TIP3   OH227844   5.685   5.285  11.577  0.0933  0.9208 -0.5948
 2118TIP3    H127845   5.678   5.380  11.569  0.7975  1.0763  0.5104
 2118TIP3    H227846   5.747   5.272  11.649 -1.9770 -0.3670  1.0047
 2119TIP3   OH227847   1.548   3.263  14.331 -0.5781 -0.2812 -0.2155
 2119TIP3    H127848   1.574   3.204  14.260 -0.8142 -1.0969  0.3620
 2119TIP3    H227849   1.620   3.256  14.394 -1.2507 -1.0269  0.4857
 2120TIP3   OH227850   6.394   1.979  14.719  0.3699  0.6549 -0.8601
 2120TIP3    H127851   6.330   1.981  14.790  0.4337  1.1001 -0.8155
 2120TIP3    H227852   6.341   1.969  14.640  0.3322 -0.4423 -0.7045
 2121TIP3   OH227853   3.242   2.806  13.819 -0.1261 -0.4847  0.1182
 2121TIP3    H127854   3.316   2.827  13.763  0.4774 -1.2587  0.6182
 2121TIP3    H227855   3.242   2.711  13.826 -1.6653 -0.5509 -0.5463
 2122TIP3   OH227856   3.159   6.570  15.885  0.5921  0.4973 -0.2491
 2122TIP3    H127857   3.171   6.621  15.965 -1.2050  3.4591 -1.7704
 2122TIP3    H227858   3.065   6.549  15.884  0.3546  1.6082 -2.2033
 2123TIP3   OH227859   4.144   6.422   1.176  0.1100 -0.2918 -0.4394
 2123TIP3    H127860   4.187   6.475   1.242 -0.9654  0.9258 -0.6951
 2123TIP3    H227861   4.125   6.339   1.220  0.0398  0.2535  0.5664
 2124TIP3   OH227862   1.889   2.994   1.647  0.2400 -0.0654  1.0683
 2124TIP3    H127863   1.852   3.078   1.620 -1.0099 -1.6224 -2.3775
 2124TIP3    H227864   1.817   2.932   1.636  2.2252 -2.2101 -0.0835
 2125TIP3   OH227865   0.296   0.070   4.339 -0.1224  0.1518 -0.1015
 2125TIP3    H127866   0.264   0.149   4.383 -1.4226 -0.3097 -0.2072
 2125TIP3    H227867   0.389   0.088   4.323 -0.4167  1.6886 -0.1946
 2126TIP3   OH227868   3.943   6.171  15.080 -0.1571 -0.1362 -0.1472
 2126TIP3    H127869   3.867   6.179  15.136  0.7741  0.8654  0.9972
 2126TIP3    H227870   3.928   6.235  15.010  1.7726  3.5291  2.6157
 2127TIP3   OH227871   0.912   3.247  16.206 -0.1194  0.4479  0.2753
 2127TIP3    H127872   0.817   3.245  16.201 -0.2228 -4.2675  1.0524
 2127TIP3    H227873   0.940   3.176  16.148  3.0228  2.5117 -0.8610
 2128TIP3   OH227874   1.249   0.623  15.633 -0.7004 -0.2575  0.4789
 2128TIP3    H127875   1.332   0.667  15.648 -1.2384  1.3217 -0.9885
 2128TIP3    H227876   1.190   0.659  15.700 -0.5299 -0.5022  0.7642
 2129TIP3   OH227877   5.354   4.050  11.982  0.1218  0.1094 -0.5373
 2129TIP3    H127878   5.408   4.071  12.058 -0.4643  2.2404 -0.6644
 2129TIP3    H227879   5.308   3.970  12.007  1.1641 -0.1211  0.7054
 2130TIP3   OH227880   5.761   1.883  12.356  0.2725 -0.1545 -0.2373
 2130TIP3    H127881   5.759   1.789  12.341  0.8425 -0.0661 -0.8722
 2130TIP3    H227882   5.849   1.901  12.389 -0.4079 -0.0926  1.5912
 2131TIP3   OH227883   4.550   4.043   0.285  0.3811 -0.1296  0.2195
 2131TIP3    H127884   4.538   4.131   0.249  0.0428 -0.7152 -1.1492
 2131TIP3    H227885   4.616   4.003   0.229 -2.4074 -2.1370 -1.7896
 2132TIP3   OH227886   0.877   5.254  11.842  0.5283  0.2303 -0.0198
 2132TIP3    H127887   0.825   5.322  11.883  0.6493  0.7209 -0.6651
 2132TIP3    H227888   0.881   5.184  11.907  0.8687  1.0660  0.8677
 2133TIP3   OH227889   6.103   1.866   3.996  0.0535  0.1713  0.3208
 2133TIP3    H127890   6.054   1.892   4.075  1.4154  0.2973  1.1392
 2133TIP3    H227891   6.040   1.815   3.945 -1.2620  1.2126  0.8556
 2134TIP3   OH227892   2.814   5.345  14.507 -0.2107  0.6347 -0.1851
 2134TIP3    H127893   2.887   5.399  14.477 -0.0536  0.0608 -0.8641
 2134TIP3    H227894   2.809   5.274  14.443  1.3990 -1.7706  2.2269
 2135TIP3   OH227895   2.969   1.764  14.047  0.0098  0.4447  0.0206
 2135TIP3    H127896   2.918   1.775  13.967 -0.7423 -0.1850  0.4093
 2135TIP3    H227897   2.982   1.670  14.055  1.0549  0.5860  0.0430
 2136TIP3   OH227898   3.551   2.628   2.121 -0.1878  0.4684 -0.5261
 2136TIP3    H127899   3.514   2.683   2.051  0.2863  1.0404 -0.3343
 2136TIP3    H227900   3.595   2.691   2.179  2.2382 -0.3382 -1.4564
 2137TIP3   OH227901   3.205   2.394   0.170  0.7278 -0.0571 -0.2460
 2137TIP3    H127902   3.119   2.424   0.201  0.3411  0.0902 -1.4443
 2137TIP3    H227903   3.186   2.343   0.092  1.5506 -1.9979  0.8066
 2138TIP3   OH227904   5.336   0.424  16.823 -0.5631 -0.3410  0.1263
 2138TIP3    H127905   5.359   0.441  16.914 -0.2830 -0.7773  0.1353
 2138TIP3    H227906   5.333   0.328  16.816 -0.4514 -0.3097 -0.3549
 2139TIP3   OH227907   6.317   6.114  15.268 -0.0143  0.1451 -0.6561
 2139TIP3    H127908   6.276   6.095  15.352 -0.7832  1.3999 -0.7238
 2139TIP3    H227909   6.406   6.081  15.277 -0.5227 -1.0548  0.1168
 2140TIP3   OH227910   6.436   6.154  13.459 -0.8219  0.2838  0.0864
 2140TIP3    H127911   6.437   6.162  13.364 -1.6861  0.0146  0.0503
 2140TIP3    H227912   6.365   6.093  13.477 -0.1508 -0.2741  0.8627
 2141TIP3   OH227913   1.111   3.681   5.656 -0.4773  0.0239  0.0111
 2141TIP3    H127914   1.129   3.668   5.750 -1.4772 -0.7667  0.1025
 2141TIP3    H227915   1.184   3.637   5.612 -0.1461  0.1650  0.4129
 2142TIP3   OH227916   5.799   4.903   1.417  0.6502 -0.2471  0.7939
 2142TIP3    H127917   5.890   4.881   1.436  0.9208 -0.6847 -0.9275
 2142TIP3    H227918   5.781   4.859   1.335 -0.8496  0.5848  0.6694
 2143TIP3   OH227919   3.391   6.684   5.527  0.1890  0.1994  0.2211
 2143TIP3    H127920   3.451   6.752   5.498  1.0751 -0.4335  0.5364
 2143TIP3    H227921   3.313   6.731   5.557  0.3295  0.9940 -0.6676
 2144TIP3   OH227922   6.675   2.436  14.292  0.2985 -0.5157  0.1837
 2144TIP3    H127923   6.639   2.445  14.380  1.9558  1.8935  0.6599
 2144TIP3    H227924   6.751   2.378  14.304 -0.2166 -1.2074  0.1178
 2145TIP3   OH227925   5.630   0.276   5.368  0.1845 -0.0827 -0.2693
 2145TIP3    H127926   5.558   0.336   5.351 -0.3396 -0.0984  1.8609
 2145TIP3    H227927   5.587   0.195   5.396  0.9990 -0.5436 -0.3392
 2146TIP3   OH227928   5.794   5.217  16.338  0.0307 -0.6363 -0.0235
 2146TIP3    H127929   5.722   5.278  16.322  0.5026 -0.6669 -2.3553
 2146TIP3    H227930   5.776   5.143  16.279  1.4658 -1.0704  0.0703
 2147TIP3   OH227931   2.437   6.676  12.665  0.2320  0.1452  0.2147
 2147TIP3    H127932   2.452   6.683  12.571 -0.4104 -0.2623  0.0853
 2147TIP3    H227933   2.377   6.747  12.686  1.2103  0.8976  0.5007
 2148TIP3   OH227934   6.084   1.186   1.801 -0.0239 -0.0037  0.4001
 2148TIP3    H127935   6.074   1.199   1.896 -0.5628 -3.6218  0.8965
 2148TIP3    H227936   6.179   1.174   1.789  0.0489  0.4905  0.4632
 2149TIP3   OH227937   4.222   5.467   0.267  0.1473  0.9113 -0.1376
 2149TIP3    H127938   4.155   5.400   0.265  1.8279 -0.8648  1.2746
 2149TIP3    H227939   4.193   5.530   0.333 -0.3942  0.4424  0.0652
 2150TIP3   OH227940   1.329   3.549  10.517  0.4768  0.3333 -0.3885
 2150TIP3    H127941   1.361   3.592  10.438 -4.4487  2.2658 -1.5208
 2150TIP3    H227942   1.299   3.621  10.573 -0.4752 -1.2394  1.1837
 2151TIP3   OH227943   5.134   3.998   2.881  0.1068  0.3345 -0.5431
 2151TIP3    H127944   5.094   4.007   2.968  1.2721  0.4958 -0.0059
 2151TIP3    H227945   5.219   4.043   2.889  0.3669  0.0746 -1.6719
 2152TIP3   OH227946   6.577   5.516   1.058 -0.0221 -0.2694  0.0948
 2152TIP3    H127947   6.617   5.429   1.059 -1.0142 -0.7287  0.7861
 2152TIP3    H227948   6.533   5.523   1.143  0.5077  1.1295  0.2675
 2153TIP3   OH227949   5.176   1.858   6.036  1.0768 -0.1931  0.0112
 2153TIP3    H127950   5.153   1.814   6.117  1.9994 -1.3221 -0.3289
 2153TIP3    H227951   5.232   1.931   6.063 -0.8427  1.0936  0.6165
 2154TIP3   OH227952   3.295   2.463  14.147 -0.0743 -0.1673 -0.1834
 2154TIP3    H127953   3.233   2.448  14.076  0.4394 -2.0588 -0.2407
 2154TIP3    H227954   3.254   2.532  14.199 -1.7872 -0.7195 -0.7536
 2155TIP3   OH227955   1.527   2.729  14.542  0.2513 -0.0024  0.0420
 2155TIP3    H127956   1.531   2.676  14.622 -0.5098 -0.1826 -0.0402
 2155TIP3    H227957   1.481   2.809  14.568 -1.5316 -0.7908 -0.6118
 2156TIP3   OH227958   5.989   0.405   3.773 -0.3226  0.6718 -0.5105
 2156TIP3    H127959   5.941   0.469   3.721  0.1748  0.7482 -0.8748
 2156TIP3    H227960   5.948   0.321   3.751 -1.6304  0.9642  0.7104
 2157TIP3   OH227961   4.094   2.777  12.492 -0.4828  0.4782  0.4158
 2157TIP3    H127962   4.105   2.687  12.462  1.6891  1.0284 -0.5851
 2157TIP3    H227963   4.016   2.775  12.547  0.2882 -2.2698  1.4949
 2158TIP3   OH227964   1.268   1.661  16.802  0.7255 -0.3182  0.1401
 2158TIP3    H127965   1.315   1.702  16.875  0.7110 -0.1187  0.0382
 2158TIP3    H227966   1.271   1.726  16.732  0.8466 -0.5606 -0.0778
 2159TIP3   OH227967   0.336   0.912   2.899  0.0936 -0.4003  0.2330
 2159TIP3    H127968   0.408   0.974   2.885  0.6465 -1.0835  0.0393
 2159TIP3    H227969   0.379   0.827   2.912 -0.6105 -0.5597  1.6007
 2160TIP3   OH227970   3.545   1.988   6.129  0.3774 -1.1559 -0.1268
 2160TIP3    H127971   3.467   1.933   6.120  0.8179 -1.5400 -1.6608
 2160TIP3    H227972   3.532   2.035   6.211 -0.8169 -2.2628  0.3311
 2161TIP3   OH227973   0.139   4.172  13.965 -0.3272 -0.5517 -0.0245
 2161TIP3    H127974   0.045   4.171  13.985 -0.1147  0.1188  1.0637
 2161TIP3    H227975   0.181   4.177  14.050  0.6687  0.5183 -0.5737
 2162TIP3   OH227976   2.234   5.099   1.212  0.4783  0.4448  0.0902
 2162TIP3    H127977   2.196   5.081   1.126  1.8262 -1.7902 -0.0658
 2162TIP3    H227978   2.166   5.069   1.274  0.3767  0.0634 -0.2004
 2163TIP3   OH227979   1.949   1.679   1.616  0.7945 -0.1561 -0.4111
 2163TIP3    H127980   2.015   1.737   1.578 -1.0597  1.6064 -1.0337
 2163TIP3    H227981   1.929   1.719   1.701  0.1519 -0.3698 -0.4636
 2164TIP3   OH227982   3.604   1.540  12.253  0.2889  0.5327  0.0025
 2164TIP3    H127983   3.560   1.554  12.337 -0.5483  0.3570 -0.3981
 2164TIP3    H227984   3.578   1.452  12.226  1.4824  0.1372  0.0963
 2165TIP3   OH227985   0.803   3.464   1.033 -0.9346 -0.0074  0.0238
 2165TIP3    H127986   0.834   3.516   0.960  0.3923 -0.6531  0.1115
 2165TIP3    H227987   0.714   3.495   1.049 -1.1291  0.3283 -1.6751
 2166TIP3   OH227988   3.350   3.340   1.516  0.6585  0.2480 -0.1335
 2166TIP3    H127989   3.375   3.369   1.604  0.1160 -0.4346  0.2527
 2166TIP3    H227990   3.432   3.334   1.468  0.9771  0.4487  0.3872
 2167TIP3   OH227991   4.536   5.163  15.931  0.6223 -0.0766  0.1144
 2167TIP3    H127992   4.449   5.182  15.896 -0.5327 -1.0799  2.3259
 2167TIP3    H227993   4.551   5.072  15.906  1.0269  0.0987 -0.2679
 2168TIP3   OH227994   3.689   2.045   1.787 -0.7341  0.0962  0.7591
 2168TIP3    H127995   3.717   2.017   1.700 -0.3765  1.5504  0.4039
 2168TIP3    H227996   3.596   2.023   1.789 -0.8881  0.6134 -0.2196
 2169TIP3   OH227997   3.456   1.264   5.298 -0.0072  0.0003  0.4364
 2169TIP3    H127998   3.546   1.292   5.315  0.5775 -1.6726  0.2304
 2169TIP3    H227999   3.452   1.175   5.331 -1.4920 -0.0721  0.1056
 2170TIP3   OH228000   5.649   5.374  13.772  0.5355  0.1176 -0.3782
 2170TIP3    H128001   5.733   5.373  13.727  0.0502  0.7443 -1.3243
 2170TIP3    H228002   5.614   5.286  13.759  1.5886 -0.5367  1.0956
 2171TIP3   OH228003   5.854   5.159  11.825 -0.4785  0.0996  0.0251
 2171TIP3    H128004   5.786   5.171  11.892 -0.4544  1.1890 -0.1309
 2171TIP3    H228005   5.914   5.095  11.864 -1.9850 -1.4724 -0.1628
 2172TIP3   OH228006   3.524   5.300  13.873 -0.5791  0.3719  0.4636
 2172TIP3    H128007   3.528   5.395  13.867  0.7852  0.2045 -1.8757
 2172TIP3    H228008   3.466   5.274  13.801  0.6745 -0.6809 -0.1733
 2173TIP3   OH228009   0.576   5.664   2.167 -0.5505  0.3119 -0.4349
 2173TIP3    H128010   0.527   5.724   2.223  0.6804  0.0499  0.9449
 2173TIP3    H228011   0.553   5.577   2.201 -1.8435  0.0152 -2.0250
 2174TIP3   OH228012   3.314   4.881   1.698  0.1984 -0.1924  0.1741
 2174TIP3    H128013   3.346   4.821   1.765  0.4757  1.1956  1.3054
 2174TIP3    H228014   3.380   4.949   1.692 -1.3041  1.3712  0.7613
 2175TIP3   OH228015   6.137   4.250  14.877  0.0908  0.1046 -0.2348
 2175TIP3    H128016   6.060   4.307  14.880 -0.7961 -1.0049 -1.1686
 2175TIP3    H228017   6.106   4.166  14.911  1.3691  0.1385  1.0880
 2176TIP3   OH228018   3.961   1.402  12.947 -0.1881 -0.4657 -0.0620
 2176TIP3    H128019   3.988   1.414  12.856 -0.0958  2.1122  0.2683
 2176TIP3    H228020   4.042   1.408  12.998 -0.4691 -0.0589  0.3431
 2177TIP3   OH228021   6.137   2.893  11.986  0.3634 -0.5790 -0.5296
 2177TIP3    H128022   6.139   2.879  11.892 -2.0712 -1.7774 -0.4380
 2177TIP3    H228023   6.080   2.970  11.998 -0.3287 -1.1638  0.0096
 2178TIP3   OH228024   4.995   4.236   3.965 -0.2806  0.1186 -0.4560
 2178TIP3    H128025   4.929   4.291   3.922 -0.3227 -1.4567 -2.4635
 2178TIP3    H228026   5.070   4.295   3.978  0.0450  0.4356 -3.4689
 2179TIP3   OH228027   2.044   6.207   4.086 -0.7514  0.0151  0.1485
 2179TIP3    H128028   1.999   6.271   4.141 -0.4898  0.4768 -0.1770
 2179TIP3    H228029   2.020   6.122   4.124  0.8191  0.3771  2.0614
 2180TIP3   OH228030   1.723   3.285   2.674 -0.1604  0.2249 -0.0168
 2180TIP3    H128031   1.763   3.323   2.752  0.3307 -1.7255  0.7128
 2180TIP3    H228032   1.629   3.301   2.685  0.0049  0.8512  0.4841
 2181TIP3   OH228033   5.883   4.404   5.841 -0.6422  0.5133  0.5682
 2181TIP3    H128034   5.805   4.455   5.821 -0.9587  0.1951  0.9723
 2181TIP3    H228035   5.916   4.376   5.756 -1.3680  0.0656  0.4249
 2182TIP3   OH228036   3.331   6.418  11.128 -0.0385  0.1059  0.5122
 2182TIP3    H128037   3.236   6.420  11.138 -0.0591 -1.2702  0.7612
 2182TIP3    H228038   3.360   6.505  11.156 -0.9822 -0.3457  3.0796
 2183TIP3   OH228039   4.579   5.782   5.790 -0.1088 -0.4242 -0.5283
 2183TIP3    H128040   4.666   5.821   5.786  0.0004 -0.8099 -2.2874
 2183TIP3    H228041   4.558   5.759   5.700 -1.2394 -2.1091  0.1289
 2184TIP3   OH228042   5.824   2.288  12.209 -0.1004 -0.2876 -0.2453
 2184TIP3    H128043   5.918   2.295  12.194  0.2203 -1.3630  1.1098
 2184TIP3    H228044   5.801   2.200  12.179 -0.7320  0.0882 -0.8691
 2185TIP3   OH228045   5.226   6.295  12.114  0.0401 -0.2224  0.3133
 2185TIP3    H128046   5.155   6.332  12.167  0.0659 -1.1817  1.0203
 2185TIP3    H228047   5.249   6.366  12.053 -2.2413 -0.2422 -0.6294
 2186TIP3   OH228048   4.347   6.488  13.490 -0.0330 -0.1768 -0.0465
 2186TIP3    H128049   4.374   6.554  13.554  2.4724 -1.2297  0.0559
 2186TIP3    H228050   4.290   6.429  13.539 -0.7434  0.8464  0.3636
 2187TIP3   OH228051   4.583   4.780   5.336  0.2355  0.2015 -0.3991
 2187TIP3    H128052   4.540   4.853   5.382  2.0650  1.4673 -0.6772
 2187TIP3    H228053   4.645   4.821   5.277  0.2656 -1.5524 -1.6215
 2188TIP3   OH228054   3.816   2.613   3.472 -0.0427  0.5476  0.7128
 2188TIP3    H128055   3.854   2.525   3.479 -1.7070 -0.1858  0.8698
 2188TIP3    H228056   3.809   2.643   3.563  3.1174  2.0328  0.5359
 2189TIP3   OH228057   6.519   6.501   1.172 -0.0810  0.2183  0.4415
 2189TIP3    H128058   6.546   6.514   1.263  0.9564  0.0110  0.1742
 2189TIP3    H228059   6.487   6.586   1.143  1.4030  0.7717  0.4122
 2190TIP3   OH228060   6.025   6.523  17.219  0.0550 -0.2720 -0.0173
 2190TIP3    H128061   6.019   6.595  17.282  0.3763 -0.5146  0.2953
 2190TIP3    H228062   6.054   6.565  17.138  2.6960 -0.3856  0.8089
 2191TIP3   OH228063   2.898   3.846   3.556  0.2448  0.2161  0.1085
 2191TIP3    H128064   2.955   3.848   3.479  0.9818  0.1018  0.6461
 2191TIP3    H228065   2.927   3.769   3.605  0.2912  0.7285  0.8932
 2192TIP3   OH228066   4.765   5.618  13.501 -0.2131  0.0384 -0.4493
 2192TIP3    H128067   4.694   5.565  13.466  0.6435 -1.6651  0.3186
 2192TIP3    H228068   4.742   5.708  13.478 -1.7506 -0.6502 -1.6779
 2193TIP3   OH228069   2.612   0.403  11.452  0.3760  0.1437  0.0428
 2193TIP3    H128070   2.525   0.374  11.424 -0.5326  1.0921  1.7873
 2193TIP3    H228071   2.646   0.330  11.504 -0.1432  0.4811  0.8700
 2194TIP3   OH228072   6.153   4.730   2.958 -0.1646  0.0184 -0.2382
 2194TIP3    H128073   6.174   4.794   2.890  0.6105 -1.3176 -1.2900
 2194TIP3    H228074   6.227   4.736   3.019  0.3959 -0.5535 -0.8531
 2195TIP3   OH228075   2.156   0.821   1.379 -0.7272  0.0426 -0.4404
 2195TIP3    H128076   2.186   0.882   1.312 -2.4788 -0.0606 -1.3598
 2195TIP3    H228077   2.134   0.877   1.454  0.2789  0.2567 -0.2984
 2196TIP3   OH228078   0.191   4.652  14.120 -0.4200  0.2725  0.1424
 2196TIP3    H128079   0.239   4.596  14.059  1.7326  1.3002  0.8444
 2196TIP3    H228080   0.202   4.609  14.205  1.1970  1.7162  0.6720
 2197TIP3   OH228081   5.705   2.040   6.115 -0.4569  0.1218 -0.2170
 2197TIP3    H128082   5.702   1.976   6.187  1.9438 -0.0880 -0.2604
 2197TIP3    H228083   5.634   2.101   6.134 -0.4684 -0.4886  1.7989
 2198TIP3   OH228084   4.990   3.056  10.800  0.0151  0.2871  0.1329
 2198TIP3    H128085   4.975   2.987  10.864  0.3800  0.0172 -0.0665
 2198TIP3    H228086   4.905   3.071  10.760  0.1427 -0.7848 -0.5579
 2199TIP3   OH228087   0.368   3.491  15.218 -0.3366 -0.0612 -0.2676
 2199TIP3    H128088   0.392   3.400  15.201 -1.0128 -1.0660  3.6772
 2199TIP3    H228089   0.281   3.486  15.257  0.6836  1.9928  2.4439
 2200TIP3   OH228090   1.712   3.421  14.767  0.0091  0.0561  0.4142
 2200TIP3    H128091   1.705   3.359  14.694 -0.1790  1.5979 -0.9205
 2200TIP3    H228092   1.625   3.421  14.807 -0.3404  0.3296 -0.3321
 2201TIP3   OH228093   6.457   5.012   2.788 -0.1342 -0.3412  0.3435
 2201TIP3    H128094   6.431   5.005   2.880  0.9614 -1.3355  0.6006
 2201TIP3    H228095   6.429   4.929   2.750 -0.8814  0.2069 -0.2988
 2202TIP3   OH228096   5.562   6.004  15.204 -0.1439  0.7670 -0.1640
 2202TIP3    H128097   5.519   6.082  15.239 -1.0221  0.3532 -0.2965
 2202TIP3    H228098   5.495   5.963  15.149 -0.1360 -0.7859  0.9540
 2203TIP3   OH228099   5.932   3.814   0.916 -0.0431  0.3089  0.0509
 2203TIP3    H128100   5.958   3.866   0.840 -0.0905 -0.7945 -0.7420
 2203TIP3    H228101   5.927   3.724   0.883  2.6041 -0.6176  1.9731
 2204TIP3   OH228102   1.673   1.661  14.125 -0.0684 -0.0259  0.3196
 2204TIP3    H128103   1.722   1.617  14.056 -0.3447 -0.0555  0.1397
 2204TIP3    H228104   1.687   1.754  14.110 -1.4349  0.0235 -0.7577
 2205TIP3   OH228105   2.851   0.653   5.025  0.6236 -0.3337 -0.1324
 2205TIP3    H128106   2.901   0.622   4.949  0.6300  0.8524 -0.6237
 2205TIP3    H228107   2.916   0.695   5.081  0.3759  0.1346 -0.1932
 2206TIP3   OH228108   4.156   5.227   3.731  0.4182 -0.8249 -0.2837
 2206TIP3    H128109   4.086   5.225   3.666 -1.2301 -0.7377  1.4358
 2206TIP3    H228110   4.126   5.168   3.800  1.7046 -0.1995  0.8269
 2207TIP3   OH228111   2.488   3.433  13.573  0.0000 -0.0694  0.1366
 2207TIP3    H128112   2.450   3.362  13.522 -0.9907  0.6986 -0.2339
 2207TIP3    H228113   2.574   3.449  13.534 -0.3252 -0.1844 -0.6245
 2208TIP3   OH228114   4.722   5.351  11.957 -0.0996 -0.0628  0.4289
 2208TIP3    H128115   4.761   5.311  12.034  0.0841  0.9806  0.8897
 2208TIP3    H228116   4.726   5.445  11.974 -3.2010  0.0702  0.7103
 2209TIP3   OH228117   2.109   0.467   3.619 -0.1070 -0.1781 -0.0762
 2209TIP3    H128118   2.171   0.538   3.600 -1.9011  1.2031 -0.9816
 2209TIP3    H228119   2.124   0.403   3.549  0.0958  0.2980 -0.4751
 2210TIP3   OH228120   0.767   2.154  12.631  0.5731  0.3421  0.3092
 2210TIP3    H128121   0.768   2.229  12.691 -0.8521  1.2707 -0.8027
 2210TIP3    H228122   0.847   2.106  12.652  0.4704  1.0418  2.4565
 2211TIP3   OH228123   5.539   2.684  11.668 -0.1133 -0.3087 -0.0606
 2211TIP3    H128124   5.589   2.602  11.664  0.6850  0.1415  0.6037
 2211TIP3    H228125   5.519   2.696  11.760 -0.2572  0.2263 -0.1602
 2212TIP3   OH228126   6.767   3.994  12.175 -0.6252 -0.0454 -0.0067
 2212TIP3    H128127   6.838   4.019  12.116 -0.5780 -0.4065 -0.0993
 2212TIP3    H228128   6.692   4.046  12.146 -0.9080 -1.0678 -1.0990
 2213TIP3   OH228129   0.316   5.882  16.568 -0.3543 -0.3687 -0.7951
 2213TIP3    H128130   0.252   5.846  16.507 -0.1182 -0.7639 -0.8119
 2213TIP3    H228131   0.284   5.970  16.588 -0.3780 -0.1971 -1.5749
 2214TIP3   OH228132   0.008   6.398   1.288 -0.1831  0.1653  0.0451
 2214TIP3    H128133  -0.078   6.363   1.313 -1.0973  1.4609 -1.2207
 2214TIP3    H228134   0.051   6.324   1.244 -1.0114 -0.2144 -0.1459
 2215TIP3   OH228135   3.417   4.360   5.749  0.6035  0.2933 -0.1160
 2215TIP3    H128136   3.379   4.342   5.835  1.1211 -2.7990 -0.4775
 2215TIP3    H228137   3.344   4.350   5.688  1.2925 -2.7144 -0.5135
 2216TIP3   OH228138   0.369   5.760  13.889 -0.0739  0.1717  0.1928
 2216TIP3    H128139   0.369   5.855  13.878 -0.4660  0.2414  0.7695
 2216TIP3    H228140   0.461   5.737  13.903 -0.0662  0.5602  0.8143
 2217TIP3   OH228141   1.723   0.491   5.082 -0.3761 -0.2060  0.6276
 2217TIP3    H128142   1.801   0.541   5.108 -1.0966  0.8729  0.7586
 2217TIP3    H228143   1.692   0.534   5.002 -0.2937 -1.2266  0.0381
 2218TIP3   OH228144   1.741   1.080   1.198 -0.4720 -0.4227 -0.1803
 2218TIP3    H128145   1.800   1.155   1.190 -0.8525 -0.2209 -1.1584
 2218TIP3    H228146   1.747   1.055   1.290  0.5114  0.1085 -0.0897
 2219TIP3   OH228147   5.393   6.014  11.165  0.4070 -0.1329  0.0801
 2219TIP3    H128148   5.470   5.972  11.127  0.0330  0.9548 -2.0138
 2219TIP3    H228149   5.357   6.067  11.093 -2.1643 -0.4543  1.0570
 2220TIP3   OH228150   1.575   3.416  12.965  0.1526 -0.3518 -0.7559
 2220TIP3    H128151   1.666   3.444  12.967  1.3011 -3.7404 -1.5694
 2220TIP3    H228152   1.557   3.384  13.053 -1.1043  2.6310  0.1302
 2221TIP3   OH228153   1.863   3.807  11.380 -0.3024  0.5319 -0.1167
 2221TIP3    H128154   1.825   3.821  11.294  0.0548 -0.7951 -0.5064
 2221TIP3    H228155   1.957   3.819  11.368 -0.0855 -1.1719 -0.2680
 2222TIP3   OH228156   5.369   6.507   0.317 -0.0332  0.8136 -0.2371
 2222TIP3    H128157   5.402   6.494   0.228 -0.4006 -2.6785  0.0644
 2222TIP3    H228158   5.447   6.508   0.372  0.1189  1.7819 -0.4622
 2223TIP3   OH228159   0.035   1.188   0.835 -0.1493 -0.0975  0.3271
 2223TIP3    H128160   0.081   1.104   0.844  0.3478  0.1630  0.2445
 2223TIP3    H228161   0.061   1.220   0.749  0.0822  0.3890  0.5772
 2224TIP3   OH228162   6.532   0.545   3.768  0.2145  0.1167 -0.2372
 2224TIP3    H128163   6.572   0.522   3.852 -0.4599 -0.0892  0.0273
 2224TIP3    H228164   6.452   0.592   3.791  1.0045  1.7475 -0.7799
 2225TIP3   OH228165   6.736   0.509   1.427  0.5666 -0.2535 -0.2965
 2225TIP3    H128166   6.663   0.498   1.366  1.2392 -1.4270 -0.9107
 2225TIP3    H228167   6.807   0.457   1.389  1.6120  0.5935  0.4717
 2226TIP3   OH228168   4.134   3.567   5.268  0.0224  0.2909  0.2392
 2226TIP3    H128169   4.049   3.596   5.299  0.6690  1.1292  1.2808
 2226TIP3    H228170   4.115   3.495   5.208 -1.2974 -0.9339  2.0825
 2227TIP3   OH228171   5.499   6.137   4.234  0.0896 -0.8424  0.1367
 2227TIP3    H128172   5.523   6.143   4.326 -0.6898 -0.1247  0.2993
 2227TIP3    H228173   5.559   6.197   4.189 -1.1917  0.7486  0.5079
 2228TIP3   OH228174   2.420   3.076  15.855  0.3755 -0.4638  0.5938
 2228TIP3    H128175   2.449   3.152  15.905  0.8376  0.9814 -1.7741
 2228TIP3    H228176   2.464   3.002  15.896  0.1478  0.5757  2.7616
 2229TIP3   OH228177   6.699   0.796  11.312  0.0682 -0.2631  0.3492
 2229TIP3    H128178   6.774   0.751  11.351  0.7353  1.2747  0.9000
 2229TIP3    H228179   6.732   0.884  11.291 -1.8481  0.7830  1.5228
 2230TIP3   OH228180   6.129   3.700   3.676 -0.5667 -0.4938  0.5100
 2230TIP3    H128181   6.142   3.784   3.720 -0.9291 -0.1170 -0.0965
 2230TIP3    H228182   6.128   3.721   3.583  1.2438 -1.4221  0.2425
 2231TIP3   OH228183   2.671   3.507  12.944 -0.4321  0.1110  0.2883
 2231TIP3    H128184   2.622   3.463  12.875 -1.2127 -0.1189  0.9881
 2231TIP3    H228185   2.687   3.595  12.909  1.4495 -0.8112 -1.2583
 2232TIP3   OH228186   5.726   0.412  13.698  0.3748  0.2920  0.3301
 2232TIP3    H128187   5.768   0.333  13.732 -2.4873 -1.9564 -1.1814
 2232TIP3    H228188   5.659   0.380  13.638 -0.6326  3.8994 -0.5899
 2233TIP3   OH228189   5.795   3.278   4.807  0.6248 -0.1891 -0.1180
 2233TIP3    H128190   5.746   3.272   4.889  1.4366  0.6832  0.4427
 2233TIP3    H228191   5.841   3.362   4.813 -0.4223  0.5493 -2.0782
 2234TIP3   OH228192   1.546   3.715  16.132  0.0399 -0.0296  0.0869
 2234TIP3    H128193   1.535   3.652  16.203  2.7713 -0.5889  0.0605
 2234TIP3    H228194   1.535   3.663  16.052  0.3692 -0.0692  0.0688
 2235TIP3   OH228195   1.964   0.221   5.567 -0.5234  0.1771 -0.4118
 2235TIP3    H128196   1.986   0.291   5.505 -0.8067  0.4795 -0.1776
 2235TIP3    H228197   1.988   0.140   5.522  0.4201  0.4598 -0.4245
 2236TIP3   OH228198   5.212   5.508   2.844  0.1199  0.1768  0.2368
 2236TIP3    H128199   5.278   5.567   2.809 -0.0657  1.4710  2.0035
 2236TIP3    H228200   5.162   5.562   2.905 -2.3556 -0.8658 -0.7876
 2237TIP3   OH228201   1.756   5.355   5.010  0.0351  0.5147 -0.4603
 2237TIP3    H128202   1.726   5.331   5.098  0.3029 -2.6616 -1.1642
 2237TIP3    H228203   1.825   5.420   5.025 -1.0584  1.2589  1.5734
 2238TIP3   OH228204   5.839   0.862  16.508 -0.9059 -0.4699 -0.1057
 2238TIP3    H128205   5.854   0.778  16.465  3.6258  0.4773 -0.6981
 2238TIP3    H228206   5.782   0.911  16.448  1.0055 -1.1251 -2.5430
 2239TIP3   OH228207   5.356   6.680  14.547 -0.1394  0.2633 -0.0195
 2239TIP3    H128208   5.445   6.686  14.581  0.4454  0.6535 -1.5755
 2239TIP3    H228209   5.358   6.605  14.488  0.5527  3.2299 -3.9891
 2240TIP3   OH228210   3.600   2.098   2.239 -0.5581  0.0047  0.6006
 2240TIP3    H128211   3.670   2.146   2.284 -0.8233  0.4273  0.5669
 2240TIP3    H228212   3.549   2.166   2.196  1.5158 -0.5693 -2.9652
 2241TIP3   OH228213   5.562   0.854  14.310 -0.2640 -0.1444  0.3921
 2241TIP3    H128214   5.621   0.805  14.367 -0.8558  0.1522  1.2503
 2241TIP3    H228215   5.618   0.881  14.237  0.0224 -2.2909 -0.2199
 2242TIP3   OH228216   6.501   1.676   2.867  1.0583 -0.6050  0.0912
 2242TIP3    H128217   6.438   1.612   2.899  1.0974 -0.9444 -0.5121
 2242TIP3    H228218   6.456   1.720   2.795  1.0057  0.0899  0.5446
 2243TIP3   OH228219   3.405   1.415  13.104  0.1551  0.3498 -0.8458
 2243TIP3    H128220   3.392   1.377  13.017 -1.6230 -1.6993  0.2651
 2243TIP3    H228221   3.335   1.481  13.111 -0.0843  0.0882 -0.7475
 2244TIP3   OH228222   6.723   6.477   5.238  0.2582  0.0569 -0.1152
 2244TIP3    H128223   6.746   6.409   5.174  1.8759  1.0794 -0.6655
 2244TIP3    H228224   6.677   6.543   5.186 -0.1508 -0.0165  0.1590
 2245TIP3   OH228225   5.472   5.508   1.891 -0.2648 -0.1953  0.0132
 2245TIP3    H128226   5.412   5.581   1.906  2.2930  1.8613  0.5749
 2245TIP3    H228227   5.504   5.522   1.802  1.7012  0.4973  0.8073
 2246TIP3   OH228228   1.616   2.549  14.100 -0.5769 -0.0037  0.1899
 2246TIP3    H128229   1.669   2.587  14.170  3.2164  0.2381 -2.6300
 2246TIP3    H228230   1.539   2.606  14.094  2.0377  3.7072  0.1022
 2247TIP3   OH228231   6.193   2.983  14.809  0.5800 -0.4572 -0.0775
 2247TIP3    H128232   6.158   3.046  14.746 -2.2680 -0.5505  1.3401
 2247TIP3    H228233   6.172   2.897  14.773 -2.5328 -0.5039  1.7302
 2248TIP3   OH228234   4.990   3.337  13.609 -0.1238 -0.4552  0.0761
 2248TIP3    H128235   4.929   3.410  13.606  0.1324 -0.2302  0.3854
 2248TIP3    H228236   5.001   3.312  13.517 -0.1209 -0.0365 -0.0382
 2249TIP3   OH228237   4.203   6.648  11.853  0.2240  0.2239  0.0527
 2249TIP3    H128238   4.110   6.648  11.830  0.7698  0.7116 -2.3068
 2249TIP3    H228239   4.208   6.696  11.936 -1.6000  0.3037  0.1274
 2250TIP3   OH228240   5.725   1.107   4.041  0.1004  0.3043  0.2176
 2250TIP3    H128241   5.721   1.020   4.002  0.3109 -0.5938  2.1094
 2250TIP3    H228242   5.658   1.158   3.995 -0.4521 -1.0316 -0.4850
 2251TIP3   OH228243   5.339   1.872   1.786 -0.3438  0.1903 -0.2863
 2251TIP3    H128244   5.332   1.778   1.803 -1.4086 -0.0177 -1.8073
 2251TIP3    H228245   5.411   1.901   1.843 -1.8562 -0.9879  2.2874
 2252TIP3   OH228246   1.227   1.051   6.145 -0.2749 -0.1837 -0.0283
 2252TIP3    H128247   1.224   1.039   6.240 -0.9507 -2.1810 -0.2889
 2252TIP3    H228248   1.229   0.962   6.110  1.2903  0.5457 -1.8475
 2253TIP3   OH228249   3.947   1.008  15.228  0.8103  0.0739 -0.1422
 2253TIP3    H128250   3.891   1.086  15.227  0.8115  0.0819 -2.2836
 2253TIP3    H228251   4.036   1.043  15.235  0.9056  0.3615 -2.4692
 2254TIP3   OH228252   5.961   3.756   3.225 -0.3652  0.3403  0.4826
 2254TIP3    H128253   6.029   3.692   3.204  0.8440  1.9090 -0.5162
 2254TIP3    H228254   5.939   3.797   3.142  0.5298  2.7874  1.3912
 2255TIP3   OH228255   3.136   6.798   5.512 -0.1697 -0.0002 -0.2558
 2255TIP3    H128256   3.076   6.726   5.530  1.0019 -0.7482  0.7489
 2255TIP3    H228257   3.159   6.787   5.419  1.2462 -1.9118  0.2782
 2256TIP3   OH228258   2.991   3.570   4.519  0.5303 -0.0822  0.4721
 2256TIP3    H128259   2.919   3.630   4.537  0.3722 -0.0749 -0.1834
 2256TIP3    H228260   3.057   3.593   4.584 -0.0654 -0.1070  1.0924
 2257TIP3   OH228261   3.153   0.759   3.627  0.1955  0.2429 -0.0407
 2257TIP3    H128262   3.121   0.840   3.588  2.1441  1.2960  0.5319
 2257TIP3    H228263   3.233   0.739   3.580  0.0459 -1.0475  0.2278
 2258TIP3   OH228264   3.304   2.528  13.744  0.9465  0.1907  0.2391
 2258TIP3    H128265   3.336   2.502  13.658 -0.8893  0.3756 -0.5176
 2258TIP3    H228266   3.379   2.518  13.802  1.7198 -1.6527 -1.0495
 2259TIP3   OH228267   4.371   1.082  12.722 -0.0968 -0.4452  0.2303
 2259TIP3    H128268   4.315   1.078  12.799 -0.7671  0.4811 -0.1930
 2259TIP3    H228269   4.457   1.053  12.753  0.3387  2.5296  1.9926
 2260TIP3   OH228270   0.751   1.626   6.116 -0.2073  0.2318 -0.4531
 2260TIP3    H128271   0.743   1.697   6.180  0.2371 -0.8549  0.8470
 2260TIP3    H228272   0.694   1.652   6.044 -0.7626  1.4719  0.4096
 2261TIP3   OH228273   2.104   1.907   0.407 -0.3007 -0.1802 -0.0011
 2261TIP3    H128274   2.185   1.921   0.358 -1.2444 -0.3159 -1.6269
 2261TIP3    H228275   2.060   1.835   0.361 -2.9848  2.1695 -1.2752
 2262TIP3   OH228276   5.080   1.699   1.492 -0.0016 -0.0006  0.1979
 2262TIP3    H128277   4.987   1.721   1.481  0.6799  4.0388  1.8420
 2262TIP3    H228278   5.123   1.741   1.417  0.7352 -0.2041  0.5049
 2263TIP3   OH228279   5.199   2.990   5.149  0.3552  1.1403 -0.0014
 2263TIP3    H128280   5.150   2.985   5.231  0.9511 -1.2464  0.2422
 2263TIP3    H228281   5.133   3.015   5.084 -1.0818 -1.3887  0.4375
 2264TIP3   OH228282   2.778   2.542  11.618 -0.3502 -0.2750  0.1640
 2264TIP3    H128283   2.709   2.547  11.551 -0.2927 -0.5709  0.0820
 2264TIP3    H228284   2.857   2.569  11.572 -0.1922 -1.0920 -0.0608
 2265TIP3   OH228285   2.430   1.314  13.435  0.4154  0.1859 -0.3616
 2265TIP3    H128286   2.523   1.290  13.427  0.2167 -0.5847 -0.4750
 2265TIP3    H228287   2.405   1.341  13.346  0.1868 -0.9236 -0.6439
 2266TIP3   OH228288   1.410   6.048   4.227 -0.0803  0.2193  0.8488
 2266TIP3    H128289   1.371   6.077   4.145  1.2667  1.9512  0.8060
 2266TIP3    H228290   1.356   5.974   4.254 -0.7217 -0.1793 -1.4369
 2267TIP3   OH228291   2.800   3.110   4.181 -0.3945 -0.0269  0.2495
 2267TIP3    H128292   2.859   3.167   4.131  2.0256 -2.0780  0.6499
 2267TIP3    H228293   2.812   3.138   4.272  0.1121 -0.5641  0.3501
 2268TIP3   OH228294   5.911   2.387  15.117 -0.1449  0.0073 -0.0763
 2268TIP3    H128295   5.931   2.307  15.069  2.0677 -0.4464  1.4959
 2268TIP3    H228296   5.816   2.392  15.118 -0.3396 -3.0048  0.4303
 2269TIP3   OH228297   1.718   5.725   4.873 -0.2979  0.2688  0.3379
 2269TIP3    H128298   1.725   5.685   4.787  0.7383  1.7333 -0.2797
 2269TIP3    H228299   1.644   5.679   4.915  1.1665 -2.6173 -0.1099
 2270TIP3   OH228300   3.856   5.673  15.153 -0.1328  0.7125  0.0118
 2270TIP3    H128301   3.926   5.697  15.213  1.6922 -1.9836 -0.9555
 2270TIP3    H228302   3.880   5.715  15.070 -0.7308  1.4043  0.1755
 2271TIP3   OH228303   4.212   0.780   0.536 -0.1870 -0.0111  0.1077
 2271TIP3    H128304   4.235   0.752   0.625 -0.8627  2.0197  0.9551
 2271TIP3    H228305   4.202   0.698   0.487  2.5044 -1.1179  1.2887
 2272TIP3   OH228306   6.405   0.769  14.725 -0.4778 -0.1211 -0.3280
 2272TIP3    H128307   6.493   0.803  14.706 -0.2536 -0.1695  0.5996
 2272TIP3    H228308   6.346   0.825  14.674  0.0604  0.1760 -0.6319
 2273TIP3   OH228309   1.898   3.780   5.634  0.1560 -0.1914 -0.2249
 2273TIP3    H128310   1.918   3.743   5.720  2.4367  0.8198 -0.2783
 2273TIP3    H228311   1.951   3.859   5.629  1.6751 -1.3249 -3.3834
 2274TIP3   OH228312   4.240   3.425  15.956 -0.2371 -0.3818 -0.7704
 2274TIP3    H128313   4.178   3.485  15.996 -0.9484 -0.8273 -1.1875
 2274TIP3    H228314   4.296   3.396  16.028  0.7255  1.4995 -0.7352
 2275TIP3   OH228315   4.153   0.061   3.790  0.5403 -0.0882 -0.1139
 2275TIP3    H128316   4.067   0.034   3.758 -1.3433  2.1901  2.7622
 2275TIP3    H228317   4.194  -0.020   3.822 -0.0211 -1.3655 -2.5237
 2276TIP3   OH228318   5.025   6.281   5.727  0.2724  0.3460  0.2082
 2276TIP3    H128319   5.045   6.188   5.743 -1.7977 -0.2616 -0.5397
 2276TIP3    H228320   4.983   6.309   5.808  0.9520  0.6658  0.4555
 2277TIP3   OH228321   2.006   3.627  15.342 -0.1248 -0.2113 -0.6882
 2277TIP3    H128322   2.022   3.598  15.252 -0.8745  0.3745 -1.0105
 2277TIP3    H228323   2.088   3.672  15.367  0.1270 -0.4753 -1.0338
 2278TIP3   OH228324   1.703   6.234   2.191 -0.1408 -0.1064 -0.5245
 2278TIP3    H128325   1.739   6.276   2.113  1.7026 -0.5979  0.0384
 2278TIP3    H228326   1.609   6.251   2.186 -0.0298  0.0573 -2.7315
 2279TIP3   OH228327   3.988   1.912   1.731  0.1986 -0.5145  0.0442
 2279TIP3    H128328   3.918   1.878   1.675 -0.5058  1.3928 -0.2781
 2279TIP3    H228329   3.945   1.931   1.814  0.6099 -0.5334  0.2619
 2280TIP3   OH228330   1.415   1.407  17.049 -0.0891 -0.0290 -0.2402
 2280TIP3    H128331   1.321   1.391  17.046  0.0827 -1.2034  0.2285
 2280TIP3    H228332   1.442   1.373  17.135  0.2921  2.8852  0.8304
 2281TIP3   OH228333   5.220   4.125   0.083  0.0867  0.1317 -0.0882
 2281TIP3    H128334   5.130   4.156   0.073  0.4917  1.2914 -0.1743
 2281TIP3    H228335   5.210   4.032   0.103 -1.0420 -0.4882 -3.1714
 2282TIP3   OH228336   3.656   5.555  13.363  0.0138 -0.0622 -0.4692
 2282TIP3    H128337   3.615   5.482  13.409 -0.6145  1.4736  1.4708
 2282TIP3    H228338   3.700   5.514  13.288 -0.5230 -2.3897  0.4339
 2283TIP3   OH228339   1.589   2.573   3.658  0.4980  0.0434  0.3375
 2283TIP3    H128340   1.604   2.494   3.605  2.1371 -0.1413  1.0555
 2283TIP3    H228341   1.537   2.543   3.732 -0.6294  0.0371 -0.4493
 2284TIP3   OH228342   2.387   3.622  12.296  0.2566 -0.5807  0.3035
 2284TIP3    H128343   2.410   3.637  12.387  0.7472 -0.4637  0.1631
 2284TIP3    H228344   2.395   3.707  12.254 -1.3190 -0.3523  0.4324
 2285TIP3   OH228345   0.434   5.727  11.161 -0.0408 -0.4512 -0.4767
 2285TIP3    H128346   0.416   5.762  11.074  2.1177 -0.0861 -0.7992
 2285TIP3    H228347   0.517   5.680  11.151 -1.8202 -3.9334  0.4306
 2286TIP3   OH228348   0.805   5.698  17.219  0.2406 -0.2507 -0.3063
 2286TIP3    H128349   0.856   5.649  17.284 -1.2267 -0.4918  0.6958
 2286TIP3    H228350   0.868   5.722  17.152  1.3018 -2.2589 -0.0783
 2287TIP3   OH228351   1.831   2.014   4.590 -0.1095 -0.2853 -0.3737
 2287TIP3    H128352   1.918   2.043   4.617 -0.6962  0.0279  1.2071
 2287TIP3    H228353   1.848   1.951   4.520  1.3445  0.4832 -0.7298
 2288TIP3   OH228354   5.456   1.810  13.861  0.1862 -0.4016  0.1798
 2288TIP3    H128355   5.400   1.884  13.885  1.2207  0.2036  0.7766
 2288TIP3    H228356   5.400   1.753  13.808 -0.8537  0.4115  0.3934
 2289TIP3   OH228357   6.133   0.280   6.440  0.0777 -0.1776 -0.4098
 2289TIP3    H128358   6.115   0.365   6.400  1.4372  0.8056  1.0393
 2289TIP3    H228359   6.229   0.277   6.449 -0.1673 -0.5210  2.4413
 2290TIP3   OH228360   5.419   2.327   0.035 -0.5422  0.0701  0.3300
 2290TIP3    H128361   5.488   2.285   0.087 -0.3548 -0.3470 -0.2447
 2290TIP3    H228362   5.398   2.263  -0.033 -1.1843  0.3806  0.2319
 2291TIP3   OH228363   3.378   3.957  11.995  0.7417  0.7372  0.8108
 2291TIP3    H128364   3.306   3.916  12.043 -0.6056  1.5827 -0.4327
 2291TIP3    H228365   3.382   3.909  11.912  0.4284  1.8464  0.1436
 2292TIP3   OH228366   5.877   0.076  13.552  0.1112 -0.3468  0.2031
 2292TIP3    H128367   5.887   0.117  13.638  0.8188  1.8405 -0.8786
 2292TIP3    H228368   5.951   0.108  13.502  0.5316 -2.7889 -0.7991
 2293TIP3   OH228369   0.072   6.346   4.316  0.0922 -0.0230 -0.4242
 2293TIP3    H128370   0.149   6.291   4.330 -0.6120 -1.0190 -0.3874
 2293TIP3    H228371   0.083   6.381   4.228  1.1243  0.7128 -0.0071
 2294TIP3   OH228372   0.579   0.279   4.397  0.1390  0.3068  0.0161
 2294TIP3    H128373   0.521   0.244   4.330  4.0457 -2.0703 -2.3525
 2294TIP3    H228374   0.576   0.214   4.467  1.3699 -0.8192 -0.9526
 2295TIP3   OH228375   2.393   5.670  16.675 -0.1067  0.0316 -0.5394
 2295TIP3    H128376   2.451   5.593  16.680 -1.3596 -0.8123  1.4114
 2295TIP3    H228377   2.305   5.633  16.675 -0.6931  1.3267 -3.3514
 2296TIP3   OH228378   4.218   2.933   1.692 -0.1743  0.1182  0.1820
 2296TIP3    H128379   4.142   2.944   1.749  0.0634 -0.3671  0.6026
 2296TIP3    H228380   4.224   2.839   1.677  0.4988  0.1221  0.3782
 2297TIP3   OH228381   6.652   3.942   3.414  0.5233  0.2471 -0.0142
 2297TIP3    H128382   6.600   3.880   3.465  1.6889 -1.4956 -0.8933
 2297TIP3    H228383   6.643   3.913   3.324  1.5172  1.0363 -0.3749
 2298TIP3   OH228384   5.739   0.942  14.713  0.2016 -0.2264  0.2919
 2298TIP3    H128385   5.727   0.898  14.797 -1.5016 -0.6697 -0.1545
 2298TIP3    H228386   5.770   1.029  14.735 -3.4039  0.8166  1.6232
 2299TIP3   OH228387   4.714   3.954  10.764 -0.1823 -0.6094  0.2166
 2299TIP3    H128388   4.764   3.873  10.758  1.9020  0.4906  1.8972
 2299TIP3    H228389   4.780   4.023  10.759 -1.9337  1.0241 -1.3392
 2300TIP3   OH228390   6.435   6.647  15.940  0.0228  0.3086 -0.3130
 2300TIP3    H128391   6.484   6.729  15.941  0.7237 -0.0206 -2.8945
 2300TIP3    H228392   6.397   6.643  15.852  0.9798 -2.6813 -0.6529
 2301TIP3   OH228393   3.604   3.756  13.904  0.4623  0.2804  0.2032
 2301TIP3    H128394   3.644   3.831  13.859  0.3409 -0.1339 -0.6023
 2301TIP3    H228395   3.571   3.793  13.986 -0.6656  1.3693 -0.7222
 2302TIP3   OH228396   0.580   4.545  13.087 -0.1196 -0.0491  0.2537
 2302TIP3    H128397   0.515   4.520  13.021  0.1710  2.4767 -1.0442
 2302TIP3    H228398   0.662   4.511  13.053 -0.0848  0.6115 -0.3345
 2303TIP3   OH228399   0.768   4.934  12.977  0.5750 -0.1368  0.1902
 2303TIP3    H128400   0.737   4.907  13.063  0.1409 -0.4440 -0.0600
 2303TIP3    H228401   0.765   5.030  12.979 -1.5419 -0.1645 -0.2326
 2304TIP3   OH228402   2.059   3.614  15.066  0.2493 -0.3732 -0.3593
 2304TIP3    H128403   2.037   3.575  14.982  0.6758  0.6031 -0.9330
 2304TIP3    H228404   2.082   3.705  15.045  3.6053 -0.9888  0.3647
 2305TIP3   OH228405   2.419   5.038  11.590 -0.4572  0.2587  0.1759
 2305TIP3    H128406   2.466   5.061  11.670  0.7624 -4.2039  0.8889
 2305TIP3    H228407   2.367   4.962  11.614 -2.0631  0.3961 -2.6551
 2306TIP3   OH228408   5.318   5.811  10.255 -0.0530  0.5440  0.6738
 2306TIP3    H128409   5.247   5.833  10.195  1.2697  1.0499 -0.7418
 2306TIP3    H228410   5.328   5.716  10.247  2.0623  0.9629 -2.1599
 2307TIP3   OH228411   3.278   6.336  13.497  0.0643 -0.3172 -0.7271
 2307TIP3    H128412   3.242   6.413  13.541  0.0605 -0.2991 -0.7632
 2307TIP3    H228413   3.230   6.263  13.534  1.6254 -0.5158  1.0140
 2308TIP3   OH228414   2.161   5.815  12.346  0.1820  0.1443 -0.7024
 2308TIP3    H128415   2.068   5.801  12.324  0.4935 -2.3616 -0.5727
 2308TIP3    H228416   2.207   5.801  12.263  0.5136  0.7454 -0.6201
 2309TIP3   OH228417   3.878   1.118   1.625  0.0013  0.4215 -0.2822
 2309TIP3    H128418   3.928   1.199   1.618  0.6913  0.0655  0.3780
 2309TIP3    H228419   3.943   1.051   1.647 -0.6972 -0.1233  0.1903
 2310TIP3   OH228420   5.965   4.411  11.349  0.6329  0.2948 -0.3401
 2310TIP3    H128421   6.033   4.345  11.342 -0.7338 -1.3312  1.0822
 2310TIP3    H228422   5.969   4.440  11.440  0.7800  1.6809 -0.7828
 2311TIP3   OH228423   0.731   1.757   3.843 -0.3074 -0.0336 -0.4076
 2311TIP3    H128424   0.642   1.738   3.873 -0.6310 -1.2407 -2.0214
 2311TIP3    H228425   0.763   1.674   3.809  1.1308  0.5902 -0.6141
 2312TIP3   OH228426   4.216   4.665   6.582  0.3411 -0.2091 -0.1516
 2312TIP3    H128427   4.206   4.583   6.631 -1.8633  0.8628  1.3201
 2312TIP3    H228428   4.213   4.733   6.650  0.8945  1.1333 -1.4636
 2313TIP3   OH228429   5.222   4.258   0.566  0.9597 -0.2388  0.1652
 2313TIP3    H128430   5.280   4.196   0.522 -0.1517 -0.2039 -1.3822
 2313TIP3    H228431   5.137   4.247   0.523  0.0248  0.3444  1.7883
 2314TIP3   OH228432   0.494   3.217   6.057 -0.4678  0.3396  0.3686
 2314TIP3    H128433   0.550   3.174   6.122  0.6691  0.7524 -0.3349
 2314TIP3    H228434   0.409   3.175   6.068  0.4352 -1.5792  0.1986
 2315TIP3   OH228435   1.483   1.107  16.792  0.1522  0.0108 -0.1752
 2315TIP3    H128436   1.447   1.044  16.730 -0.4205  0.5408 -0.3825
 2315TIP3    H228437   1.413   1.170  16.806  1.3703  1.6486 -1.4006
 2316TIP3   OH228438   1.004   2.473  12.012 -0.0775 -0.0981 -0.0101
 2316TIP3    H128439   0.958   2.497  12.093 -1.3325  0.2788 -0.8188
 2316TIP3    H228440   1.087   2.519  12.017 -0.1213 -0.1260  1.0986
 2317TIP3   OH228441   4.318   1.084   6.156  0.3705 -0.0630  0.1199
 2317TIP3    H128442   4.340   1.105   6.066 -0.1468  1.5779  0.3551
 2317TIP3    H228443   4.402   1.062   6.197  0.7572  0.2957 -0.4708
 2318TIP3   OH228444   1.428   5.223   5.033 -0.1775  0.0162  0.2098
 2318TIP3    H128445   1.423   5.146   4.978  1.9809 -2.4701  3.3127
 2318TIP3    H228446   1.454   5.294   4.974 -0.8221 -1.9178 -2.4427
 2319TIP3   OH228447   3.062   0.223  15.951  0.5702 -0.6850  0.5052
 2319TIP3    H128448   3.027   0.157  15.891  0.1834 -0.5100  0.5339
 2319TIP3    H228449   2.999   0.295  15.946  1.6372  0.1769 -0.4378
 2320TIP3   OH228450   2.235   3.246   0.944  0.3613  0.1534 -0.4508
 2320TIP3    H128451   2.175   3.311   0.980 -2.1325 -1.5842 -1.3192
 2320TIP3    H228452   2.202   3.229   0.856  1.0964 -2.0520 -0.3312
 2321TIP3   OH228453   2.345   6.074   2.746  0.8120  0.4375  0.4861
 2321TIP3    H128454   2.331   6.141   2.813  0.2629  0.1159  0.6900
 2321TIP3    H228455   2.400   6.008   2.788 -1.1322 -0.7226  1.2380
 2322TIP3   OH228456   1.859   2.242   5.248 -0.1020  0.1716 -0.5579
 2322TIP3    H128457   1.950   2.256   5.275 -0.1938 -0.9605  0.3904
 2322TIP3    H228458   1.819   2.196   5.322 -1.8155  1.8315 -0.3892
 2323TIP3   OH228459   2.648   3.485  11.166  0.1904 -0.3712  0.0116
 2323TIP3    H128460   2.602   3.561  11.131 -2.4148 -1.7497  0.3059
 2323TIP3    H228461   2.671   3.510  11.256 -0.1194  0.2842 -0.0912
 2324TIP3   OH228462   6.542   5.609   2.593 -0.1959 -0.3012  0.1702
 2324TIP3    H128463   6.464   5.560   2.567 -1.2384  1.1771  0.4269
 2324TIP3    H228464   6.587   5.630   2.511  0.5505 -2.1269  0.0932
 2325TIP3   OH228465   0.091   4.362   0.550 -0.2387  0.3598 -0.4213
 2325TIP3    H128466   0.019   4.397   0.498 -0.3198 -0.0525 -0.5911
 2325TIP3    H228467   0.057   4.360   0.639 -0.8057 -0.7772 -0.6456
 2326TIP3   OH228468   6.277   4.031   0.161  0.2847 -0.1863  0.1199
 2326TIP3    H128469   6.357   3.999   0.201 -0.5574 -1.4860  0.8032
 2326TIP3    H228470   6.224   4.063   0.234  0.0536  0.3962 -0.2940
 2327TIP3   OH228471   2.093   2.746  11.542 -1.0326  0.5738 -0.1382
 2327TIP3    H128472   2.088   2.703  11.628 -1.1655  0.7723 -0.0457
 2327TIP3    H228473   2.101   2.674  11.480 -0.2826  0.4539  0.0908
 2328TIP3   OH228474   2.454   5.651   4.152  0.0770  0.0230 -0.1078
 2328TIP3    H128475   2.461   5.745   4.170 -1.0023  0.6289 -2.6899
 2328TIP3    H228476   2.519   5.635   4.084  1.4047 -1.4663  1.4739
 2329TIP3   OH228477   6.707   5.243  11.804 -0.4284  0.4680 -0.4604
 2329TIP3    H128478   6.689   5.186  11.879  1.8380 -0.3928 -0.5240
 2329TIP3    H228479   6.727   5.328  11.842  2.0769 -0.3015  0.0677
 2330TIP3   OH228480   3.663   4.398   1.151 -0.4550 -0.2419 -0.3658
 2330TIP3    H128481   3.641   4.316   1.105 -0.8786  0.4730 -1.4515
 2330TIP3    H228482   3.699   4.455   1.083  0.8573  0.1066  0.5909
 2331TIP3   OH228483   2.764   2.590   0.302  0.0392 -0.6220 -0.4352
 2331TIP3    H128484   2.734   2.660   0.361 -0.2556  0.9596 -2.4110
 2331TIP3    H228485   2.686   2.536   0.288 -0.9948  1.3481 -2.5873
 2332TIP3   OH228486   2.368   2.857   2.408  0.0117 -0.6401  0.0490
 2332TIP3    H128487   2.279   2.860   2.375  0.4373 -3.5935 -1.5537
 2332TIP3    H228488   2.422   2.842   2.330  1.5731 -2.2702  1.3893
 2333TIP3   OH228489   0.940   1.247   5.343 -0.2418  0.4177  0.4685
 2333TIP3    H128490   0.885   1.194   5.401 -1.8780  0.9598 -0.5673
 2333TIP3    H228491   0.961   1.325   5.394  0.9884 -0.5502  1.4803
 2334TIP3   OH228492   1.899   1.343   2.194 -0.2036  0.9564  0.4002
 2334TIP3    H128493   1.925   1.288   2.120 -0.3927 -1.7021  2.2225
 2334TIP3    H228494   1.950   1.423   2.184 -0.7035  0.9726 -2.9448
 2335TIP3   OH228495   1.459   1.221  11.687 -0.0110 -0.4496 -0.2223
 2335TIP3    H128496   1.415   1.137  11.672 -0.7454  0.4183 -3.0962
 2335TIP3    H228497   1.400   1.268  11.747  1.0685 -2.4611  2.5138
 2336TIP3   OH228498   0.796   1.530   2.545  0.1749  0.1150  0.0150
 2336TIP3    H128499   0.819   1.531   2.453  0.2782 -1.5058  0.0135
 2336TIP3    H228500   0.879   1.520   2.591  0.1337  1.0081  0.2925
 2337TIP3   OH228501   2.469   3.612   4.669  0.0413  0.0589  0.1766
 2337TIP3    H128502   2.430   3.644   4.587  2.0231  1.5580 -0.2076
 2337TIP3    H228503   2.446   3.678   4.734  0.8635  0.3063  0.2182
 2338TIP3   OH228504   3.511   6.214  16.557 -1.0314  0.5349  0.3664
 2338TIP3    H128505   3.588   6.159  16.570  0.4061  1.9106 -1.8732
 2338TIP3    H228506   3.462   6.171  16.487 -0.5466  1.3997 -0.5249
 2339TIP3   OH228507   6.367   6.621   2.581  0.0235 -0.8032 -0.1348
 2339TIP3    H128508   6.395   6.637   2.671 -1.2866 -2.2893  0.5549
 2339TIP3    H228509   6.332   6.705   2.551  1.9434  0.1311  0.1700
 2340TIP3   OH228510   5.313   0.741   6.010  0.0531  0.1089 -0.0182
 2340TIP3    H128511   5.314   0.739   6.106 -1.0378 -2.0581 -0.0164
 2340TIP3    H228512   5.358   0.822   5.987  0.0004  0.8404  2.3317
 2341TIP3   OH228513   4.363   4.069   1.064  0.1819 -0.0495  0.1070
 2341TIP3    H128514   4.295   4.023   1.113  1.3890 -0.7601  1.1329
 2341TIP3    H228515   4.319   4.146   1.029 -1.0771 -0.3375  1.0324
 2342TIP3   OH228516   5.991   6.577   0.503 -0.1747 -0.1640  0.3528
 2342TIP3    H128517   6.069   6.602   0.454 -0.0404  0.6060  0.9502
 2342TIP3    H228518   5.960   6.497   0.460  1.7408 -1.2719  0.9631
 2343TIP3   OH228519   0.210   4.421   6.096 -0.3210 -0.0612  0.2997
 2343TIP3    H128520   0.248   4.508   6.088  2.4387 -1.3976 -1.8610
 2343TIP3    H228521   0.235   4.391   6.184 -0.4872  0.9326  0.6849
 2344TIP3   OH228522   4.358   4.478  11.597  0.5712  0.2052  0.2064
 2344TIP3    H128523   4.293   4.412  11.618  0.5503 -0.3579 -1.5546
 2344TIP3    H228524   4.315   4.536  11.534  1.7175 -0.1633 -0.9683
 2345TIP3   OH228525   5.632   3.494  16.160 -0.1957 -0.1166 -0.4364
 2345TIP3    H128526   5.654   3.587  16.157  1.3516 -0.4246  0.7614
 2345TIP3    H228527   5.610   3.472  16.070  1.8785  0.8260 -1.1996
 2346TIP3   OH228528   2.481   4.042  12.030  0.5500 -0.1532 -0.7565
 2346TIP3    H128529   2.576   4.036  12.025  0.5662  0.5147 -1.4051
 2346TIP3    H228530   2.450   3.986  11.959  0.4645 -0.2154 -0.6695
 2347TIP3   OH228531   5.874   0.114   5.633 -0.2526 -0.8232 -0.0584
 2347TIP3    H128532   5.965   0.109   5.662  0.3423 -0.4441 -1.7956
 2347TIP3    H228533   5.869   0.196   5.584 -1.8872 -0.1310  1.2073
 2348TIP3   OH228534   0.662   4.956  14.433 -0.0279  0.3619 -0.5813
 2348TIP3    H128535   0.756   4.953  14.455 -0.2564 -1.1513  0.2335
 2348TIP3    H228536   0.632   5.038  14.473  1.1671  1.4553 -1.8413
 2349TIP3   OH228537   1.942   2.029   0.866 -0.1575  0.0477  0.8256
 2349TIP3    H128538   1.902   1.943   0.876 -0.4021  0.1673  0.8699
 2349TIP3    H228539   1.998   2.021   0.788 -2.1345  0.5829 -0.6802
 2350TIP3   OH228540   0.250   1.943  11.618  0.2239  0.4382 -0.1786
 2350TIP3    H128541   0.201   1.970  11.696 -1.6490  0.1988 -1.2608
 2350TIP3    H228542   0.338   1.925  11.651  0.2493  3.0950  1.4250
 2351TIP3   OH228543   6.796   6.612   4.010  0.7005 -0.2371  0.3461
 2351TIP3    H128544   6.746   6.684   4.047 -2.1295 -1.4977 -0.8865
 2351TIP3    H228545   6.757   6.533   4.049  0.0637 -1.3726 -2.4672
 2352TIP3   OH228546   3.220   6.074  16.185 -0.5015  0.2120 -0.1098
 2352TIP3    H128547   3.238   6.132  16.111  0.5352  1.1555  0.8602
 2352TIP3    H228548   3.285   6.004  16.176 -2.4520 -1.4383 -1.9009
 2353TIP3   OH228549   0.822   6.583  11.544  0.3571 -0.3253  0.6019
 2353TIP3    H128550   0.867   6.632  11.476 -0.5918  1.8950  1.5421
 2353TIP3    H228551   0.881   6.584  11.619  0.0911 -0.1483  0.8090
 2354TIP3   OH228552   0.496   4.895   1.829 -0.2493  0.9821 -0.0028
 2354TIP3    H128553   0.569   4.909   1.769 -0.3186 -0.8931 -0.5492
 2354TIP3    H228554   0.519   4.945   1.907  2.0628 -0.3396  0.1857
 2355TIP3   OH228555   0.590   3.145   4.888 -0.1461 -0.0624 -0.9456
 2355TIP3    H128556   0.648   3.139   4.964 -2.2198 -0.0834  0.6765
 2355TIP3    H228557   0.560   3.236   4.888 -1.1886 -0.4025 -0.9554
 2356TIP3   OH228558   1.950   6.320  15.950 -0.1741 -0.3822  0.0014
 2356TIP3    H128559   1.959   6.415  15.943  0.3157 -0.4230  0.0378
 2356TIP3    H228560   1.938   6.289  15.860  1.5387 -0.4625 -0.2261
 2357TIP3   OH228561   2.733   4.620  12.567 -0.7265  0.4740 -0.2880
 2357TIP3    H128562   2.695   4.533  12.581  0.0916  0.1353 -0.1740
 2357TIP3    H228563   2.826   4.610  12.589 -0.6832  1.4445  0.0095
 2358TIP3   OH228564   3.529   6.135   0.519  0.4325 -0.4294 -0.4183
 2358TIP3    H128565   3.522   6.095   0.433 -0.7363 -1.5931  0.1869
 2358TIP3    H228566   3.582   6.073   0.570 -0.8374 -0.9267  0.3354
 2359TIP3   OH228567   5.544   5.981   5.492  0.3433  0.4534  0.0055
 2359TIP3    H128568   5.503   5.953   5.574 -0.0537 -0.5098 -0.5189
 2359TIP3    H228569   5.550   5.902   5.440  0.5141  1.0852 -0.9420
 2360TIP3   OH228570   1.904   0.765  12.333  0.4176  0.4448  0.1307
 2360TIP3    H128571   1.866   0.849  12.362 -1.4048 -0.3249  0.0833
 2360TIP3    H228572   1.932   0.723  12.415 -1.2601 -0.0882  0.4662
 2361TIP3   OH228573   3.622   1.715   0.293 -0.0162 -0.0371 -0.7311
 2361TIP3    H128574   3.661   1.629   0.308 -0.2112 -0.1170 -0.6749
 2361TIP3    H228575   3.696   1.773   0.278  0.0884 -0.3208 -1.3253
 2362TIP3   OH228576   5.275   6.215   1.947  0.7804  0.7596  0.1587
 2362TIP3    H128577   5.368   6.209   1.924  0.4701 -0.6009 -0.8861
 2362TIP3    H228578   5.230   6.174   1.872 -0.4286 -1.8095  2.2030
 2363TIP3   OH228579   2.518   2.473   0.384  0.1493  0.3417  0.0376
 2363TIP3    H128580   2.485   2.551   0.429  2.4845  1.5647 -0.3271
 2363TIP3    H228581   2.447   2.449   0.325 -0.6467  2.1433  0.2082
 2364TIP3   OH228582   5.279   5.542  15.026 -0.2672  0.7843  0.0046
 2364TIP3    H128583   5.188   5.532  15.054  0.0016  0.8041  0.9015
 2364TIP3    H228584   5.330   5.514  15.102  0.4760 -0.0138 -0.7793
 2365TIP3   OH228585   1.764   1.340   1.424 -0.3496  0.2497 -0.0681
 2365TIP3    H128586   1.735   1.431   1.425 -0.7756  0.1096  1.0986
 2365TIP3    H228587   1.698   1.293   1.474  0.5321 -0.4974  0.4189
 2366TIP3   OH228588   5.016   3.842   2.098 -0.0212 -0.4534  0.5096
 2366TIP3    H128589   5.001   3.930   2.132 -2.2718 -0.2143 -0.9806
 2366TIP3    H228590   4.975   3.783   2.161 -0.5748 -0.2759  0.3169
 2367TIP3   OH228591   2.093   4.405  12.950  0.3358 -0.0908  0.6049
 2367TIP3    H128592   2.040   4.415  13.030  1.6889  2.6580  1.2042
 2367TIP3    H228593   2.066   4.478  12.894  2.4181  0.4892  0.3203
 2368TIP3   OH228594   4.233   4.394   3.308 -0.1604  0.4073 -0.1377
 2368TIP3    H128595   4.316   4.421   3.268  1.4780 -3.8554  0.0671
 2368TIP3    H228596   4.237   4.430   3.397  0.9379  1.2703 -0.5177
 2369TIP3   OH228597   1.215   2.983   5.923  0.0971 -0.4293  0.0220
 2369TIP3    H128598   1.219   2.996   5.828  3.8986  1.8151  0.3831
 2369TIP3    H228599   1.148   3.046   5.952  0.0357 -0.0034 -0.9947
 2370TIP3   OH228600   3.881   1.758   5.619 -0.1570 -0.1275 -0.5580
 2370TIP3    H128601   3.802   1.787   5.573  0.5466  2.1193 -0.3976
 2370TIP3    H228602   3.945   1.743   5.550  0.4647  1.8794 -0.4459
 2371TIP3   OH228603   2.937   4.508  14.387  0.4742 -0.1793  0.2761
 2371TIP3    H128604   3.013   4.451  14.376  0.7971  0.0633  1.2238
 2371TIP3    H228605   2.909   4.527  14.298  1.8121  0.1139 -0.0975
 2372TIP3   OH228606   0.637   1.298  15.490 -0.9237  0.9236 -0.3935
 2372TIP3    H128607   0.620   1.340  15.405 -1.9399  0.1580 -0.5680
 2372TIP3    H228608   0.722   1.334  15.517  0.3891 -0.3450 -2.6695
 2373TIP3   OH228609   4.774   0.115   3.938 -0.2063 -0.4162  0.1541
 2373TIP3    H128610   4.832   0.140   3.866  1.7515 -2.2069  1.0577
 2373TIP3    H228611   4.730   0.196   3.963  1.7156  0.9335 -0.7419
 2374TIP3   OH228612   2.309   0.837  12.685  0.0826  0.3352 -0.1447
 2374TIP3    H128613   2.338   0.790  12.764  0.1600 -1.4776 -1.2192
 2374TIP3    H228614   2.381   0.826  12.623 -1.4379 -1.3076 -1.6703
 2375TIP3   OH228615   5.217   2.848   1.942 -0.6860 -0.0108  0.5342
 2375TIP3    H128616   5.160   2.923   1.922  0.6262  1.5728  2.5284
 2375TIP3    H228617   5.261   2.872   2.024  0.4163 -2.6088  0.7607
 2376TIP3   OH228618   5.820   5.175   1.925  0.1431 -0.1007 -0.2630
 2376TIP3    H128619   5.915   5.187   1.923 -0.0664  1.6428 -0.2123
 2376TIP3    H228620   5.788   5.227   1.851 -0.9048  0.5590  0.6494
 2377TIP3   OH228621   2.644   1.497   2.181  0.8090  0.6670 -0.3371
 2377TIP3    H128622   2.663   1.421   2.126  1.7138  0.0583  0.7927
 2377TIP3    H228623   2.629   1.568   2.119  0.9426 -0.2033 -1.3874
 2378TIP3   OH228624   1.583   3.457   0.421  0.1124 -0.7392  0.2910
 2378TIP3    H128625   1.573   3.403   0.499  1.7615 -0.3867  0.7574
 2378TIP3    H228626   1.498   3.501   0.411 -0.0617 -0.6804  1.9548
 2379TIP3   OH228627   3.870   0.639  12.288 -0.4796 -0.3822 -0.1442
 2379TIP3    H128628   3.964   0.661  12.286 -0.3612 -0.5998  1.8187
 2379TIP3    H228629   3.849   0.616  12.198  1.4837 -0.7889 -0.5341
 2380TIP3   OH228630   0.670   3.509  12.696  0.7587  0.4707  0.0003
 2380TIP3    H128631   0.617   3.504  12.617  1.8642 -0.3369 -0.7066
 2380TIP3    H228632   0.641   3.435  12.749 -0.6468  1.5617  0.7915
 2381TIP3   OH228633   1.827   0.101   0.487 -0.0414 -0.4582 -0.0101
 2381TIP3    H128634   1.801   0.180   0.439  0.2082  0.0970  0.7636
 2381TIP3    H228635   1.752   0.082   0.544  1.5749  1.7191  2.9565
 2382TIP3   OH228636   0.797   2.769   3.987 -0.3675 -0.0003 -0.5121
 2382TIP3    H128637   0.862   2.811   3.932 -0.2392 -0.2603 -0.5555
 2382TIP3    H228638   0.761   2.841   4.040  0.8680 -0.0637  0.4426
 2383TIP3   OH228639   3.545   6.364  15.514 -0.4153  1.0093  0.6198
 2383TIP3    H128640   3.486   6.422  15.562 -2.2651 -0.0013 -0.3921
 2383TIP3    H228641   3.487   6.306  15.464  1.4166 -1.0421  0.8005
 2384TIP3   OH228642   6.717   6.382  12.458 -0.1066 -0.0866  0.3818
 2384TIP3    H128643   6.641   6.337  12.421 -0.7402  0.4902  0.9466
 2384TIP3    H228644   6.721   6.465  12.411  0.2848 -0.1919  0.2291
 2385TIP3   OH228645   1.576   6.193  13.987 -0.3914  0.1030 -0.3122
 2385TIP3    H128646   1.538   6.166  14.070  2.2381  2.5368  1.8168
 2385TIP3    H228647   1.536   6.278  13.969  2.1385  1.5868  0.7487
 2386TIP3   OH228648   6.532   5.554  15.682  0.0821  0.7809 -0.4142
 2386TIP3    H128649   6.535   5.541  15.776  0.2821  1.4955 -0.3186
 2386TIP3    H228650   6.553   5.647  15.670 -0.8203  0.9058 -1.1005
 2387TIP3   OH228651   5.615   3.420  14.220 -0.7987 -0.1926  0.6290
 2387TIP3    H128652   5.681   3.372  14.171  1.1485  1.4040  1.6125
 2387TIP3    H228653   5.582   3.485  14.158 -0.6107 -0.2318  0.4884
 2388TIP3   OH228654   2.542   5.145  14.956 -0.0596 -0.5020 -0.2775
 2388TIP3    H128655   2.519   5.093  15.032 -0.4723  0.8809  0.5635
 2388TIP3    H228656   2.474   5.124  14.891 -1.0911  0.1173  0.5874
 2389TIP3   OH228657   1.899   5.391   5.379 -0.3578  0.1326  0.4425
 2389TIP3    H128658   1.986   5.404   5.341  0.4921  0.4712  2.4310
 2389TIP3    H228659   1.880   5.474   5.424 -1.3761 -0.2141  0.6691
 2390TIP3   OH228660   3.307   4.759  13.503  0.5725 -0.1100 -0.1493
 2390TIP3    H128661   3.340   4.785  13.417  1.1971 -1.5774 -0.3560
 2390TIP3    H228662   3.318   4.664  13.506 -0.1330 -0.1613  1.2647
 2391TIP3   OH228663   0.260   1.701  11.931 -0.0360  0.3403 -0.0717
 2391TIP3    H128664   0.253   1.647  12.010  1.3283  0.6638  0.2893
 2391TIP3    H228665   0.272   1.790  11.964  1.8052  0.3247 -0.6046
 2392TIP3   OH228666   0.172   1.487   4.520  0.4008 -0.0410  0.3027
 2392TIP3    H128667   0.258   1.529   4.517  0.4085 -0.1147 -0.8312
 2392TIP3    H228668   0.157   1.457   4.430  0.5848 -2.8568  1.1703
 2393TIP3   OH228669   2.308   4.023   5.381  0.3099 -0.4403  0.2327
 2393TIP3    H128670   2.313   3.958   5.311 -1.9781 -0.0219 -0.3553
 2393TIP3    H228671   2.312   4.108   5.336  1.8771 -0.1485  0.8804
 2394TIP3   OH228672   3.213   4.539   4.706 -0.2740  0.0081  0.1399
 2394TIP3    H128673   3.136   4.515   4.656 -0.0115 -0.0901 -0.2225
 2394TIP3    H228674   3.189   4.621   4.749 -1.3494 -1.1555  1.7851
 2395TIP3   OH228675   3.487   5.990  12.050  0.3550 -0.4140 -0.2784
 2395TIP3    H128676   3.462   6.077  12.019  0.0139 -0.5796 -0.4735
 2395TIP3    H228677   3.580   5.982  12.028  0.4938  0.0673  0.1353
 2396TIP3   OH228678   4.103   0.992   4.435  0.6525  0.0844 -0.1321
 2396TIP3    H128679   4.194   1.019   4.426  0.5678  0.2862 -0.3892
 2396TIP3    H228680   4.106   0.913   4.489  0.9869  0.0351 -0.2246
 2397TIP3   OH228681   4.260   5.575   0.017  0.1682  0.1023 -0.6884
 2397TIP3    H128682   4.182   5.525  -0.010  1.0635 -1.3552 -0.6405
 2397TIP3    H228683   4.274   5.549   0.109  0.1981  1.0386 -0.4251
 2398TIP3   OH228684   1.947   2.502  17.138 -0.2821 -0.0351 -0.3071
 2398TIP3    H128685   2.009   2.526  17.069 -1.2507  0.4916 -1.0066
 2398TIP3    H228686   2.000   2.453  17.202  0.5976 -0.6714 -1.4949
 2399TIP3   OH228687   0.693   0.361  17.096 -0.1397 -0.1747  0.3526
 2399TIP3    H128688   0.772   0.414  17.106  0.3510 -0.7537 -0.4016
 2399TIP3    H228689   0.711   0.282  17.148  0.0448 -0.5929 -0.3432
 2400TIP3   OH228690   1.414   2.474  16.611  0.0238 -0.4245  0.5772
 2400TIP3    H128691   1.404   2.543  16.545  1.2926 -0.2097  0.5943
 2400TIP3    H228692   1.325   2.453  16.638 -0.4543  0.1080 -0.5711
 2401TIP3   OH228693   2.874   1.814   0.763 -0.8152  0.1558  0.9204
 2401TIP3    H128694   2.938   1.747   0.742 -0.4244  0.3532  1.4566
 2401TIP3    H228695   2.899   1.889   0.709 -1.4704 -0.2438  0.0511
 2402TIP3   OH228696   0.885   4.869   4.242  0.1000 -0.0934  0.2159
 2402TIP3    H128697   0.859   4.782   4.273  0.6990 -0.1328  0.6107
 2402TIP3    H228698   0.909   4.855   4.150  1.4970 -0.6079  0.6504
 2403TIP3   OH228699   6.565   2.423  17.093 -0.5602  0.2700 -0.7267
 2403TIP3    H128700   6.547   2.387  17.006  0.3527 -0.6766 -0.5315
 2403TIP3    H228701   6.560   2.347  17.152 -0.1237  0.7281 -0.0984
 2404TIP3   OH228702   0.018   5.002   0.018  0.6724  0.1473 -0.1413
 2404TIP3    H128703   0.058   4.920   0.046 -0.5046 -1.5777 -3.3327
 2404TIP3    H228704   0.063   5.025  -0.063 -0.9226  1.1492 -0.7664
 2405TIP3   OH228705   3.649   3.019   2.274 -0.1112 -0.2149 -0.5887
 2405TIP3    H128706   3.606   3.059   2.198 -1.5088  0.6841  0.6389
 2405TIP3    H228707   3.721   3.079   2.295 -1.2247  0.8570  0.2679
 2406TIP3   OH228708   5.901   1.455  12.537 -0.5288  0.3849 -0.2520
 2406TIP3    H128709   5.806   1.469  12.531 -0.7883 -2.0545 -2.7360
 2406TIP3    H228710   5.924   1.482  12.626 -3.5459  0.9848  0.3887
 2407TIP3   OH228711   0.518   1.492   1.164 -0.3404  0.5708  0.1369
 2407TIP3    H128712   0.505   1.586   1.179 -1.6795  0.1857  1.4707
 2407TIP3    H228713   0.468   1.473   1.085 -0.2536  0.9322 -0.0062
 2408TIP3   OH228714   1.895   4.539   0.336  0.1912  0.0907 -0.5822
 2408TIP3    H128715   1.829   4.525   0.404 -0.2753  1.9211 -0.6187
 2408TIP3    H228716   1.979   4.527   0.380 -0.1293  0.3471  0.0981
 2409TIP3   OH228717   3.444   1.156  15.691  0.4111  0.1160 -0.0058
 2409TIP3    H128718   3.532   1.174  15.657  1.3641 -2.5410  0.8721
 2409TIP3    H228719   3.445   1.062  15.710 -2.8373 -0.1019 -0.5756
 2410TIP3   OH228720   2.753   3.331  16.337 -0.3248 -0.3282  0.6186
 2410TIP3    H128721   2.673   3.344  16.389 -1.3698 -2.8300 -0.2759
 2410TIP3    H228722   2.731   3.365  16.250 -0.2187 -0.4964  0.5270
 2411TIP3   OH228723   0.828   6.325   5.621 -0.5432  0.2301  0.0500
 2411TIP3    H128724   0.864   6.242   5.653 -0.1192  0.8401  1.1877
 2411TIP3    H228725   0.844   6.324   5.527  1.2691 -0.1095  0.3507
 2412TIP3   OH228726   2.500   4.973   3.759 -0.1458  0.3801  0.2963
 2412TIP3    H128727   2.462   4.946   3.843 -0.8060 -0.1650 -0.1726
 2412TIP3    H228728   2.547   5.054   3.779 -3.1642  2.1565  0.5096
 2413TIP3   OH228729   3.257   1.266   6.037  0.2827 -0.0657 -1.0511
 2413TIP3    H128730   3.248   1.170   6.034  0.6673 -0.1318 -0.2046
 2413TIP3    H228731   3.269   1.286   6.129  0.0718  0.8208 -1.2135
 2414TIP3   OH228732   5.005   0.502   1.391  0.1818  0.5886 -0.6949
 2414TIP3    H128733   4.987   0.520   1.299 -0.1560 -1.1970 -1.0004
 2414TIP3    H228734   5.066   0.571   1.418  0.9307  0.6518 -2.4745
 2415TIP3   OH228735   5.734   4.890   4.932 -0.0848 -0.2082  0.2299
 2415TIP3    H128736   5.719   4.835   5.010  1.7340  1.3643  1.7247
 2415TIP3    H228737   5.728   4.828   4.859 -1.8666 -1.7213  1.5816
 2416TIP3   OH228738   3.487   3.353  14.865  0.1663  0.1221 -0.4324
 2416TIP3    H128739   3.503   3.269  14.822  1.3465 -0.3536  0.8874
 2416TIP3    H228740   3.394   3.352  14.888  0.2031 -0.8694 -0.3341
 2417TIP3   OH228741   6.327   1.675   1.928 -0.8219 -0.0858  0.1957
 2417TIP3    H128742   6.245   1.639   1.894 -0.5460  0.0900 -0.6509
 2417TIP3    H228743   6.306   1.764   1.955 -0.7026  0.2584 -0.8389
 2418TIP3   OH228744   2.481   3.130   0.027 -0.6452  0.1807  0.4828
 2418TIP3    H128745   2.529   3.071   0.085 -0.5021  0.7379  0.9420
 2418TIP3    H228746   2.450   3.075  -0.045  0.7734 -0.1594  0.1305
 2419TIP3   OH228747   5.228   4.363   0.809 -0.0112 -0.3556  0.1082
 2419TIP3    H128748   5.226   4.293   0.874  0.8488 -0.7327 -0.2554
 2419TIP3    H228749   5.233   4.317   0.725  3.0557  0.1260 -0.0264
 2420TIP3   OH228750   5.948   2.403  12.558  0.2070  0.0589 -0.0877
 2420TIP3    H128751   5.977   2.348  12.486  4.8747 -0.0886  1.7337
 2420TIP3    H228752   5.989   2.488  12.542 -0.6895  0.7382  1.1181
 2421TIP3   OH228753   0.875   5.193  15.139 -0.5116 -0.4168  0.3202
 2421TIP3    H128754   0.805   5.193  15.205 -0.4809 -2.1580  0.3643
 2421TIP3    H228755   0.951   5.156  15.184  0.9188  2.8038  0.7171
 2422TIP3   OH228756   4.258   5.088   2.963 -0.0216  0.0986 -0.4053
 2422TIP3    H128757   4.301   5.157   3.014 -1.5208  0.0116  1.0108
 2422TIP3    H228758   4.322   5.064   2.896  0.7008  2.5495 -0.6378
 2423TIP3   OH228759   2.550   2.414  15.759 -0.1207 -0.1728  0.3485
 2423TIP3    H128760   2.613   2.486  15.766  0.4095 -0.6681  0.6495
 2423TIP3    H228761   2.480   2.449  15.703 -1.1606  1.5167  2.6185
 2424TIP3   OH228762   3.086   4.816   4.672 -0.6323 -0.0750  0.1007
 2424TIP3    H128763   3.069   4.866   4.592 -1.5611  0.2267  0.4915
 2424TIP3    H228764   3.062   4.874   4.744  3.6697  1.0376  0.7704
 2425TIP3   OH228765   6.254   3.284  14.856 -0.1101  0.3064 -0.3318
 2425TIP3    H128766   6.181   3.290  14.918 -1.2668  1.4947 -1.7891
 2425TIP3    H228767   6.310   3.216  14.893 -1.7081 -0.3028  1.0627
 2426TIP3   OH228768   4.008   0.236   2.724 -0.3288  0.4320  0.3140
 2426TIP3    H128769   3.942   0.303   2.744 -1.9680 -1.5642  1.8921
 2426TIP3    H228770   4.013   0.236   2.628 -1.6173  1.5858  0.2220
 2427TIP3   OH228771   5.355   1.052  16.917 -0.4726 -0.5418 -0.6211
 2427TIP3    H128772   5.431   0.995  16.929 -0.6213 -0.7286 -0.5553
 2427TIP3    H228773   5.295   1.026  16.988 -0.9087 -0.9042 -1.1222
 2428TIP3   OH228774   4.122   5.015  14.144  0.6415  0.7461 -0.0675
 2428TIP3    H128775   4.109   5.063  14.226 -0.3054  0.5255 -0.0863
 2428TIP3    H228776   4.102   5.079  14.076  0.4691  0.6485 -0.1083
 2429TIP3   OH228777   6.119   6.094   3.374  0.2575  0.3470 -0.4542
 2429TIP3    H128778   6.050   6.031   3.350  0.9220 -0.3682 -0.5017
 2429TIP3    H228779   6.200   6.050   3.350  0.7635  0.9491  0.1598
 2430TIP3   OH228780   2.894   2.931   3.575 -0.0572 -0.1128  0.9639
 2430TIP3    H128781   2.922   2.997   3.512  0.4356 -1.1217  0.1216
 2430TIP3    H228782   2.973   2.881   3.595 -0.7002 -1.2644  0.6269
 2431TIP3   OH228783   5.251   6.792   0.165 -0.1359 -0.1898 -0.2229
 2431TIP3    H128784   5.344   6.816   0.163 -0.5167  1.4960  0.8536
 2431TIP3    H228785   5.239   6.735   0.090  1.3693  1.0950 -1.4760
 2432TIP3   OH228786   0.797   5.602   2.040 -0.3023 -0.1825 -0.5955
 2432TIP3    H128787   0.843   5.571   2.118 -0.2545 -0.2874 -0.6645
 2432TIP3    H228788   0.730   5.662   2.073  1.0471  1.3672 -0.6356
 2433TIP3   OH228789   5.560   1.525  14.986 -0.3581 -0.0270  0.1501
 2433TIP3    H128790   5.512   1.442  14.979  0.1680 -0.3421  0.2163
 2433TIP3    H228791   5.539   1.557  15.074 -2.3740  1.0534 -0.6963
 2434TIP3   OH228792   2.733   5.487  11.428 -0.7400  0.4750 -0.2615
 2434TIP3    H128793   2.801   5.455  11.369 -1.0739 -0.5674 -0.1004
 2434TIP3    H228794   2.652   5.478  11.377 -1.0993 -0.9625  0.5350
 2435TIP3   OH228795   0.954   1.589   5.762  0.1238 -0.7720  0.1227
 2435TIP3    H128796   0.901   1.658   5.803 -0.5139 -1.8192  1.0895
 2435TIP3    H228797   1.007   1.554   5.834  1.0406 -0.7598 -0.5320
 2436TIP3   OH228798   4.307   3.112  12.408 -0.2028  0.0885 -0.4035
 2436TIP3    H128799   4.346   3.178  12.465 -2.0703  1.8595 -1.1031
 2436TIP3    H228800   4.369   3.104  12.335  0.2481  0.7552 -0.0953
 2437TIP3   OH228801   3.462   2.913   0.920 -0.0998  0.2952  0.0910
 2437TIP3    H128802   3.496   2.842   0.974  0.3740 -0.0273 -0.6274
 2437TIP3    H228803   3.486   2.993   0.968 -0.5082 -0.0127  0.8262
 2438TIP3   OH228804   6.395   6.091   4.589 -0.2698  0.6367  0.0891
 2438TIP3    H128805   6.421   6.163   4.646 -0.6248  1.7110 -1.0794
 2438TIP3    H228806   6.325   6.128   4.535 -1.0400 -0.8457  0.0582
 2439TIP3   OH228807   5.512   3.959  14.551  0.0822 -0.1331 -0.2344
 2439TIP3    H128808   5.495   4.038  14.500 -2.1732  0.0681  0.7902
 2439TIP3    H228809   5.426   3.932  14.583  1.2947 -1.0009  2.3795
 2440TIP3   OH228810   0.055   5.583  14.376  0.3009  0.2862  0.0732
 2440TIP3    H128811   0.123   5.629  14.327  0.5430  1.4282  1.4339
 2440TIP3    H228812  -0.018   5.644  14.379  0.0094 -0.0786  0.4583
 2441TIP3   OH228813   5.081   1.602  13.439  0.4899  0.1752 -0.1666
 2441TIP3    H128814   5.137   1.529  13.466  1.1641  0.4420 -0.8097
 2441TIP3    H228815   5.081   1.662  13.513  1.3464  0.3363 -0.2912
 2442TIP3   OH228816   0.110   2.593  15.586 -0.0855  0.2749  0.3778
 2442TIP3    H128817   0.129   2.653  15.515 -0.9117  0.6504  0.4691
 2442TIP3    H228818   0.046   2.639  15.640  0.6693  0.0676  1.4667
 2443TIP3   OH228819   3.343   0.985   2.663 -0.1428 -0.2550  0.0821
 2443TIP3    H128820   3.436   0.995   2.683 -0.2994  0.3454  0.5264
 2443TIP3    H228821   3.335   1.016   2.572  0.7203 -3.8505 -1.2880
 2444TIP3   OH228822   1.105   4.540  14.557 -0.1986  0.0682  0.0815
 2444TIP3    H128823   1.019   4.580  14.571  0.0574  1.2191 -1.5230
 2444TIP3    H228824   1.099   4.501  14.470  0.2937 -1.5355  0.7327
 2445TIP3   OH228825   3.048   0.857   4.185 -0.0510 -0.5118 -0.2306
 2445TIP3    H128826   3.012   0.783   4.234  0.2354 -0.2776  0.3335
 2445TIP3    H228827   2.970   0.904   4.154 -0.2341 -1.0631 -0.6213
 2446TIP3   OH228828   6.250   3.105  11.765 -0.5359 -0.0291  0.1152
 2446TIP3    H128829   6.266   3.197  11.789 -1.2688  0.0439  0.3470
 2446TIP3    H228830   6.337   3.066  11.760 -0.1930  0.7675 -0.3318
 2447TIP3   OH228831   0.723   3.365  16.002 -0.4267 -0.7876 -0.5222
 2447TIP3    H128832   0.636   3.384  15.967 -0.2912 -1.0992 -1.0391
 2447TIP3    H228833   0.774   3.337  15.926  0.6912  1.2773 -0.5883
 2448TIP3   OH228834   3.532   6.819  17.206 -0.5903  0.7644 -0.4138
 2448TIP3    H128835   3.620   6.790  17.229 -1.0707 -1.7280 -1.4651
 2448TIP3    H228836   3.529   6.813  17.110 -1.7097  1.4213 -0.4320
 2449TIP3   OH228837   3.086   3.616   4.278  0.1977 -0.0270  0.0621
 2449TIP3    H128838   3.046   3.702   4.292  0.8800  0.1232  1.1132
 2449TIP3    H228839   3.053   3.562   4.350  1.5930 -0.0029  0.7246
 2450TIP3   OH228840   5.880   3.701  12.575  0.0044 -0.3595 -0.4218
 2450TIP3    H128841   5.934   3.622  12.569  1.0803  0.2223  1.3269
 2450TIP3    H228842   5.838   3.708  12.489  0.9095 -2.1082 -1.0239
 2451TIP3   OH228843   2.041   2.844  10.444  0.3877  0.5754 -0.2911
 2451TIP3    H128844   1.983   2.915  10.419  2.2335  1.5100 -1.9737
 2451TIP3    H228845   2.021   2.773  10.383  0.8451  0.8074 -0.7083
 2452TIP3   OH228846   1.937   5.960  14.506 -0.7693 -0.2875  0.4559
 2452TIP3    H128847   1.884   6.029  14.466 -0.7426 -1.3106 -1.4139
 2452TIP3    H228848   2.026   5.994  14.504 -0.7832 -0.2883 -0.2749
 2453TIP3   OH228849   2.375   5.033   0.062  0.5730 -0.6606 -0.3136
 2453TIP3    H128850   2.289   5.054   0.097  0.3885 -1.0764 -0.5177
 2453TIP3    H228851   2.365   5.037  -0.033  1.2273  1.0720 -0.3353
 2454TIP3   OH228852   2.478   2.026   4.810  0.0866  0.3523 -0.3224
 2454TIP3    H128853   2.394   1.988   4.784 -0.4186  1.1082  0.2154
 2454TIP3    H228854   2.473   2.033   4.906  0.0780  2.0244 -0.4392
 2455TIP3   OH228855   0.322   0.650   0.312 -1.3784  0.1114  0.1856
 2455TIP3    H128856   0.356   0.738   0.301 -2.1671  0.5206  1.0027
 2455TIP3    H228857   0.337   0.630   0.404  0.0947 -1.1605 -0.2967
 2456TIP3   OH228858   1.928   6.258  14.943  0.0022  0.1944  0.0253
 2456TIP3    H128859   1.942   6.345  14.906  2.5761  0.4676  1.5430
 2456TIP3    H228860   1.967   6.199  14.879  2.0701  0.4803  0.9937
 2457TIP3   OH228861   1.613   3.168  13.573  0.3809 -0.5062 -0.0024
 2457TIP3    H128862   1.632   3.129  13.658  0.4301 -0.8899 -0.1914
 2457TIP3    H228863   1.604   3.094  13.513 -0.3403 -0.2663 -0.1928
 2458TIP3   OH228864   3.623   3.141  11.958  0.1344  0.7925  0.5612
 2458TIP3    H128865   3.596   3.149  11.866 -1.3669  0.0621  0.9311
 2458TIP3    H228866   3.671   3.058  11.961 -0.2627  0.5624  0.5453
 2459TIP3   OH228867   3.065   0.564   2.262 -0.3791 -0.4944  0.0462
 2459TIP3    H128868   3.106   0.527   2.339 -1.2661 -2.1486 -0.2410
 2459TIP3    H228869   2.987   0.609   2.295 -1.4090 -2.2010  0.0448
 2460TIP3   OH228870   0.431   5.958   0.658  0.4403  0.0103 -0.3590
 2460TIP3    H128871   0.380   5.961   0.576  0.6391  1.2675 -0.4527
 2460TIP3    H228872   0.377   6.005   0.721  0.3882 -0.7715  0.1811
 2461TIP3   OH228873   6.570   2.413  14.563  0.5312  0.6068 -0.5011
 2461TIP3    H128874   6.567   2.328  14.519 -0.7113  0.1719  0.3918
 2461TIP3    H228875   6.533   2.397  14.650  3.3051  1.3482  0.8992
 2462TIP3   OH228876   5.398   0.886  12.381  0.1904  0.5071  0.5182
 2462TIP3    H128877   5.367   0.930  12.460  1.3365  1.7169  0.3154
 2462TIP3    H228878   5.386   0.951  12.311  0.6101  0.0071 -0.0264
 2463TIP3   OH228879   1.351   3.006   0.803 -0.5666  0.5094 -0.2136
 2463TIP3    H128880   1.382   2.960   0.881 -0.4881 -0.4450 -0.7956
 2463TIP3    H228881   1.359   3.099   0.825  0.9809  0.2712  0.3207
 2464TIP3   OH228882   0.795   1.726   4.136  0.4001 -0.4400  0.1682
 2464TIP3    H128883   0.889   1.706   4.129  0.6962  0.9376  0.1067
 2464TIP3    H228884   0.758   1.688   4.056  1.1695  0.4289 -0.6254
 2465TIP3   OH228885   5.744   3.749   4.698 -0.2104 -0.3974  0.3402
 2465TIP3    H128886   5.661   3.707   4.716 -1.2089  1.9029  1.2166
 2465TIP3    H228887   5.741   3.769   4.604 -1.0817  0.5875  0.5731
 2466TIP3   OH228888   5.428   3.232   5.126  0.3046  0.8214  0.3378
 2466TIP3    H128889   5.458   3.271   5.208  0.3876 -0.6692  1.0521
 2466TIP3    H228890   5.502   3.180   5.096  0.1234  1.0231 -0.4572
 2467TIP3   OH228891   3.791   1.676   0.887  0.5889 -0.1660  0.1244
 2467TIP3    H128892   3.837   1.676   0.803  4.0532 -1.3061  1.9333
 2467TIP3    H228893   3.813   1.760   0.927  1.6912 -0.9808  1.2761
 2468TIP3   OH228894   6.752   3.950   1.699  0.2178 -0.1132  0.2101
 2468TIP3    H128895   6.795   4.027   1.662 -2.3720  1.2980  0.0217
 2468TIP3    H228896   6.768   3.881   1.635  0.4625  0.8923 -0.8460
 2469TIP3   OH228897   5.475   5.217  12.700 -0.0667  0.0480  0.4616
 2469TIP3    H128898   5.424   5.146  12.740 -1.6919 -0.8025 -2.9041
 2469TIP3    H228899   5.432   5.297  12.730 -1.5555 -0.5848  0.1035
 2470TIP3   OH228900   6.601   0.132  12.333 -0.3336  0.3965  0.6575
 2470TIP3    H128901   6.657   0.189  12.279  0.1571 -1.4969 -0.8968
 2470TIP3    H228902   6.516   0.133  12.287 -0.4311  0.1726  0.8359
 2471TIP3   OH228903   2.410   6.508  15.610  0.0801  0.3437 -0.2996
 2471TIP3    H128904   2.391   6.442  15.543  1.2050  0.8737 -1.1542
 2471TIP3    H228905   2.340   6.497  15.674 -0.2481 -1.0852 -0.8748
 2472TIP3   OH228906   5.727   6.372   4.984  0.1115 -0.6753  0.1548
 2472TIP3    H128907   5.661   6.325   5.034 -0.7612  0.5105  0.1393
 2472TIP3    H228908   5.694   6.462   4.980  2.4230  0.2509  1.3432
 2473TIP3   OH228909   4.380   4.785  17.078 -0.0732  0.8858 -0.0731
 2473TIP3    H128910   4.435   4.775  17.155  1.1088  0.8907 -0.9166
 2473TIP3    H228911   4.433   4.834  17.016 -0.4887 -0.3540 -1.4293
 2474TIP3   OH228912   2.464   0.287   1.696 -0.7320  0.0068  0.0869
 2474TIP3    H128913   2.394   0.257   1.639 -0.7090 -0.9807  0.5764
 2474TIP3    H228914   2.520   0.211   1.708  1.9765  1.4736 -2.5116
 2475TIP3   OH228915   0.512   3.496   0.649  0.0704  0.4498 -0.0597
 2475TIP3    H128916   0.520   3.552   0.726 -0.3276  0.2459  0.1297
 2475TIP3    H228917   0.602   3.474   0.626  0.2197  1.0127 -0.0225
 2476TIP3   OH228918   5.976   1.888   0.312  0.5879 -0.1727 -0.2871
 2476TIP3    H128919   5.884   1.869   0.332  0.4149 -0.2216 -1.1314
 2476TIP3    H228920   6.005   1.942   0.386 -0.0672 -0.2984  0.0701
 2477TIP3   OH228921   2.590   0.195   2.753  0.1779  0.5037  0.0168
 2477TIP3    H128922   2.642   0.122   2.719 -0.0545  0.5293 -0.4088
 2477TIP3    H228923   2.638   0.227   2.829 -0.3585 -0.9060  0.9651
 2478TIP3   OH228924   6.458   0.181  16.886  0.2515  0.1948 -0.3613
 2478TIP3    H128925   6.466   0.153  16.795  1.2780 -0.6225 -0.0259
 2478TIP3    H228926   6.375   0.143  16.916  0.4244 -0.4085 -0.6477
 2479TIP3   OH228927   3.982   3.728  13.784 -0.1000 -0.7032  0.3187
 2479TIP3    H128928   4.058   3.754  13.835  0.1669  0.9215 -0.8736
 2479TIP3    H228929   3.957   3.807  13.736 -1.8210 -1.5383 -0.1974
 2480TIP3   OH228930   2.729   2.366   4.856  0.1786 -0.2032 -0.4724
 2480TIP3    H128931   2.760   2.301   4.920  0.7597  0.5627  0.0294
 2480TIP3    H228932   2.634   2.355   4.856  0.2495 -0.8499 -0.1666
 2481TIP3   OH228933   6.261   5.609  15.624 -0.5486 -0.0804  0.3032
 2481TIP3    H128934   6.351   5.579  15.638 -0.3872 -0.5700 -1.6196
 2481TIP3    H228935   6.266   5.704  15.636 -0.1010 -0.2673  1.7044
 2482TIP3   OH228936   1.680   6.183   4.736 -1.0075  0.5426  0.0720
 2482TIP3    H128937   1.735   6.144   4.667  1.0951 -0.1971  2.1103
 2482TIP3    H228938   1.669   6.274   4.709  3.5671  1.4819  0.9252
 2483TIP3   OH228939   6.735   5.110  13.297 -0.6902  0.6586  0.2133
 2483TIP3    H128940   6.656   5.138  13.342 -0.0624  0.4184  1.4877
 2483TIP3    H228941   6.802   5.108  13.365 -0.3200 -2.3383 -0.1734
 2484TIP3   OH228942   3.740   1.188   3.276 -0.3455  0.3340 -0.3746
 2484TIP3    H128943   3.687   1.110   3.292 -0.7391  0.3978 -1.3345
 2484TIP3    H228944   3.676   1.255   3.251  0.0089  0.9113  0.2342
 2485TIP3   OH228945   4.149   4.153  12.133 -0.2623 -0.3920  0.1561
 2485TIP3    H128946   4.184   4.141  12.045  0.6298  0.9229  0.3137
 2485TIP3    H228947   4.184   4.080  12.184  0.1436 -0.5216 -0.3109
 2486TIP3   OH228948   0.248   2.218   3.496 -1.1572 -0.2833 -0.0756
 2486TIP3    H128949   0.287   2.285   3.440 -1.6240 -0.4762 -0.6386
 2486TIP3    H228950   0.256   2.137   3.445 -1.0051 -0.5706  0.4073
 2487TIP3   OH228951   2.062   2.005   3.866 -0.0156 -0.4889  0.8958
 2487TIP3    H128952   1.987   2.049   3.827  0.9740  1.4356  1.1010
 2487TIP3    H228953   2.032   1.982   3.955  0.2500  2.0244  1.6703
 2488TIP3   OH228954   4.088   5.308   2.518 -0.3409  0.1696 -0.2121
 2488TIP3    H128955   4.061   5.240   2.457 -0.4118  1.0087 -1.1174
 2488TIP3    H228956   4.006   5.350   2.544 -0.2055  0.5819 -0.4482
 2489TIP3   OH228957   6.172   2.322   6.261 -0.0008  0.1517  0.8211
 2489TIP3    H128958   6.172   2.240   6.211  0.1694 -0.1246  1.2720
 2489TIP3    H228959   6.255   2.364   6.239  1.2517 -1.1720  2.8129
 2490TIP3   OH228960   1.864   6.155   5.208  0.4376 -0.2050 -0.4153
 2490TIP3    H128961   1.809   6.225   5.173 -0.0950 -0.0661  0.6793
 2490TIP3    H228962   1.930   6.200   5.261  0.1292 -0.5213  0.2433
 2491TIP3   OH228963   1.456   4.494   0.228  0.3707 -0.2204 -0.1409
 2491TIP3    H128964   1.504   4.542   0.161  0.3308  0.2615  0.1752
 2491TIP3    H228965   1.399   4.559   0.269  0.9487 -0.3319  0.8722
 2492TIP3   OH228966   3.402   4.911   5.950  0.1287 -0.3627  0.1011
 2492TIP3    H128967   3.411   4.829   5.998  1.5944 -1.2540 -1.6131
 2492TIP3    H228968   3.492   4.935   5.927 -0.3580  1.3338 -0.0410
 2493TIP3   OH228969   5.045   4.548   4.955  0.1665  0.5124  0.6466
 2493TIP3    H128970   4.993   4.467   4.956 -0.6271  0.9500 -1.4112
 2493TIP3    H228971   5.120   4.528   4.899  0.2794  1.0072  0.6192
 2494TIP3   OH228972   2.918   3.810  11.561 -0.0032  0.3249  0.3618
 2494TIP3    H128973   2.827   3.803  11.587 -0.1862  1.5078  0.0766
 2494TIP3    H228974   2.922   3.764  11.477 -0.7661  1.9458 -0.5813
 2495TIP3   OH228975   6.753   3.145  12.676 -0.0568  0.3521 -0.1023
 2495TIP3    H128976   6.772   3.055  12.702  0.7488  0.0292 -1.7087
 2495TIP3    H228977   6.681   3.137  12.613 -0.1104  0.8316 -0.1023
 2496TIP3   OH228978   3.241   3.724   3.836  0.0349 -0.0627  0.5889
 2496TIP3    H128979   3.245   3.628   3.842  1.4989  0.0340  1.6448
 2496TIP3    H228980   3.284   3.754   3.916 -1.9096  1.4957  1.0879
 2497TIP3   OH228981   3.187   6.732   4.981  0.4872 -0.1126 -0.2495
 2497TIP3    H128982   3.257   6.787   5.018 -0.5491  1.7288 -0.9395
 2497TIP3    H228983   3.233   6.665   4.931  1.7958 -0.0217  0.8054
 2498TIP3   OH228984   0.254   1.873  15.657  0.3871 -0.6377 -0.1250
 2498TIP3    H128985   0.223   1.964  15.660  2.7949  0.1529  1.7039
 2498TIP3    H228986   0.270   1.857  15.564  0.1474  0.8773 -0.4546
 2499TIP3   OH228987   1.562   3.801   0.126 -0.0109 -0.4283  0.3795
 2499TIP3    H128988   1.537   3.821   0.217  1.2179 -1.5011  0.9733
 2499TIP3    H228989   1.635   3.861   0.108  1.6319 -2.1524  1.1037
 2500TIP3   OH228990   2.281   4.755   2.701 -0.2252  0.0779  0.2848
 2500TIP3    H128991   2.254   4.812   2.774  0.2122  1.1811 -0.4095
 2500TIP3    H228992   2.340   4.809   2.649  0.0439 -0.9577 -0.4916
 2501TIP3   OH228993   2.838   6.368  14.585  0.3917  0.4885  0.0815
 2501TIP3    H128994   2.815   6.461  14.583 -2.3388 -0.1724 -0.7765
 2501TIP3    H228995   2.758   6.324  14.612  1.3643 -1.7212 -0.5078
 2502TIP3   OH228996   6.766   5.703   0.902  0.0948  0.8470  0.2589
 2502TIP3    H128997   6.752   5.654   0.821 -1.1582  2.1127 -0.3176
 2502TIP3    H228998   6.679   5.711   0.941  0.7013  0.1846  1.7783
 2503TIP3   OH228999   3.604   1.959   2.578 -0.0018 -0.1743  0.2935
 2503TIP3    H129000   3.561   2.032   2.534 -0.0440 -1.4873 -1.9012
 2503TIP3    H229001   3.670   2.001   2.634  0.1471  1.5386 -1.1021
 2504TIP3   OH229002   3.842   5.991   5.389  0.7149  0.0783  0.5195
 2504TIP3    H129003   3.781   5.927   5.427  1.9043 -0.0862  2.2532
 2504TIP3    H229004   3.824   5.990   5.295  0.5616 -2.6579  0.5436
 2505TIP3   OH229005   1.668   2.646   0.489  0.0261 -0.1118 -0.7174
 2505TIP3    H129006   1.668   2.551   0.489 -0.4954 -0.1173  1.2054
 2505TIP3    H229007   1.664   2.670   0.396  0.5080 -1.9450 -1.2224
 2506TIP3   OH229008   1.854   6.526   0.033  0.4637  0.0849 -0.3574
 2506TIP3    H129009   1.784   6.576  -0.010 -0.5336 -0.7186  0.3118
 2506TIP3    H229010   1.934   6.555  -0.010 -0.3553  0.4939 -1.6277
 2507TIP3   OH229011   4.766   1.758  14.520  0.3006  0.0679  0.5666
 2507TIP3    H129012   4.780   1.853  14.523  0.8436  0.1230 -2.3544
 2507TIP3    H229013   4.815   1.724  14.594  0.3078  2.0387  1.5085
 2508TIP3   OH229014   4.149   3.471   5.912 -0.0017 -0.1783  0.4267
 2508TIP3    H129015   4.228   3.523   5.922 -1.1265  1.4382  1.0163
 2508TIP3    H229016   4.179   3.391   5.868  2.2755 -0.4515  2.3804
 2509TIP3   OH229017   0.615   5.185  11.448 -0.1109 -0.3600 -0.6394
 2509TIP3    H129018   0.591   5.179  11.355  0.4543 -0.6093 -0.7774
 2509TIP3    H229019   0.707   5.157  11.450  0.1531  0.5184 -0.1298
 2510TIP3   OH229020   2.180   3.337   5.335 -0.8194  0.0445 -0.3824
 2510TIP3    H129021   2.155   3.429   5.329 -2.1201 -0.3428 -1.1378
 2510TIP3    H229022   2.189   3.309   5.244 -1.1961 -0.7720 -0.1712
 2511TIP3   OH229023   3.956   0.448  16.522  0.2734  0.3222 -0.0015
 2511TIP3    H129024   3.922   0.421  16.437 -0.4529 -0.2996  0.4747
 2511TIP3    H229025   3.939   0.542  16.527 -0.8725  0.1212 -0.0116
 2512TIP3   OH229026   1.772   4.308   5.604 -0.7905  0.0154  0.3167
 2512TIP3    H129027   1.766   4.277   5.694 -2.2343 -0.1354  0.1828
 2512TIP3    H229028   1.748   4.231   5.551 -0.3822  0.2242 -0.1768
 2513TIP3   OH229029   1.831   4.253  11.546  0.1840 -0.0565 -0.0344
 2513TIP3    H129030   1.913   4.266  11.595 -0.7695  0.9816  1.3395
 2513TIP3    H229031   1.764   4.290  11.603 -1.0579  0.5246 -1.8339
 2514TIP3   OH229032   4.935   2.915  14.303 -0.2396  0.2621 -0.0520
 2514TIP3    H129033   4.911   2.992  14.354  0.1578  1.1169 -1.1349
 2514TIP3    H229034   4.867   2.851  14.323 -1.2010  1.2746 -0.0041
 2515TIP3   OH229035   2.554   0.652   4.570 -0.2627 -0.0957 -0.3115
 2515TIP3    H129036   2.466   0.685   4.589  0.0395  1.0218 -0.8153
 2515TIP3    H229037   2.608   0.684   4.641 -0.3544 -1.1971  0.2573
 2516TIP3   OH229038   2.825   0.277   5.662 -0.0535 -0.1582  0.1314
 2516TIP3    H129039   2.864   0.316   5.740 -1.2019 -0.9200  1.1150
 2516TIP3    H229040   2.753   0.223   5.696 -0.8774 -0.1132 -1.4884
 2517TIP3   OH229041   0.189   6.671   5.865 -0.2735 -0.5987 -0.2691
 2517TIP3    H129042   0.181   6.761   5.896  1.7325 -0.6431  0.4480
 2517TIP3    H229043   0.173   6.617   5.942 -0.1641 -0.8186 -0.3993
 2518TIP3   OH229044   0.589   6.596   4.382  0.5374 -0.0157  0.6189
 2518TIP3    H129045   0.667   6.562   4.339 -0.0683 -0.4872 -0.1242
 2518TIP3    H229046   0.559   6.666   4.324  0.0079 -0.3108  0.5343
 2519TIP3   OH229047   3.366   3.382   5.091 -0.2404  0.3220 -0.0232
 2519TIP3    H129048   3.273   3.403   5.082 -0.4645 -1.0903 -1.2826
 2519TIP3    H229049   3.375   3.349   5.180 -0.9909  0.2447  0.0254
 2520TIP3   OH229050   2.732   6.457   4.823  0.8740 -0.0540  0.0615
 2520TIP3    H129051   2.809   6.435   4.875  0.1507  1.3214  1.7667
 2520TIP3    H229052   2.669   6.389   4.844  1.2333 -0.5505 -0.4637
 2521TIP3   OH229053   1.626   5.280  17.266 -0.2155  0.1789  0.0459
 2521TIP3    H129054   1.556   5.243  17.211 -0.2727 -1.3267  1.0984
 2521TIP3    H229055   1.589   5.362  17.299 -0.4426  0.7641 -1.5792
 2522TIP3   OH229056   4.625   5.840   6.070  0.1506  0.0081 -0.3574
 2522TIP3    H129057   4.630   5.892   6.150  0.3891 -2.0038  0.9806
 2522TIP3    H229058   4.715   5.837   6.037  0.5076 -1.2081  0.6788
 2523TIP3   OH229059   6.290   0.888   0.902 -0.1145  0.0599  0.0484
 2523TIP3    H129060   6.245   0.942   0.836 -1.5241  2.1717  2.6317
 2523TIP3    H229061   6.383   0.901   0.884 -0.4530  2.5545 -0.0426
 2524TIP3   OH229062   0.755   1.027   1.462  0.0809  0.0306  0.5080
 2524TIP3    H129063   0.691   1.028   1.391 -0.5537 -1.4955  1.0277
 2524TIP3    H229064   0.722   1.091   1.525 -0.1023  0.3753  0.0627
 2525TIP3   OH229065   3.330   2.997   3.458 -0.1431  0.2562 -0.3287
 2525TIP3    H129066   3.295   2.921   3.411 -2.4579  1.0097  0.1201
 2525TIP3    H229067   3.330   3.067   3.393 -0.4598  0.5171 -0.0496
 2526TIP3   OH229068   2.556   1.908   3.783 -0.0859  0.9641 -0.4032
 2526TIP3    H129069   2.536   1.926   3.691  0.8243 -0.8524 -0.9803
 2526TIP3    H229070   2.470   1.905   3.825 -0.5634  1.0704 -1.3484
 2527TIP3   OH229071   0.856   0.580   1.945 -0.4204  0.4360  0.0250
 2527TIP3    H129072   0.785   0.612   1.889 -0.9924 -0.1797  0.3855
 2527TIP3    H229073   0.830   0.604   2.034  0.4328  1.3126  0.0490
 2528TIP3   OH229074   0.936   5.785   1.020 -0.5958 -0.2573  0.6111
 2528TIP3    H129075   0.914   5.851   1.085  3.6673  1.0751  0.8308
 2528TIP3    H229076   0.937   5.703   1.069 -2.9040 -0.1028  0.9720
 2529TIP3   OH229077   2.507   6.010   2.368  0.4409 -0.9640  0.2813
 2529TIP3    H129078   2.540   5.975   2.285  0.0709 -0.3060 -0.1521
 2529TIP3    H229079   2.584   6.041   2.414  0.8757 -3.0996  1.0382
 2530TIP3   OH229080   2.610   3.405  14.141 -0.0910  0.0784 -0.0557
 2530TIP3    H129081   2.530   3.400  14.089 -0.5797 -0.8365  0.7702
 2530TIP3    H229082   2.638   3.315  14.152 -1.7091 -0.0779  3.8186
 2531TIP3   OH229083   1.353   2.456   1.092 -0.4365  0.1052 -0.0019
 2531TIP3    H129084   1.329   2.540   1.132 -1.4368  0.2081 -0.8327
 2531TIP3    H229085   1.396   2.480   1.010 -1.1097 -0.2134 -0.4457
 2532TIP3   OH229086   0.281   1.519  12.911 -0.1420  0.3052 -0.0056
 2532TIP3    H129087   0.272   1.485  12.822  0.2304  0.2103 -0.0098
 2532TIP3    H229088   0.195   1.507  12.951 -0.7079  1.6558 -0.8030
 2533TIP3   OH229089   3.277   3.854  14.467  0.8533 -0.4722 -0.2804
 2533TIP3    H129090   3.287   3.857  14.372  1.2150 -0.0240 -0.2277
 2533TIP3    H229091   3.353   3.805  14.498  1.9334  1.2908 -0.0440
 2534TIP3   OH229092   0.887   3.806   4.037 -0.1307  0.2089  0.4162
 2534TIP3    H129093   0.863   3.867   3.967  1.0695  1.5013  1.1245
 2534TIP3    H229094   0.899   3.861   4.114 -3.1949 -1.3769  2.1497
 2535TIP3   OH229095   1.171   0.886  11.835  0.7067 -0.1336  0.5178
 2535TIP3    H129096   1.149   0.978  11.854  1.3730 -0.1659  1.5132
 2535TIP3    H229097   1.107   0.859  11.769 -1.0956  0.3008  2.0364
 2536TIP3   OH229098   4.543   6.754   0.969  0.3906  0.5342  0.2156
 2536TIP3    H129099   4.513   6.674   1.013  0.1203  0.8641  0.6341
 2536TIP3    H229100   4.621   6.727   0.921 -0.0035 -0.1051 -0.0758
 2537TIP3   OH229101   3.935   5.648  13.851  0.4901 -0.0532  0.5996
 2537TIP3    H129102   3.967   5.624  13.938  1.6482  1.4661  0.6126
 2537TIP3    H229103   4.010   5.638  13.793 -0.5166 -1.9785 -0.4223
 2538TIP3   OH229104   4.886   6.298  12.241 -0.0807  0.4445  0.2195
 2538TIP3    H129105   4.887   6.262  12.329 -0.3100  2.0427  0.8956
 2538TIP3    H229106   4.926   6.230  12.186 -0.7939 -0.9397  1.3951
 2539TIP3   OH229107   3.631   4.440   3.305 -0.4558  0.2446 -0.1537
 2539TIP3    H129108   3.556   4.415   3.250 -0.6880  0.1978  0.1784
 2539TIP3    H229109   3.693   4.481   3.245 -0.9636  0.7344 -0.3467
 2540TIP3   OH229110   2.284   2.184  14.871 -0.0788 -0.5062 -0.2188
 2540TIP3    H129111   2.236   2.148  14.946 -0.5473 -1.4186 -0.9503
 2540TIP3    H229112   2.376   2.171  14.893 -0.1808  0.2940  0.7180
 2541TIP3   OH229113   3.042   2.826   0.271 -0.1853  0.9929  0.1714
 2541TIP3    H129114   3.075   2.911   0.300  1.5095 -0.1916  1.8337
 2541TIP3    H229115   2.976   2.803   0.336 -1.2266  1.3843 -0.7329
 2542TIP3   OH229116   6.500   6.589   1.481  0.3446 -0.2936  0.1787
 2542TIP3    H129117   6.426   6.641   1.513  0.8270  0.2168  0.4798
 2542TIP3    H229118   6.497   6.509   1.533 -0.6178 -0.7226 -0.5372
 2543TIP3   OH229119   6.429   2.595  14.893 -0.4650 -0.3917 -0.0598
 2543TIP3    H129120   6.509   2.560  14.932  0.3769  1.8165  0.2516
 2543TIP3    H229121   6.398   2.526  14.834  0.6156 -2.0194  1.2471
 2544TIP3   OH229122   3.639   0.477   0.802 -0.6451 -0.2574 -0.3629
 2544TIP3    H129123   3.687   0.525   0.734 -0.7333 -2.4255 -2.0130
 2544TIP3    H229124   3.686   0.497   0.883 -0.5876  2.4429 -1.0027
 2545TIP3   OH229125   4.061   2.652   2.738 -0.4548  0.1737  0.0763
 2545TIP3    H129126   3.998   2.611   2.796 -0.5713 -0.0464 -0.2079
 2545TIP3    H229127   4.115   2.706   2.796  0.2430 -1.0450  0.5716
 2546TIP3   OH229128   0.679   4.007  16.355  0.3435  0.2789  0.2325
 2546TIP3    H129129   0.694   4.059  16.433 -1.8141  3.0369 -1.1330
 2546TIP3    H229130   0.631   4.064  16.295 -1.7975 -3.1259 -1.4979
 2547TIP3   OH229131   4.742   0.601  16.089  0.2645 -0.3391 -0.0853
 2547TIP3    H129132   4.762   0.554  16.170  1.8714 -0.3607 -0.4791
 2547TIP3    H229133   4.657   0.642  16.106 -0.0314 -1.4035  1.1333
 2548TIP3   OH229134   2.962   4.078   6.188  0.3596  0.0551  0.8350
 2548TIP3    H129135   2.881   4.099   6.141  0.9920 -0.0480 -0.3240
 2548TIP3    H229136   2.933   4.058   6.277 -0.6758  1.9650  0.9605
 2549TIP3   OH229137   6.787   4.676  13.317 -0.4076  0.4640 -0.6615
 2549TIP3    H129138   6.789   4.646  13.227 -1.0835  1.5412 -1.0479
 2549TIP3    H229139   6.828   4.763  13.314  1.4904 -0.3605  0.4183
 2550TIP3   OH229140   3.789   5.683   5.222 -0.4900  0.2331  0.4722
 2550TIP3    H129141   3.719   5.618   5.219 -0.1396 -0.0959 -2.5381
 2550TIP3    H229142   3.746   5.765   5.196 -0.0382  0.2869 -0.1146
 2551TIP3   OH229143   2.709   0.691  16.948 -0.2825 -0.1718  0.1343
 2551TIP3    H129144   2.757   0.774  16.948 -0.3601 -0.1209  1.3487
 2551TIP3    H229145   2.618   0.715  16.930 -0.3721  0.0597  0.8624
 2552TIP3   OH229146   5.049   6.435   2.905 -0.0127  0.1017  0.1418
 2552TIP3    H129147   5.063   6.397   2.818  0.5814  1.1061 -0.2016
 2552TIP3    H229148   4.986   6.506   2.890  0.1209  0.2998  0.5297
 2553TIP3   OH229149   1.532   2.488  15.159 -0.3739  0.2052 -0.1879
 2553TIP3    H129150   1.483   2.544  15.099  0.0344 -0.8161 -1.4847
 2553TIP3    H229151   1.466   2.446  15.213 -0.8269  0.0303 -0.8810
 2554TIP3   OH229152   0.922   4.807  15.840 -0.0206  0.4042 -0.2994
 2554TIP3    H129153   0.929   4.746  15.913  1.1368  0.6200 -0.2247
 2554TIP3    H229154   0.835   4.790  15.803  0.5790 -1.8307 -0.7737
 2555TIP3   OH229155   3.371   4.313   2.526  0.2071  0.1057 -0.1117
 2555TIP3    H129156   3.360   4.400   2.490 -1.6375  0.0410  0.2396
 2555TIP3    H229157   3.290   4.267   2.505 -0.2582 -0.4441  2.6752
 2556TIP3   OH229158   0.371   3.270   1.654  0.5771  0.9387 -0.4279
 2556TIP3    H129159   0.439   3.331   1.683  0.2670  0.3655  1.5682
 2556TIP3    H229160   0.317   3.255   1.732 -1.0743  0.3707 -1.6431
 2557TIP3   OH229161   1.737   6.600  13.479 -0.1804  0.1958  0.2637
 2557TIP3    H129162   1.798   6.569  13.411 -0.6747  2.1690 -1.1286
 2557TIP3    H229163   1.793   6.641  13.544  0.1377  0.1596  0.0161
 2558TIP3   OH229164   2.842   3.667  13.334  0.4306 -0.2406 -0.3649
 2558TIP3    H129165   2.912   3.696  13.276 -0.0841 -1.5024 -1.6263
 2558TIP3    H229166   2.761   3.690  13.289 -0.0222  2.8708  1.9139
 2559TIP3   OH229167   1.148   1.530  10.945 -0.4195  0.1271  0.2142
 2559TIP3    H129168   1.219   1.591  10.964  0.9143 -1.4775  0.5320
 2559TIP3    H229169   1.105   1.517  11.029  0.6199 -0.9765  0.5919
 2560TIP3   OH229170   0.702   0.249  14.439 -0.7017  0.6946 -0.2257
 2560TIP3    H129171   0.648   0.178  14.406  0.6546 -0.0977 -0.7845
 2560TIP3    H229172   0.723   0.302  14.362  1.1214 -0.2485 -0.4172
 2561TIP3   OH229173   3.645   0.908  12.150 -0.0146  0.5869  0.0173
 2561TIP3    H129174   3.705   0.845  12.109 -0.6582 -0.0107 -0.0245
 2561TIP3    H229175   3.647   0.886  12.243  2.5579  2.8794  0.5619
 2562TIP3   OH229176   1.287   1.637   1.742  0.1689  0.1077  0.4426
 2562TIP3    H129177   1.238   1.563   1.779 -0.3097  0.9084  1.4406
 2562TIP3    H229178   1.229   1.673   1.675  0.4734 -0.5126 -0.1653
 2563TIP3   OH229179   5.362   5.471  12.749  0.2942  0.0774 -0.4639
 2563TIP3    H129180   5.376   5.514  12.664  0.5719 -1.3053 -1.1302
 2563TIP3    H229181   5.421   5.517  12.809 -1.9882  2.9888 -0.3431
 2564TIP3   OH229182   2.593   0.926  14.009 -0.0485  0.2976 -0.0536
 2564TIP3    H129183   2.550   0.906  14.092 -0.1255  0.9653  0.0704
 2564TIP3    H229184   2.549   1.005  13.977 -1.2189 -0.9642 -1.6004
 2565TIP3   OH229185   6.199   4.517  16.135 -0.1333  0.1599 -0.2792
 2565TIP3    H129186   6.135   4.453  16.166  0.3573 -0.1473  0.1212
 2565TIP3    H229187   6.264   4.521  16.206 -0.6289  1.7788  0.1092
 2566TIP3   OH229188   1.137   0.537  14.003 -0.2640  0.1462  0.3933
 2566TIP3    H129189   1.113   0.448  13.979  1.5752 -0.6010  1.2081
 2566TIP3    H229190   1.191   0.527  14.082 -0.5547  2.0211  0.8649
 2567TIP3   OH229191   2.833   5.690   3.172 -1.0005 -0.0946  0.3066
 2567TIP3    H129192   2.853   5.718   3.082  0.5919  1.7631  1.2159
 2567TIP3    H229193   2.780   5.762   3.207 -0.1782 -0.0081  1.3878
 2568TIP3   OH229194   3.453   1.891   2.023  0.3282  0.2434  0.2591
 2568TIP3    H129195   3.513   1.957   2.059 -0.2385  1.4960 -1.0279
 2568TIP3    H229196   3.462   1.900   1.928 -0.0201 -1.3140  0.0641
 2569TIP3   OH229197   0.891   4.159   1.886 -0.4810 -0.2464  0.0449
 2569TIP3    H129198   0.922   4.214   1.958 -1.1878 -0.1639  0.2921
 2569TIP3    H229199   0.830   4.215   1.838 -0.1557 -0.3638 -0.5101
 2570TIP3   OH229200   6.706   6.629   4.977  0.2464  0.2384 -0.3206
 2570TIP3    H129201   6.777   6.565   4.978 -0.8443 -0.9854  0.0486
 2570TIP3    H229202   6.693   6.649   4.884  1.3869  0.8142 -0.3529
 2571TIP3   OH229203   0.002   5.994   0.830  0.3194  0.4360  0.4486
 2571TIP3    H129204  -0.038   5.910   0.808  0.8218  0.2786  0.1086
 2571TIP3    H229205  -0.071   6.050   0.855 -0.0852  0.0766  0.0842
 2572TIP3   OH229206   2.379   3.558   4.349  0.0833 -0.2293 -0.0599
 2572TIP3    H129207   2.354   3.468   4.328  0.0401 -0.0600 -0.7441
 2572TIP3    H229208   2.382   3.602   4.264  1.6047  0.0396  0.1255
 2573TIP3   OH229209   5.204   4.836   5.531  0.0826  0.5470 -0.0474
 2573TIP3    H129210   5.293   4.844   5.564  0.3406  0.4853 -0.7212
 2573TIP3    H229211   5.167   4.763   5.581  0.7372 -0.0806 -0.4714
 2574TIP3   OH229212   3.670   0.638  15.791 -0.1535 -0.4491 -0.4046
 2574TIP3    H129213   3.612   0.707  15.758 -0.5081 -0.0908  0.9478
 2574TIP3    H229214   3.613   0.561  15.798 -0.1194 -0.4810 -0.4797
 2575TIP3   OH229215   1.701   3.691  11.716 -0.0647 -0.4338 -0.0947
 2575TIP3    H129216   1.753   3.611  11.710  0.5252 -0.0270 -0.3899
 2575TIP3    H229217   1.752   3.748  11.773 -0.3492 -0.1597 -0.1176
 2576TIP3   OH229218   5.767   3.596   2.968 -0.3562  0.7909  0.2787
 2576TIP3    H129219   5.851   3.632   2.939 -0.4303  0.3222 -0.5674
 2576TIP3    H229220   5.702   3.657   2.933 -0.3508  1.4143  1.3443
 2577TIP3   OH229221   5.214   2.277  13.310  0.0196 -0.0377 -0.1921
 2577TIP3    H129222   5.239   2.239  13.225 -0.0856  1.2449 -0.7972
 2577TIP3    H229223   5.123   2.303  13.300 -0.3654 -0.9809  0.7167
 2578TIP3   OH229224   2.032   5.151  13.089 -0.4605 -0.3640  0.0141
 2578TIP3    H129225   1.953   5.204  13.077  0.3894  0.8170 -0.4827
 2578TIP3    H229226   2.034   5.133  13.183 -1.4956 -0.6867 -0.0189
 2579TIP3   OH229227   2.923   1.962  13.280 -0.2214  0.0235 -0.1558
 2579TIP3    H129228   2.891   1.872  13.270 -1.9102  0.6498 -0.6136
 2579TIP3    H229229   3.008   1.962  13.235 -0.1420 -1.3707 -0.0314
 2580TIP3   OH229230   3.267   4.187   2.228 -0.3914 -0.0526  0.5632
 2580TIP3    H129231   3.240   4.139   2.150  0.8760 -1.2428  0.8266
 2580TIP3    H229232   3.363   4.186   2.224 -0.2330 -2.1593  3.3140
 2581TIP3   OH229233   6.476   5.714   3.585 -0.4039  0.0858  0.2121
 2581TIP3    H129234   6.545   5.744   3.645 -0.7082 -0.3076  0.7665
 2581TIP3    H229235   6.396   5.717   3.638 -0.8513  0.7441 -0.4876
 2582TIP3   OH229236   5.170   1.359  15.448  0.0573  0.2567  0.2542
 2582TIP3    H129237   5.258   1.353  15.411 -0.7714  1.4352 -1.9684
 2582TIP3    H229238   5.170   1.441  15.497  0.2715  0.1316  0.4647
 2583TIP3   OH229239   6.778   0.756   5.490 -0.2668 -0.2982 -0.1162
 2583TIP3    H129240   6.855   0.756   5.434  0.5327 -0.0641  0.9674
 2583TIP3    H229241   6.782   0.840   5.537 -1.8838  0.3097 -0.9859
 2584TIP3   OH229242   4.705   1.127   3.085 -0.4762  0.2812  0.7295
 2584TIP3    H129243   4.632   1.166   3.133 -0.4154  0.0719  0.9976
 2584TIP3    H229244   4.665   1.086   3.008 -0.5191  1.0068  0.3681
 2585TIP3   OH229245   3.373   2.972   1.271 -0.0591  0.2704 -0.0343
 2585TIP3    H129246   3.304   3.024   1.312  1.0936  1.5974  0.2413
 2585TIP3    H229247   3.419   2.931   1.343 -1.7366 -2.1790 -0.3008
 2586TIP3   OH229248   2.771   6.772  13.071  0.0898 -0.1011 -0.0963
 2586TIP3    H129249   2.841   6.831  13.101  0.7035 -0.4707 -0.7785
 2586TIP3    H229250   2.755   6.714  13.146  1.0123 -0.4687 -0.1741
 2587TIP3   OH229251   3.016   6.716  11.560  0.3533  0.6918 -0.5642
 2587TIP3    H129252   3.109   6.734  11.571  0.1972  0.8852  0.4912
 2587TIP3    H229253   2.978   6.798  11.530  0.0947  1.3804  1.5771
 2588TIP3   OH229254   0.665   0.584   0.595  0.0101  0.3135 -0.0813
 2588TIP3    H129255   0.579   0.603   0.632  0.6706  0.2642  1.5261
 2588TIP3    H229256   0.652   0.590   0.500 -2.2654 -1.8766  0.0272
 2589TIP3   OH229257   4.422   4.125  13.178  0.0781 -0.3782 -0.6075
 2589TIP3    H129258   4.403   4.075  13.099  0.7642 -0.0646 -0.9750
 2589TIP3    H229259   4.504   4.171  13.158 -1.0165  1.6133 -0.6386
 2590TIP3   OH229260   0.099   0.637  16.808 -0.0562 -0.4506  0.5624
 2590TIP3    H129261   0.151   0.577  16.861 -1.0194 -0.0081  2.0535
 2590TIP3    H229262   0.034   0.582  16.765 -0.6456 -0.5563  1.5637
 2591TIP3   OH229263   0.021   4.621  15.043 -0.2412  0.0946  0.1302
 2591TIP3    H129264   0.001   4.538  14.999 -1.7608  0.3187  0.3852
 2591TIP3    H229265   0.072   4.671  14.979  1.7126 -1.4820  0.3899
 2592TIP3   OH229266   5.934   2.736  10.878 -0.4455 -0.1887  0.1534
 2592TIP3    H129267   5.992   2.728  10.802  0.7206 -2.1068  1.2010
 2592TIP3    H229268   5.981   2.691  10.948 -0.7445  2.9485  2.4677
 2593TIP3   OH229269   4.153   5.370   5.515  0.2242 -0.1452 -0.0875
 2593TIP3    H129270   4.238   5.334   5.538  0.3482  0.3153  0.1850
 2593TIP3    H229271   4.173   5.457   5.481  0.0675 -0.8814 -2.1526
 2594TIP3   OH229272   3.437   4.235   5.089  0.1025  0.0771  0.3091
 2594TIP3    H129273   3.421   4.284   5.008 -0.4420  0.1975  0.4843
 2594TIP3    H229274   3.527   4.256   5.113 -0.3575  1.5426  0.7650
 2595TIP3   OH229275   0.278   2.302   0.685 -0.0401 -0.0703  0.3451
 2595TIP3    H129276   0.188   2.276   0.705 -0.1809 -0.4442 -0.7109
 2595TIP3    H229277   0.331   2.257   0.751 -0.5511 -0.5772  0.4171
 2596TIP3   OH229278   6.611   3.871  16.159 -0.1875 -0.0545 -0.0806
 2596TIP3    H129279   6.526   3.875  16.116 -0.8153  1.1248  1.2223
 2596TIP3    H229280   6.630   3.777  16.167 -0.7993 -0.2968 -1.4536
 2597TIP3   OH229281   3.566   4.547  13.211  0.1793 -0.2966  0.1713
 2597TIP3    H129282   3.547   4.464  13.254  2.1057 -1.4093 -1.0328
 2597TIP3    H229283   3.486   4.567  13.161 -1.0052 -0.4147  1.9753
 2598TIP3   OH229284   1.335   5.809  16.656 -0.0021  0.0093 -0.1125
 2598TIP3    H129285   1.379   5.762  16.585  1.3341  1.0333  0.0190
 2598TIP3    H229286   1.379   5.894  16.659 -0.7873  0.3743  1.2181
 2599TIP3   OH229287   5.268   5.381  14.488  0.3512  0.2584 -0.2921
 2599TIP3    H129288   5.348   5.343  14.522  1.3295  1.8444 -0.7374
 2599TIP3    H229289   5.263   5.467  14.529 -2.2949 -0.6652  1.4219
 2600TIP3   OH229290   0.771   1.792  14.489  0.0100  0.5816  0.3859
 2600TIP3    H129291   0.779   1.733  14.564 -0.4690 -0.5477 -0.4391
 2600TIP3    H229292   0.739   1.737  14.418  0.2537  1.6856 -0.6022
 2601TIP3   OH229293   2.901   4.109  17.134  0.1036  0.0755 -0.3272
 2601TIP3    H129294   2.984   4.150  17.157  0.7627 -1.1417 -0.5536
 2601TIP3    H229295   2.914   4.016  17.150 -1.5062 -0.0369  0.5016
 2602TIP3   OH229296   4.707   0.219  15.201  0.0575  0.3150  0.5903
 2602TIP3    H129297   4.612   0.215  15.187 -0.0351  0.8650  1.0639
 2602TIP3    H229298   4.717   0.214  15.296  0.5360 -0.3167  0.5077
 2603TIP3   OH229299   1.444   1.672  12.054  0.0570  0.2250  0.1232
 2603TIP3    H129300   1.504   1.626  11.995 -0.3948 -0.2192  0.0055
 2603TIP3    H229301   1.361   1.673  12.008 -0.4264 -0.5667  0.9532
 2604TIP3   OH229302   6.745   2.040  17.061 -0.7047 -0.0551  0.0001
 2604TIP3    H129303   6.711   2.058  17.149 -1.2651 -1.3377  0.0596
 2604TIP3    H229304   6.667   2.025  17.008 -0.3233 -0.8437 -0.3520
 2605TIP3   OH229305   1.585   0.425  15.236 -0.4837 -0.2199  0.0615
 2605TIP3    H129306   1.508   0.456  15.284  0.3748 -0.1511  1.4419
 2605TIP3    H229307   1.659   0.458  15.287  0.4568 -1.6725 -0.3384
 2606TIP3   OH229308   3.511   2.334   2.117  0.6763 -0.0864 -0.2366
 2606TIP3    H129309   3.416   2.350   2.113  0.3323 -1.4740  1.6211
 2606TIP3    H229310   3.550   2.421   2.126 -0.3881  0.5301 -1.4901
 2607TIP3   OH229311   4.627   2.563  11.407 -0.5348  0.4825 -0.1983
 2607TIP3    H129312   4.712   2.549  11.451 -2.5969 -0.1314  3.8358
 2607TIP3    H229313   4.619   2.658  11.403 -0.6747  0.5776  1.6492
 2608TIP3   OH229314   3.744   1.211   5.285  0.0156 -0.4522  0.7849
 2608TIP3    H129315   3.818   1.153   5.271  2.1192  2.0308  1.2619
 2608TIP3    H229316   3.726   1.249   5.199  0.1766 -0.0406  0.9305
 2609TIP3   OH229317   6.098   2.450  16.219  0.2151  0.7251 -0.2479
 2609TIP3    H129318   6.169   2.428  16.280 -1.8825 -1.4186  1.5455
 2609TIP3    H229319   6.042   2.510  16.268 -0.8586 -0.0696 -0.4826
 2610TIP3   OH229320   1.779   2.288   4.376 -0.1228  0.0857 -0.2567
 2610TIP3    H129321   1.694   2.310   4.415 -0.0914 -0.0655 -0.1043
 2610TIP3    H229322   1.838   2.280   4.450  0.2316  1.0798 -0.4203
 2611TIP3   OH229323   4.839   4.691   0.579  0.5212 -0.7484  0.4439
 2611TIP3    H129324   4.923   4.682   0.623 -0.3094  1.1031  2.5219
 2611TIP3    H229325   4.858   4.738   0.498  1.6449 -1.4659  0.2816
 2612TIP3   OH229326   0.070   5.422   1.834  0.3102 -0.2655  0.2204
 2612TIP3    H129327   0.082   5.509   1.795  0.4788 -0.5667 -0.3905
 2612TIP3    H229328   0.089   5.361   1.764  1.2712 -0.8153  0.9361
 2613TIP3   OH229329   6.152   2.079  15.511  0.5425  0.1243  0.4745
 2613TIP3    H129330   6.242   2.109  15.502  0.0249  1.7326  0.4892
 2613TIP3    H229331   6.143   2.057  15.604  0.4894  1.4273  0.7886
 2614TIP3   OH229332   5.614   5.014   0.992  0.2269  0.2945  0.3321
 2614TIP3    H129333   5.635   5.040   0.902 -0.6387 -0.3817 -0.0756
 2614TIP3    H229334   5.559   5.084   1.025 -1.2528 -0.4885 -0.4156
 2615TIP3   OH229335   4.970   3.330  12.648 -0.0857 -0.8181 -0.4734
 2615TIP3    H129336   4.919   3.392  12.596 -1.8233 -1.3213  0.6085
 2615TIP3    H229337   5.031   3.291  12.585  0.4333  1.3139 -1.3557
 2616TIP3   OH229338   3.259   4.918  16.922  0.3846 -0.1002 -0.6934
 2616TIP3    H129339   3.349   4.894  16.943 -0.1656 -1.3899  0.2973
 2616TIP3    H229340   3.232   4.974  16.994 -0.0653 -0.8862 -0.2474
 2617TIP3   OH229341   5.432   0.863   2.998 -0.7750  0.2681  0.1337
 2617TIP3    H129342   5.344   0.826   2.997 -0.3146 -0.9428  1.7478
 2617TIP3    H229343   5.487   0.793   3.033  0.6706  1.3450  0.0699
 2618TIP3   OH229344   1.136   0.545   1.021  0.9938 -0.3438  0.1593
 2618TIP3    H129345   1.210   0.488   1.038  2.4890  2.2291  2.7421
 2618TIP3    H229346   1.134   0.605   1.096 -2.2484  1.1643 -1.0222
 2619TIP3   OH229347   2.622   1.794   0.861  0.6283 -0.2624  0.3257
 2619TIP3    H129348   2.632   1.714   0.912 -1.4913 -1.4692 -1.0816
 2619TIP3    H229349   2.711   1.815   0.832  1.1090 -2.5372  0.0629
 2620TIP3   OH229350   6.010   1.457  12.264  0.0168 -0.4661 -0.0215
 2620TIP3    H129351   6.002   1.457  12.359  0.8399 -1.2235  0.0448
 2620TIP3    H229352   5.989   1.368  12.237  1.1267 -0.6051 -0.4398
 2621TIP3   OH229353   5.139   5.362   4.037  1.0369 -0.2138 -0.1630
 2621TIP3    H129354   5.195   5.417   4.091  0.9326  0.0331 -0.3012
 2621TIP3    H229355   5.089   5.424   3.984 -0.3345 -0.3849  0.9054
 2622TIP3   OH229356   0.298   2.554  17.188 -0.6633 -0.1679 -0.4204
 2622TIP3    H129357   0.269   2.542  17.278  0.8507  1.3803  0.3158
 2622TIP3    H229358   0.218   2.571  17.138 -1.6265 -2.1102  0.4198
 2623TIP3   OH229359   5.720   1.917   3.816 -0.3248  0.1586  0.2198
 2623TIP3    H129360   5.669   1.912   3.735  0.3147  1.6900 -0.2878
 2623TIP3    H229361   5.654   1.916   3.885 -0.9333 -0.0285 -0.3496
 2624TIP3   OH229362   4.498   3.029   4.277  0.2693  0.2884  0.0141
 2624TIP3    H129363   4.478   2.936   4.283  1.5889  0.0114  0.2993
 2624TIP3    H229364   4.499   3.059   4.368  0.8991  0.3408 -0.0061
 2625TIP3   OH229365   1.361   4.348  12.618  0.3059 -0.0482  0.3823
 2625TIP3    H129366   1.367   4.419  12.682 -2.1512  0.9875 -0.4875
 2625TIP3    H229367   1.436   4.361  12.561  0.4114  1.2963  0.7999
 2626TIP3   OH229368   0.849   6.628   4.863 -0.5573 -0.2388 -0.2121
 2626TIP3    H129369   0.807   6.555   4.817  1.0137 -0.6455 -1.0346
 2626TIP3    H229370   0.843   6.702   4.804 -0.8128 -0.0930 -0.0041
 2627TIP3   OH229371   1.498   0.894   1.697 -0.2053  0.2360 -0.2841
 2627TIP3    H129372   1.552   0.825   1.736 -0.6420 -0.7574 -1.3993
 2627TIP3    H229373   1.478   0.861   1.610  0.4086  2.2359 -1.2019
 2628TIP3   OH229374   3.446   5.741  16.973 -0.0804  0.0293  0.1325
 2628TIP3    H129375   3.380   5.685  16.933 -0.3827  0.2648  0.2983
 2628TIP3    H229376   3.457   5.705  17.061  0.0676 -0.0570  0.0786
 2629TIP3   OH229377   6.181   4.129   4.325  0.4054 -0.2053  0.6124
 2629TIP3    H129378   6.170   4.199   4.389 -0.8750  0.2428 -0.0752
 2629TIP3    H229379   6.203   4.173   4.243 -2.4034 -0.4002 -0.3166
 2630TIP3   OH229380   4.527   5.438  14.308  0.4722 -0.0735  0.2328
 2630TIP3    H129381   4.461   5.370  14.298 -0.6863  0.7788  1.8848
 2630TIP3    H229382   4.501   5.486  14.386  2.8880  0.4839  0.7422
 2631TIP3   OH229383   3.421   1.218  16.742 -0.2106  0.1961 -0.3883
 2631TIP3    H129384   3.420   1.182  16.653 -0.7402 -2.1735  0.5292
 2631TIP3    H229385   3.346   1.177  16.785  0.6736  0.4545  1.4593
 2632TIP3   OH229386   1.189   1.343   5.670 -0.5686  0.5966 -0.3040
 2632TIP3    H129387   1.144   1.263   5.642 -0.6955  0.8406 -0.8002
 2632TIP3    H229388   1.171   1.349   5.764 -4.4748  2.4686 -1.0208
 2633TIP3   OH229389   6.472   0.411   0.326  0.2284 -0.1660 -0.9089
 2633TIP3    H129390   6.544   0.471   0.346 -0.1095 -0.3674  1.0076
 2633TIP3    H229391   6.510   0.346   0.266  1.8953 -0.8013  0.8070
 2634TIP3   OH229392   5.433   0.737  15.600 -0.5476 -0.0259 -0.3360
 2634TIP3    H129393   5.479   0.731  15.517  0.3957  0.1479  0.1669
 2634TIP3    H229394   5.461   0.820  15.637 -1.2129  0.0451  0.0059
 2635TIP3   OH229395   4.648   2.629  11.069  0.2678  0.7633 -0.3237
 2635TIP3    H129396   4.733   2.673  11.064  0.7834  0.0288  1.4081
 2635TIP3    H229397   4.617   2.625  10.979  1.7673  1.6378 -0.8933
 2636TIP3   OH229398   6.213   5.656   3.704 -0.0801  0.1081 -0.2247
 2636TIP3    H129399   6.176   5.591   3.764 -0.8622  1.8950  1.2791
 2636TIP3    H229400   6.143   5.674   3.641  0.5261 -1.3149 -1.3178
 2637TIP3   OH229401   0.524   4.752  14.538  0.2825  0.5043 -0.2687
 2637TIP3    H129402   0.537   4.840  14.503 -1.2001  0.8482  0.0073
 2637TIP3    H229403   0.501   4.699  14.462  0.3528  0.5474 -0.3195
 2638TIP3   OH229404   0.483   1.241  11.422 -0.0003  0.2314  0.1293
 2638TIP3    H129405   0.471   1.281  11.336 -1.3047  0.3231  0.3447
 2638TIP3    H229406   0.501   1.149  11.404  1.6372  0.6171 -0.3085
 2639TIP3   OH229407   4.074   2.966   4.150 -0.1491  0.4937  0.0800
 2639TIP3    H129408   4.098   2.971   4.057  1.8745 -0.3215  0.5382
 2639TIP3    H229409   4.024   3.046   4.166 -1.8785 -0.0940 -2.0700
 2640TIP3   OH229410   2.751   0.900  15.854  0.1463 -0.1673  0.3586
 2640TIP3    H129411   2.703   0.972  15.813 -1.3462  0.0748  2.4876
 2640TIP3    H229412   2.709   0.821  15.821 -0.2673 -0.0005  0.4840
 2641TIP3   OH229413   5.345   2.437  14.180 -0.6425 -0.0418 -0.4675
 2641TIP3    H129414   5.438   2.456  14.189 -0.0763 -2.7039 -0.3348
 2641TIP3    H229415   5.333   2.420  14.086 -0.6425 -1.2881 -0.2567
 2642TIP3   OH229416   0.313   2.310  11.231 -0.0932 -0.4246 -0.4033
 2642TIP3    H129417   0.318   2.370  11.156 -0.5653 -0.5869 -0.5705
 2642TIP3    H229418   0.399   2.267  11.234 -0.9071 -2.3341 -2.4865
 2643TIP3   OH229419   1.209   5.323  15.297  0.1362 -0.7916 -0.1247
 2643TIP3    H129420   1.133   5.379  15.278  2.0000  1.3997 -1.3569
 2643TIP3    H229421   1.219   5.329  15.392 -1.3099 -1.2127  0.0675
 2644TIP3   OH229422   4.531   1.928  16.489  0.0528 -0.7596 -0.6655
 2644TIP3    H129423   4.606   1.988  16.485 -0.1886 -0.4384 -0.4149
 2644TIP3    H229424   4.568   1.846  16.523  0.6013 -1.1116 -2.0415
 2645TIP3   OH229425   5.925   2.714   4.876  0.0977  0.0908 -0.4892
 2645TIP3    H129426   5.830   2.712   4.891  0.2928  0.9808  0.9903
 2645TIP3    H229427   5.962   2.723   4.964  1.5486  0.1000 -1.0972
 2646TIP3   OH229428   5.865   6.522  16.142  0.2141 -0.0202  0.2471
 2646TIP3    H129429   5.801   6.452  16.143  1.6184 -1.3291  1.8188
 2646TIP3    H229430   5.943   6.483  16.103  0.5696  1.1003 -0.2002
 2647TIP3   OH229431   1.660   4.927   5.091 -0.0109  0.2290 -0.1191
 2647TIP3    H129432   1.732   4.989   5.103  0.8560 -0.8410  0.3683
 2647TIP3    H229433   1.689   4.871   5.019 -0.1061 -0.5478  0.4406
 2648TIP3   OH229434   0.739   5.334   0.658 -0.6426  0.1784 -0.1564
 2648TIP3    H129435   0.769   5.246   0.678 -0.9032 -0.0005 -0.5497
 2648TIP3    H229436   0.778   5.355   0.574 -1.9008 -0.1934 -0.8448
 2649TIP3   OH229437   1.199   5.513   4.805 -0.8866 -0.3392  0.4846
 2649TIP3    H129438   1.182   5.605   4.783  0.3251 -0.2687 -0.2216
 2649TIP3    H229439   1.207   5.512   4.900  1.4869  0.7437  0.3530
 2650TIP3   OH229440   5.448   4.786   5.082  0.0284 -0.3788  0.1725
 2650TIP3    H129441   5.429   4.849   5.012  2.1209  0.0195 -0.0796
 2650TIP3    H229442   5.371   4.789   5.139 -0.9382  0.6062 -1.1533
 2651TIP3   OH229443   4.448   2.965   3.614  0.7665 -0.2482  0.9287
 2651TIP3    H129444   4.437   3.055   3.582  0.4082 -0.1997  1.1846
 2651TIP3    H229445   4.358   2.932   3.625  0.8828 -1.3126 -1.0499
 2652TIP3   OH229446   6.713   6.317  13.503  0.2569 -0.0969 -0.3160
 2652TIP3    H129447   6.698   6.303  13.410 -0.0027 -2.0498 -0.0113
 2652TIP3    H229448   6.761   6.399  13.509 -2.6384  1.7804 -1.9520
 2653TIP3   OH229449   0.953   4.804   1.283  0.2619 -0.1050 -0.2895
 2653TIP3    H129450   0.881   4.852   1.242  0.7352  0.0325 -0.9730
 2653TIP3    H229451   0.974   4.854   1.361 -1.5939 -1.1285  0.9064
 2654TIP3   OH229452   4.605   5.869   5.511 -0.0826 -0.0179 -0.9463
 2654TIP3    H129453   4.589   5.960   5.536 -0.5840 -0.1148 -0.8968
 2654TIP3    H229454   4.574   5.864   5.420  2.8212  0.6278 -2.0143
 2655TIP3   OH229455   6.648   0.254   4.700 -0.2324 -0.4440  0.0046
 2655TIP3    H129456   6.608   0.187   4.755 -1.4536 -0.7726 -1.2592
 2655TIP3    H229457   6.707   0.205   4.642 -0.4304 -0.3292 -0.2959
 2656TIP3   OH229458   5.036   3.334  17.272 -0.0755  0.4608 -0.2899
 2656TIP3    H129459   5.053   3.410  17.216 -0.0476  0.3119 -0.4813
 2656TIP3    H229460   5.027   3.261  17.212 -1.9912  0.6313 -0.2433
 2657TIP3   OH229461   1.127   4.474  14.279 -0.0153  0.1518 -0.1330
 2657TIP3    H129462   1.158   4.494  14.191  0.9063 -3.5498 -0.7219
 2657TIP3    H229463   1.032   4.484  14.274 -0.0411 -0.7494 -1.7794
 2658TIP3   OH229464   2.935   1.453   1.838 -0.1521  0.3935 -0.1004
 2658TIP3    H129465   2.883   1.373   1.835  0.2415  0.1414 -0.2230
 2658TIP3    H229466   2.930   1.482   1.929  1.0738 -0.6830  0.3312
 2659TIP3   OH229467   2.207   2.756   0.358  0.2221 -0.6254 -0.7298
 2659TIP3    H129468   2.288   2.770   0.407 -0.6567 -1.5776  1.0069
 2659TIP3    H229469   2.229   2.687   0.295  0.2323 -2.2090  0.9941
 2660TIP3   OH229470   4.083   3.813   6.376 -0.3743  0.2458  0.0311
 2660TIP3    H129471   4.011   3.876   6.370 -0.3461  0.3629  0.8198
 2660TIP3    H229472   4.084   3.786   6.468 -0.4901 -1.0357 -0.3256
 2661TIP3   OH229473   3.273   2.523   4.445  0.3301  0.2591  0.0100
 2661TIP3    H129474   3.292   2.552   4.535  0.1945  1.1996 -0.2628
 2661TIP3    H229475   3.190   2.476   4.452 -0.5899  1.8534  0.0867
 2662TIP3   OH229476   4.327   4.860  16.383  0.0704 -0.4903 -0.0143
 2662TIP3    H129477   4.375   4.932  16.424 -1.4899  0.9812 -0.6999
 2662TIP3    H229478   4.248   4.850  16.436 -0.2782 -0.9268 -0.6122
 2663TIP3   OH229479   1.284   3.518   0.989  0.3092 -0.2896 -0.3671
 2663TIP3    H129480   1.210   3.459   0.974 -0.6898  0.8606 -0.1004
 2663TIP3    H229481   1.312   3.544   0.901 -0.1024 -0.1485 -0.4592
 2664TIP3   OH229482   2.967   0.037  15.778 -0.9730 -0.0406 -0.1237
 2664TIP3    H129483   2.973  -0.027  15.849  2.4539  0.9775  0.5887
 2664TIP3    H229484   3.011  -0.006  15.704  2.9879  2.0496  0.8798
 2665TIP3   OH229485   4.716   0.477   1.314 -0.0469  0.3346 -0.2980
 2665TIP3    H129486   4.779   0.416   1.354  1.1569  0.5577 -1.8048
 2665TIP3    H229487   4.687   0.432   1.235 -0.9615  0.7106 -0.1784
 2666TIP3   OH229488   4.558   1.754   2.608 -0.2394  0.1002 -0.1040
 2666TIP3    H129489   4.494   1.777   2.675  0.1608 -0.9872  0.6487
 2666TIP3    H229490   4.581   1.838   2.567  0.0694  0.8554  1.5964
 2667TIP3   OH229491   2.000   6.413  15.581 -0.4903  0.0681  0.1816
 2667TIP3    H129492   2.039   6.456  15.505 -0.8435 -1.5072 -0.8998
 2667TIP3    H229493   1.922   6.465  15.600  0.4060  1.3539  0.4013
 2668TIP3   OH229494   5.959   5.715   3.577 -0.3086  0.5067  0.2500
 2668TIP3    H129495   5.878   5.666   3.587 -0.4234  0.7479  0.5038
 2668TIP3    H229496   5.954   5.752   3.489 -0.2409  0.0947  0.0748
 2669TIP3   OH229497   6.204   0.195   3.551 -0.2375  0.0456  0.3375
 2669TIP3    H129498   6.289   0.238   3.541  0.1479 -0.3770  1.7250
 2669TIP3    H229499   6.150   0.233   3.482  0.4243  1.9255  0.8173
 2670TIP3   OH229500   4.052   4.191   2.619 -0.2735 -0.3450  0.1246
 2670TIP3    H129501   4.024   4.125   2.555 -1.9215 -0.3075  0.7966
 2670TIP3    H229502   4.106   4.142   2.681  0.9880 -0.4649 -1.0493
 2671TIP3   OH229503   5.660   0.467  16.275  1.0399 -0.3658 -0.0956
 2671TIP3    H129504   5.710   0.488  16.196  0.4554  0.4542 -0.2495
 2671TIP3    H229505   5.699   0.523  16.342  0.6023 -0.0385 -0.1190
 2672TIP3   OH229506   5.101   4.192  12.236 -0.5226 -0.1204 -0.2951
 2672TIP3    H129507   5.039   4.134  12.191 -1.0701  0.3154 -0.1084
 2672TIP3    H229508   5.057   4.277  12.238  1.6584  1.2296 -3.6391
 2673TIP3   OH229509   3.296   5.084   4.815  0.0759 -0.1341  0.1661
 2673TIP3    H129510   3.260   5.078   4.904 -0.4163  0.7405  0.0292
 2673TIP3    H229511   3.248   5.156   4.775  2.3187  1.3668  0.1242
 2674TIP3   OH229512   2.621   0.752  11.853  0.0997 -0.0600  0.1359
 2674TIP3    H129513   2.580   0.683  11.905 -1.9693  0.7330 -0.3728
 2674TIP3    H229514   2.632   0.825  11.914  2.1106 -0.7376  0.6252
 2675TIP3   OH229515   3.237   6.087   0.585 -0.4539  0.2227 -0.7105
 2675TIP3    H129516   3.223   6.114   0.675 -2.0384 -1.4577 -0.4180
 2675TIP3    H229517   3.328   6.060   0.581 -0.2404  0.7863  0.2417
 2676TIP3   OH229518   1.473   3.925  12.298 -0.1132 -0.7109 -0.5505
 2676TIP3    H129519   1.449   3.883  12.380  0.7415 -0.9187 -0.4086
 2676TIP3    H229520   1.414   4.001  12.292 -0.9743 -1.3598 -0.3291
 2677TIP3   OH229521   2.907   1.124  10.854 -0.5733 -0.1404  0.2249
 2677TIP3    H129522   2.981   1.110  10.914  0.3772 -1.6854 -1.2534
 2677TIP3    H229523   2.833   1.081  10.897 -0.3943  0.5626  1.2584
 2678TIP3   OH229524   0.069   6.783  11.727 -0.3998  0.5615 -0.1396
 2678TIP3    H129525   0.079   6.874  11.756 -1.7960  0.7019 -0.0679
 2678TIP3    H229526   0.147   6.766  11.675 -0.3855  1.9847 -0.6050
 2679TIP3   OH229527   5.523   1.935  16.608 -0.1196 -0.8510 -0.5302
 2679TIP3    H129528   5.492   1.847  16.584 -0.5605 -0.6764 -0.6085
 2679TIP3    H229529   5.547   1.928  16.700 -1.1050 -0.8012 -0.2595
 2680TIP3   OH229530   1.699   4.227   4.798  0.5607 -0.0695 -0.7257
 2680TIP3    H129531   1.709   4.143   4.753  1.6228  0.6472 -1.8477
 2680TIP3    H229532   1.721   4.293   4.732  0.9688  1.0512  0.5038
 2681TIP3   OH229533   4.827   1.801  15.289  0.0252  0.5813 -0.3122
 2681TIP3    H129534   4.848   1.709  15.275 -0.3998  0.1258  1.9005
 2681TIP3    H229535   4.751   1.817  15.234  0.0043 -0.4155 -0.5797
 2682TIP3   OH229536   5.444   1.880  13.335  0.0759  0.0348  0.4674
 2682TIP3    H129537   5.416   1.815  13.271 -1.1404 -0.2458  1.2418
 2682TIP3    H229538   5.519   1.840  13.379 -0.6247 -0.8488  0.8978
 2683TIP3   OH229539   6.526   1.206   5.636 -0.0767 -0.2472 -0.2181
 2683TIP3    H129540   6.538   1.241   5.547 -2.5535 -0.0907 -0.5264
 2683TIP3    H229541   6.512   1.112   5.623 -1.7769 -0.0274 -0.1523
 2684TIP3   OH229542   4.347   1.982   0.578 -0.2330  0.0209  0.0563
 2684TIP3    H129543   4.283   1.996   0.648  0.3358  0.7646  0.4327
 2684TIP3    H229544   4.346   2.064   0.528 -0.3589 -0.3669 -0.5831
 2685TIP3   OH229545   2.770   0.648  12.786  0.3934  0.0847  0.2245
 2685TIP3    H129546   2.690   0.595  12.782  1.1410 -1.0619  0.1505
 2685TIP3    H229547   2.799   0.653  12.695 -0.9295  2.6256 -0.1093
 2686TIP3   OH229548   1.376   2.103   1.687 -0.4309  0.9867  0.0402
 2686TIP3    H129549   1.345   2.054   1.763 -0.1430 -1.3870 -1.3112
 2686TIP3    H229550   1.454   2.149   1.719  0.7292 -1.3855  0.7735
 2687TIP3   OH229551   2.741   2.587  14.542 -0.2916 -0.2249  0.4469
 2687TIP3    H129552   2.749   2.544  14.627 -0.5043 -2.8733 -0.8101
 2687TIP3    H229553   2.829   2.580  14.503 -0.3943  0.2601  0.1228
 2688TIP3   OH229554   5.361   0.616  15.832 -0.0941  0.3853  1.0474
 2688TIP3    H129555   5.398   0.675  15.766 -3.3624  3.1690  1.5633
 2688TIP3    H229556   5.282   0.580  15.790 -0.5223 -0.1881  2.3244
 2689TIP3   OH229557   3.596   5.844   0.151 -0.3059  0.3955  0.0401
 2689TIP3    H129558   3.531   5.895   0.200 -0.1388  2.1665 -1.5079
 2689TIP3    H229559   3.676   5.850   0.205 -1.4374 -2.0063  2.0766
 2690TIP3   OH229560   6.625   0.223  13.801  0.4901 -0.0280  0.1004
 2690TIP3    H129561   6.583   0.229  13.715  2.2013  0.4465 -0.7054
 2690TIP3    H229562   6.587   0.296  13.851  0.2526  0.3112 -0.5708
 2691TIP3   OH229563   6.732   6.783  16.616  0.2059 -0.0015  0.1473
 2691TIP3    H129564   6.822   6.752  16.604  0.1768  0.5093 -1.5371
 2691TIP3    H229565   6.733   6.872  16.581 -0.8474  0.1839  0.5761
 2692TIP3   OH229566   3.534   5.864  12.385  0.2122  0.0791  0.1405
 2692TIP3    H129567   3.587   5.937  12.419 -0.1772  0.4857 -0.1136
 2692TIP3    H229568   3.532   5.879  12.290  0.0391 -0.2020  0.1027
 2693TIP3   OH229569   5.168   2.658   5.581  0.4242 -0.0591 -0.0920
 2693TIP3    H129570   5.144   2.740   5.623 -0.9517 -1.0410  1.0897
 2693TIP3    H229571   5.261   2.668   5.561  1.0492  0.6372  2.8047
 2694TIP3   OH229572   2.822   4.280  14.651  0.1552  0.6842  0.2801
 2694TIP3    H129573   2.828   4.261  14.558  1.5067  0.2911  0.4440
 2694TIP3    H229574   2.844   4.197  14.694  2.5744  1.6613  0.9691
 2695TIP3   OH229575   1.436   1.602   4.819  0.0282 -0.1866 -0.2088
 2695TIP3    H129576   1.358   1.651   4.843  0.1291  0.1238 -0.5133
 2695TIP3    H229577   1.462   1.637   4.734  0.3237 -0.4990 -0.2510
 2696TIP3   OH229578   2.184   6.362   6.400 -0.0509 -0.5081  0.0318
 2696TIP3    H129579   2.229   6.408   6.471 -0.6457  0.2883 -0.0918
 2696TIP3    H229580   2.239   6.376   6.323 -0.0735 -0.2456  0.0615
 2697TIP3   OH229581   2.942   6.494  12.905  0.1694  0.3198 -0.0909
 2697TIP3    H129582   2.899   6.569  12.865  0.9696  1.7380  1.6659
 2697TIP3    H229583   2.875   6.425  12.904 -0.8552  1.3017 -0.8922
 2698TIP3   OH229584   4.925   1.148   2.725  0.4536 -0.0204  0.1684
 2698TIP3    H129585   4.963   1.212   2.785 -0.3387  0.5539  0.0611
 2698TIP3    H229586   4.837   1.181   2.707  0.0311 -1.1550  0.1358
 2699TIP3   OH229587   4.129   4.094  14.283 -0.3715 -0.1050  0.0503
 2699TIP3    H129588   4.079   4.172  14.259 -0.0349  0.3724  0.8847
 2699TIP3    H229589   4.180   4.120  14.360 -0.3695 -1.1876  0.4302
 2700TIP3   OH229590   6.597   6.478   0.792  0.3466 -0.0462 -0.4343
 2700TIP3    H129591   6.685   6.488   0.758  0.7550  0.1639  0.6521
 2700TIP3    H229592   6.593   6.540   0.866 -0.2710 -1.0110  0.3486
 2701TIP3   OH229593   5.196   0.858  14.628  0.1114 -0.3331 -0.0905
 2701TIP3    H129594   5.285   0.873  14.661 -0.2838 -0.3154  0.9868
 2701TIP3    H229595   5.152   0.942  14.639 -0.4688 -0.7402  0.7659
 2702TIP3   OH229596   5.494   6.142   2.858 -0.1170 -0.0428  0.0896
 2702TIP3    H129597   5.421   6.191   2.896 -0.3481  0.4957 -1.0061
 2702TIP3    H229598   5.484   6.053   2.890 -0.5600  0.3069  0.9155
 2703TIP3   OH229599   1.865   5.677  15.932  0.1723  0.5513  0.2557
 2703TIP3    H129600   1.953   5.663  15.896  0.6157 -0.0074  1.5183
 2703TIP3    H229601   1.813   5.604  15.897  0.0011  1.3229 -1.1292
 2704TIP3   OH229602   0.854   0.712   0.249 -0.1346  0.4544 -0.0418
 2704TIP3    H129603   0.808   0.734   0.330 -0.5625 -1.0878  0.1519
 2704TIP3    H229604   0.835   0.785   0.190 -3.0698 -0.2488 -0.0559
 2705TIP3   OH229605   5.191   6.472   5.568 -0.5461 -0.2527 -0.0689
 2705TIP3    H129606   5.267   6.420   5.540 -0.5056  0.5627 -1.5205
 2705TIP3    H229607   5.138   6.410   5.618  0.0938 -1.3759 -0.7358
 2706TIP3   OH229608   4.937   6.614  16.656  0.0172 -0.1741 -0.3605
 2706TIP3    H129609   4.883   6.661  16.719  1.4351 -0.4949  1.1345
 2706TIP3    H229610   4.877   6.551  16.616 -0.7939 -0.3663  1.0960
 2707TIP3   OH229611   0.074   4.769   3.000  0.5529  0.0988 -0.0261
 2707TIP3    H129612   0.112   4.847   2.960  0.3259  0.9063  1.3076
 2707TIP3    H229613   0.049   4.797   3.088 -0.3913 -1.2317  0.1394
 2708TIP3   OH229614   5.647   0.967   4.619  0.3707  0.2332 -0.0818
 2708TIP3    H129615   5.646   1.022   4.697 -2.9751  0.6143 -0.3461
 2708TIP3    H229616   5.738   0.971   4.588  1.7768  0.0135  3.7778
 2709TIP3   OH229617   4.996   0.028  15.797  0.2762 -0.2285  0.2907
 2709TIP3    H129618   5.049  -0.018  15.861  1.4140 -0.0564 -0.5047
 2709TIP3    H229619   5.033   0.116  15.793 -0.6636  0.1829  0.4023
 2710TIP3   OH229620   2.929   6.061   0.055  0.2156  0.3451  0.6876
 2710TIP3    H129621   2.882   6.004  -0.006  0.1792  1.6763 -0.5562
 2710TIP3    H229622   2.997   6.005   0.093 -2.3478 -1.6145  2.5357
 2711TIP3   OH229623   4.455   4.439   0.681 -0.1590  0.6730 -0.1308
 2711TIP3    H129624   4.398   4.485   0.743 -0.8029  0.4201 -0.5401
 2711TIP3    H229625   4.420   4.461   0.595  0.1708  0.2621 -0.3694
 2712TIP3   OH229626   0.819   2.138   4.349 -0.3560  0.0895 -0.6036
 2712TIP3    H129627   0.742   2.154   4.294 -0.0065 -0.7667 -1.3532
 2712TIP3    H229628   0.863   2.064   4.308 -0.0601 -0.5389  0.8122
 2713TIP3   OH229629   3.363   5.052  12.939 -0.0906 -0.1039 -0.8290
 2713TIP3    H129630   3.414   5.073  13.018 -0.3607 -1.0359 -0.3918
 2713TIP3    H229631   3.317   5.133  12.918 -0.0681  0.1394  0.0190
 2714TIP3   OH229632   6.586   0.520  16.451 -0.4146 -0.0943 -0.1671
 2714TIP3    H129633   6.544   0.443  16.411 -2.7581  1.3396 -0.5866
 2714TIP3    H229634   6.604   0.578  16.377  2.2844 -0.6213  0.0279
 2715TIP3   OH229635   3.364   5.938  13.414  0.3489  0.2554  0.1235
 2715TIP3    H129636   3.358   5.844  13.399 -0.5185  0.4888 -1.0454
 2715TIP3    H229637   3.450   5.950  13.454 -0.4559 -1.2924  2.4131
 2716TIP3   OH229638   3.971   5.550   1.011  0.4839 -0.5182  0.2157
 2716TIP3    H129639   3.967   5.520   0.920 -0.2933  1.3979 -0.3870
 2716TIP3    H229640   3.901   5.501   1.055  0.0281 -0.5091 -0.4909
 2717TIP3   OH229641   0.983   0.159  14.361 -0.2140  0.0271 -0.2523
 2717TIP3    H129642   0.933   0.151  14.279  1.4732  0.3002 -1.3318
 2717TIP3    H229643   0.952   0.240  14.401 -1.3177 -0.3013 -0.4421
 2718TIP3   OH229644   0.693   3.403   2.925 -0.4113 -0.1064 -0.1891
 2718TIP3    H129645   0.674   3.372   3.014  1.1143  0.2021  0.2545
 2718TIP3    H229646   0.745   3.333   2.886 -1.4186 -0.4224 -0.9943
 2719TIP3   OH229647   4.217   5.717   0.938  0.4205 -1.0123  0.1428
 2719TIP3    H129648   4.201   5.665   1.017  0.0268 -0.0572  0.7014
 2719TIP3    H229649   4.222   5.807   0.970 -2.3196 -0.3264 -1.2394
 2720TIP3   OH229650   1.375   5.260   3.723 -0.1537  0.4542 -0.5079
 2720TIP3    H129651   1.422   5.178   3.738  1.3717  1.2284 -0.9635
 2720TIP3    H229652   1.415   5.296   3.644 -1.2469  1.3409 -0.6714
 2721TIP3   OH229653   3.798   0.935  13.570 -0.1027  0.5537 -0.6260
 2721TIP3    H129654   3.775   0.969  13.484  1.2944  1.0803 -0.8072
 2721TIP3    H229655   3.814   0.842  13.556  2.9716  1.1605 -1.5491
 2722TIP3   OH229656   3.840   0.305  13.620 -0.2177 -0.0936 -0.5574
 2722TIP3    H129657   3.755   0.261  13.625 -0.1754 -0.5221 -3.0421
 2722TIP3    H229658   3.891   0.268  13.692 -1.0222 -2.2654 -1.0778
 2723TIP3   OH229659   3.908   3.760  15.127  0.1128 -0.5851  0.6382
 2723TIP3    H129660   3.859   3.839  15.148  0.7445 -0.1890  0.6188
 2723TIP3    H229661   3.889   3.700  15.200 -2.7216 -1.5123 -0.7793
 2724TIP3   OH229662   2.606   3.621  10.748  0.3274  0.3759 -0.3236
 2724TIP3    H129663   2.512   3.629  10.733  0.2415 -0.5105 -0.3038
 2724TIP3    H229664   2.635   3.560  10.680  0.8373  0.4279 -0.1482
 2725TIP3   OH229665   1.858   2.011   1.264  0.2861  0.0171 -0.1310
 2725TIP3    H129666   1.812   2.092   1.242  1.3296  1.1356  1.7224
 2725TIP3    H229667   1.816   1.980   1.344  0.3618 -0.9138 -0.4424
 2726TIP3   OH229668   4.021   1.858  13.613 -0.5075 -0.0016 -0.1592
 2726TIP3    H129669   4.097   1.823  13.566  0.2679  1.3100  0.0967
 2726TIP3    H229670   4.050   1.863  13.704 -0.5815  1.3603 -0.2058
 2727TIP3   OH229671   0.427   0.715  11.837  0.1500  0.7930  0.6834
 2727TIP3    H129672   0.483   0.781  11.795 -1.1986  1.4835 -0.0382
 2727TIP3    H229673   0.447   0.634  11.789 -0.2992  1.2713 -0.3213
 2728TIP3   OH229674   1.143   5.808   5.985 -0.3767  0.4662 -0.6657
 2728TIP3    H129675   1.079   5.841   5.922 -1.9968  0.9781  1.2145
 2728TIP3    H229676   1.148   5.875   6.053  1.7849  0.1929 -0.5112
 2729TIP3   OH229677   0.233   2.364  16.847  0.3916 -0.7567  0.5887
 2729TIP3    H129678   0.264   2.336  16.761  0.6999 -1.3801  0.8998
 2729TIP3    H229679   0.157   2.418  16.829 -1.0919 -2.9514  0.0233
 2730TIP3   OH229680   2.751   6.100  17.006  0.9896 -0.1484  0.1858
 2730TIP3    H129681   2.765   6.099  16.911 -0.1301 -0.3585  0.0097
 2730TIP3    H229682   2.784   6.016  17.036  3.9598  1.0611  0.3936
 2731TIP3   OH229683   2.154   5.086   1.650 -0.2701  0.1341  0.4181
 2731TIP3    H129684   2.114   5.023   1.590  0.3180  0.2134 -0.0642
 2731TIP3    H229685   2.152   5.042   1.735  0.0862 -0.5239  0.0950
 2732TIP3   OH229686   5.667   6.276   6.062 -0.4245 -0.5950  0.0238
 2732TIP3    H129687   5.603   6.313   6.123  0.3248 -1.0541  1.0996
 2732TIP3    H229688   5.658   6.181   6.074 -0.4266 -0.6893 -0.7401
 2733TIP3   OH229689   4.964   6.581   3.717  0.0099 -0.2116  0.0301
 2733TIP3    H129690   4.945   6.505   3.662 -2.2244 -1.0530  1.9043
 2733TIP3    H229691   5.059   6.593   3.709  0.1510 -2.1770 -1.5848
 2734TIP3   OH229692   5.635   3.307   6.948 -0.3068  0.1906 -0.5537
 2734TIP3    H129693   5.635   3.383   6.890 -2.1038  0.8292  0.2343
 2734TIP3    H229694   5.712   3.319   7.003  0.0712  0.8289 -1.2146
 2735TIP3   OH229695   0.530   6.812  15.944  0.0130  0.3090 -0.3888
 2735TIP3    H129696   0.468   6.740  15.960  0.2501  0.1347 -0.2609
 2735TIP3    H229697   0.485   6.867  15.880 -0.4941  0.4516  0.0846
 2736TIP3   OH229698   1.845   2.929  16.080 -0.0700 -0.3682  0.1334
 2736TIP3    H129699   1.894   2.925  16.162  0.8737 -1.0173 -0.4630
 2736TIP3    H229700   1.791   2.850  16.081 -1.2399  0.4156  0.8527
 2737TIP3   OH229701   5.648   3.051   2.821  0.4122 -0.0970 -0.5085
 2737TIP3    H129702   5.640   2.958   2.842 -0.6041  0.5168  1.9571
 2737TIP3    H229703   5.705   3.053   2.744 -0.9362 -2.8493 -1.6612
 2738TIP3   OH229704   6.346   4.544   6.730 -0.2481  0.1768  0.4926
 2738TIP3    H129705   6.428   4.537   6.778 -0.8229 -1.0064  1.3437
 2738TIP3    H229706   6.287   4.482   6.774 -0.8853 -0.7084 -1.5070
 2739TIP3   OH229707   5.287   4.851   6.550  0.3464  0.2003  0.1745
 2739TIP3    H129708   5.226   4.836   6.622  0.0229 -2.4460 -0.6016
 2739TIP3    H229709   5.261   4.936   6.514 -2.5797 -0.6569  0.1687
 2740TIP3   OH229710   3.294   6.442   3.016  0.4107  0.3385  0.1602
 2740TIP3    H129711   3.380   6.455   3.056 -0.1280 -0.2371  1.5293
 2740TIP3    H229712   3.303   6.360   2.966  0.7830  0.5189 -0.0723
 2741TIP3   OH229713   4.498   5.821  14.205 -0.0686  0.1971 -0.4313
 2741TIP3    H129714   4.512   5.874  14.283  0.6073  1.3268 -1.3123
 2741TIP3    H229715   4.585   5.812  14.166 -0.0686 -2.0377 -0.0044
 2742TIP3   OH229716   0.989   0.396   2.831  0.1386  0.1314  0.1396
 2742TIP3    H129717   0.895   0.377   2.828  0.2241 -0.0291 -2.1405
 2742TIP3    H229718   1.013   0.384   2.923 -1.8971 -0.6940  0.5782
 2743TIP3   OH229719   3.956   1.006  16.720 -0.3440  0.4125  0.5270
 2743TIP3    H129720   4.024   0.954  16.764  3.0838  1.3254 -3.4506
 2743TIP3    H229721   3.956   1.090  16.766  0.1677 -0.0971  1.4791
 2744TIP3   OH229722   5.949   4.838  14.947 -0.1749  0.7664 -0.3021
 2744TIP3    H129723   5.870   4.892  14.948  0.0722  1.1454  1.4895
 2744TIP3    H229724   6.016   4.894  14.988  0.4262 -0.3862  0.3145
 2745TIP3   OH229725   1.743   6.557  15.582  0.2757 -0.0276  0.0264
 2745TIP3    H129726   1.701   6.603  15.655  0.6539 -1.3117  1.0684
 2745TIP3    H229727   1.707   6.469  15.585  0.2304 -0.0661 -1.4028
 2746TIP3   OH229728   5.477   6.510  17.036  0.5912 -0.2585  0.4371
 2746TIP3    H129729   5.503   6.439  16.977  2.6385  0.7408  0.1060
 2746TIP3    H229730   5.413   6.560  16.985  0.5412 -0.7861 -0.0275
 2747TIP3   OH229731   2.919   6.789  13.736  0.3202 -0.9245 -0.3281
 2747TIP3    H129732   2.963   6.854  13.791 -1.3012 -0.2407  0.1699
 2747TIP3    H229733   2.991   6.748  13.687  1.5284  0.1200  0.5167
 2748TIP3   OH229734   5.658   6.556  15.695  0.3283 -0.0014  0.1369
 2748TIP3    H129735   5.679   6.471  15.732  1.2546 -0.3992 -1.2822
 2748TIP3    H229736   5.734   6.611  15.715 -0.0977  0.3982  0.7045
 2749TIP3   OH229737   6.335   6.418  11.154  0.3261  0.2784 -0.2542
 2749TIP3    H129738   6.271   6.356  11.120 -1.0588  0.5170  1.8724
 2749TIP3    H229739   6.357   6.472  11.078 -0.6212 -0.9401 -1.4378
 2750TIP3   OH229740   4.610   4.192   2.533 -0.4944 -0.1536  0.2300
 2750TIP3    H129741   4.648   4.245   2.603  0.1093 -0.6334  0.2675
 2750TIP3    H229742   4.608   4.251   2.457 -1.1943  0.3778  0.6604
 2751TIP3   OH229743   2.064   3.201  16.399  0.2974  0.2271 -0.5184
 2751TIP3    H129744   2.043   3.272  16.338 -0.1090  1.5997  1.1806
 2751TIP3    H229745   2.058   3.241  16.486 -2.4550 -2.5061  0.6433
 2752TIP3   OH229746   3.445   3.536  16.278  0.2454  0.3319 -0.4373
 2752TIP3    H129747   3.413   3.467  16.219 -0.1682  2.8896 -3.2993
 2752TIP3    H229748   3.396   3.614  16.253  3.7707  2.7092 -0.2161
 2753TIP3   OH229749   6.512   5.905   1.970 -0.1009 -0.2009 -0.5197
 2753TIP3    H129750   6.608   5.901   1.970 -0.0052  1.5762 -1.2991
 2753TIP3    H229751   6.489   5.924   2.061  0.2408 -1.3411 -0.1860
 2754TIP3   OH229752   1.283   2.877   2.801 -0.0462  0.4536 -0.1311
 2754TIP3    H129753   1.284   2.881   2.706  0.1746 -2.8693 -0.3079
 2754TIP3    H229754   1.318   2.791   2.823 -0.2300  1.0846  2.9639
 2755TIP3   OH229755   6.532   0.969   5.511  0.3658 -0.2065  0.2169
 2755TIP3    H129756   6.516   0.898   5.450  1.3092 -0.0989 -0.1659
 2755TIP3    H229757   6.539   0.927   5.596  0.8956 -0.5666 -0.0053
 2756TIP3   OH229758   0.220   4.655  16.668 -0.6265  0.8159  0.3268
 2756TIP3    H129759   0.285   4.602  16.714 -1.8804  0.7177  2.0102
 2756TIP3    H229760   0.172   4.592  16.614 -1.8418  0.2713  2.0070
 2757TIP3   OH229761   4.646   6.048  13.999 -0.2640  0.5198 -0.1101
 2757TIP3    H129762   4.560   6.059  13.958  0.9276  1.7558 -2.3775
 2757TIP3    H229763   4.670   5.957  13.983 -0.3621  0.6636 -1.0591
 2758TIP3   OH229764   4.128   2.878   1.276 -0.2262  0.7238 -0.0963
 2758TIP3    H129765   4.158   2.854   1.189  1.8174 -1.0769  1.0653
 2758TIP3    H229766   4.208   2.902   1.323 -1.2316  1.0955  1.4664
 2759TIP3   OH229767   5.451   0.855   1.303 -0.6317 -0.0633 -0.7014
 2759TIP3    H129768   5.450   0.949   1.285  0.0173  0.1052  0.1595
 2759TIP3    H229769   5.367   0.838   1.345 -0.0761  0.4210  0.6216
 2760TIP3   OH229770   3.728   1.654  13.957  0.1894  0.0337 -0.1961
 2760TIP3    H129771   3.795   1.595  13.922 -1.0148 -1.4067 -0.1355
 2760TIP3    H229772   3.752   1.665  14.049  0.5408 -0.1924 -0.2583
 2761TIP3   OH229773   3.070   3.658  14.001  0.9482 -0.7003 -0.5920
 2761TIP3    H129774   3.108   3.572  14.021 -0.5879 -1.3155 -0.2543
 2761TIP3    H229775   2.983   3.638  13.968  0.5559  0.7513 -0.4590
 2762TIP3   OH229776   1.877   3.064   5.111 -0.0537 -0.2038  0.0561
 2762TIP3    H129777   1.820   2.999   5.152 -1.4650  0.3457 -0.9805
 2762TIP3    H229778   1.935   3.092   5.181 -0.1789 -1.7537  0.8023
 2763TIP3   OH229779   1.011   4.984   5.079 -0.2167  0.4918 -0.2898
 2763TIP3    H129780   1.038   5.076   5.075 -1.0504  0.8110  1.0287
 2763TIP3    H229781   0.922   4.984   5.045 -0.1276  0.1292 -0.5182
 2764TIP3   OH229782   1.480   0.686  15.744  0.1242  0.3702  0.0954
 2764TIP3    H129783   1.570   0.665  15.719 -0.2207 -1.3715  0.2391
 2764TIP3    H229784   1.485   0.774  15.780  1.9440 -0.0942  1.0431
 2765TIP3   OH229785   2.863   5.577  10.510 -0.3330  0.2785 -0.0898
 2765TIP3    H129786   2.799   5.556  10.442 -1.0239 -0.5279  0.8013
 2765TIP3    H229787   2.832   5.531  10.588  1.2004  0.0682  0.4241
 2766TIP3   OH229788   2.189   5.472  15.009  0.0215  0.5083 -0.0372
 2766TIP3    H129789   2.154   5.490  14.921 -1.6464 -0.0957  0.4857
 2766TIP3    H229790   2.142   5.395  15.038  0.3038  0.9148  1.5526
 2767TIP3   OH229791   4.989   1.775   1.824  0.5260  0.2694  0.3248
 2767TIP3    H129792   5.025   1.687   1.808  2.0694  1.0202 -0.4287
 2767TIP3    H229793   5.066   1.829   1.842 -0.4991  1.2571  1.8680
 2768TIP3   OH229794   2.048   6.657  13.941 -0.0705  0.3021 -0.6420
 2768TIP3    H129795   2.016   6.572  13.969 -0.0317  0.4728 -0.0673
 2768TIP3    H229796   2.004   6.673  13.858  0.8050 -0.7909 -1.3378
 2769TIP3   OH229797   1.744   2.570  11.794 -0.0482 -0.2255 -0.8380
 2769TIP3    H129798   1.755   2.623  11.873  1.3321  0.6373 -1.5928
 2769TIP3    H229799   1.706   2.488  11.826 -0.4586  0.4867  0.5861
 2770TIP3   OH229800   3.920   4.134  12.579 -0.5721 -0.1369 -0.3614
 2770TIP3    H129801   3.909   4.062  12.517  1.4569 -0.9121  0.1393
 2770TIP3    H229802   3.906   4.095  12.665 -0.4976  0.2928 -0.1538
 2771TIP3   OH229803   3.687   2.704   5.680 -0.1911  0.4107 -0.0160
 2771TIP3    H129804   3.594   2.702   5.701 -0.0926  0.3056  0.4185
 2771TIP3    H229805   3.691   2.740   5.591 -0.7378 -0.8037 -0.5453
 2772TIP3   OH229806   5.739   6.290   5.589 -0.9448 -0.4648 -0.1189
 2772TIP3    H129807   5.822   6.332   5.567 -0.8553 -1.0908 -1.0273
 2772TIP3    H229808   5.725   6.311   5.681 -0.7294  1.2449 -0.4557
 2773TIP3   OH229809   5.367   3.163   1.537 -0.3798  0.2898  0.3663
 2773TIP3    H129810   5.289   3.213   1.563  0.0228  2.0627 -1.7083
 2773TIP3    H229811   5.336   3.104   1.469 -0.1483  0.1931  0.3471
 2774TIP3   OH229812   6.715   0.639   5.235 -0.3790  0.8904  0.3017
 2774TIP3    H129813   6.804   0.614   5.211 -1.1062  0.4028 -2.0115
 2774TIP3    H229814   6.724   0.684   5.319  1.7990 -0.9508  1.1007
 2775TIP3   OH229815   1.861   3.784  11.942  0.0362  0.9158 -0.6697
 2775TIP3    H129816   1.902   3.704  11.976  1.3041  1.7407 -0.2211
 2775TIP3    H229817   1.774   3.785  11.980  0.1553 -0.0427 -0.3532
 2776TIP3   OH229818   2.446   5.708  14.244 -0.5157 -0.0556  0.3547
 2776TIP3    H129819   2.452   5.642  14.174  1.5063  3.0848 -2.5990
 2776TIP3    H229820   2.419   5.788  14.199  0.8178  2.0610  3.1836
 2777TIP3   OH229821   0.319   6.195   2.556 -0.2136 -0.1479 -0.2190
 2777TIP3    H129822   0.387   6.156   2.611 -0.6434 -0.0286  0.4131
 2777TIP3    H229823   0.264   6.121   2.530 -1.3786  0.0839  1.4772
 2778TIP3   OH229824   5.549   3.597   4.804  0.1689 -0.8135 -0.0743
 2778TIP3    H129825   5.500   3.634   4.877  1.3471 -1.1017  0.8737
 2778TIP3    H229826   5.541   3.502   4.815 -0.7975 -0.8640 -1.1097
 2779TIP3   OH229827   5.538   1.542   4.478 -0.4502 -0.2164 -0.1478
 2779TIP3    H129828   5.572   1.574   4.562  2.0769  0.1324 -1.2899
 2779TIP3    H229829   5.480   1.611   4.448 -0.9741 -0.1133  1.0520
 2780TIP3   OH229830   5.567   2.157   0.457 -0.5008 -0.1805  0.3039
 2780TIP3    H129831   5.534   2.244   0.433 -0.6245 -0.3040  0.0213
 2780TIP3    H229832   5.630   2.174   0.527 -2.2035 -0.0920  1.8444
 2781TIP3   OH229833   0.796   4.279   1.574 -0.6406  0.5522 -0.0421
 2781TIP3    H129834   0.719   4.261   1.627  0.9393 -3.4455  1.0737
 2781TIP3    H229835   0.855   4.328   1.632 -0.8071  0.3314  0.3103
 2782TIP3   OH229836   1.334   4.932   1.945 -0.2210  0.5986 -0.4969
 2782TIP3    H129837   1.317   5.006   1.888  2.9124  1.3351 -0.5754
 2782TIP3    H229838   1.296   4.958   2.029  0.8917  2.3346 -0.5038
 2783TIP3   OH229839   4.913   3.437   1.727 -0.1650  0.2713 -0.2776
 2783TIP3    H129840   4.872   3.512   1.771  0.8560 -0.3569  1.8000
 2783TIP3    H229841   4.901   3.364   1.788  3.2958 -0.1178  0.0282
 2784TIP3   OH229842   0.251   2.798   2.719 -0.6662  0.0458 -0.5992
 2784TIP3    H129843   0.169   2.846   2.731 -1.1172 -0.4895 -1.4928
 2784TIP3    H229844   0.254   2.738   2.794 -1.2119 -0.1154 -0.7070
 2785TIP3   OH229845   1.313   3.953  11.627  0.1386 -0.1479 -0.1953
 2785TIP3    H129846   1.294   4.004  11.548  0.6706  1.6759  0.8359
 2785TIP3    H229847   1.246   3.981  11.690  0.5403 -0.6020  0.4365
 2786TIP3   OH229848   6.355   2.664  10.956 -0.0481  0.3676  0.6236
 2786TIP3    H129849   6.364   2.739  10.896 -0.4460 -1.0795 -1.3090
 2786TIP3    H229850   6.260   2.654  10.967 -0.0304 -0.4785  0.0398
 2787TIP3   OH229851   0.588   4.647   6.119  0.3273 -0.3904 -0.2535
 2787TIP3    H129852   0.630   4.580   6.172 -1.0294  0.2723  1.6942
 2787TIP3    H229853   0.497   4.650   6.150  0.0739  1.5704 -1.0616
 2788TIP3   OH229854   0.507   5.840   3.570 -0.5784  0.3776 -0.1833
 2788TIP3    H129855   0.598   5.870   3.572 -0.1481 -0.7378 -2.0758
 2788TIP3    H229856   0.456   5.917   3.547 -0.0871  0.9010  0.4364
 2789TIP3   OH229857   5.493   4.708  15.353 -0.2244 -0.4349  0.0613
 2789TIP3    H129858   5.436   4.775  15.393 -2.0535 -0.8678 -1.7262
 2789TIP3    H229859   5.579   4.725  15.391 -1.1938  1.2621  1.6453
 2790TIP3   OH229860   4.731   4.195   3.866  0.2752 -0.2176 -0.5742
 2790TIP3    H129861   4.673   4.265   3.897  1.1409  0.0348  0.4921
 2790TIP3    H229862   4.739   4.135   3.940  1.1146 -0.4217 -0.8200
 2791TIP3   OH229863   2.534   2.974  13.459  0.7944  0.1018 -0.5534
 2791TIP3    H129864   2.521   2.901  13.399 -1.6044 -0.3000  0.3867
 2791TIP3    H229865   2.524   3.052  13.404  2.6329 -0.2413 -1.4119
 2792TIP3   OH229866   6.520   6.041  11.292 -0.0463 -0.3101  0.0163
 2792TIP3    H129867   6.507   5.947  11.282  0.5962 -0.3208 -0.7978
 2792TIP3    H229868   6.480   6.079  11.213  1.9699 -0.1082 -0.9483
 2793TIP3   OH229869   5.528   5.225   0.096  0.3508  0.3602  0.0455
 2793TIP3    H129870   5.454   5.165   0.100  0.2674  0.5254  0.9361
 2793TIP3    H229871   5.602   5.170   0.068 -0.1633  0.2614 -1.1551
 2794TIP3   OH229872   1.180   3.604   2.305  0.1702  0.1989  0.3518
 2794TIP3    H129873   1.223   3.585   2.388 -0.8208 -1.6588  0.4740
 2794TIP3    H229874   1.087   3.597   2.324 -0.0883  0.6178 -0.7236
 2795TIP3   OH229875   6.769   4.702   2.718 -0.2873  0.2035 -0.3031
 2795TIP3    H129876   6.854   4.679   2.681  0.8648 -0.3360  2.4914
 2795TIP3    H229877   6.777   4.795   2.741  0.5816 -0.5014  2.4479
 2796TIP3   OH229878   2.555   3.474   5.375  0.6157  0.0184 -0.4147
 2796TIP3    H129879   2.515   3.494   5.290  0.6210  0.6852 -0.2634
 2796TIP3    H229880   2.646   3.452   5.354  0.6805  0.4166 -0.5616
 2797TIP3   OH229881   5.384   3.522  16.792  0.5192 -0.2069  0.1907
 2797TIP3    H129882   5.363   3.610  16.825 -0.3674 -0.4768  0.3758
 2797TIP3    H229883   5.305   3.471  16.809  0.6104 -0.7516 -0.9461
 2798TIP3   OH229884   4.337   1.175  12.082 -0.0380  0.2984 -0.1994
 2798TIP3    H129885   4.369   1.259  12.048  0.7933  0.3067  0.5746
 2798TIP3    H229886   4.383   1.164  12.166 -0.7836 -0.5212  0.1117
 2799TIP3   OH229887   1.123   5.151  17.177 -0.7032  0.3785  0.4134
 2799TIP3    H129888   1.112   5.065  17.219 -0.8107  0.4318  0.4940
 2799TIP3    H229889   1.095   5.137  17.087  0.3670  0.0342  0.1208
 2800TIP3   OH229890   1.385   2.643   0.816 -0.0691  0.2699 -0.7110
 2800TIP3    H129891   1.295   2.665   0.842 -0.4162 -2.4726  0.5915
 2800TIP3    H229892   1.381   2.637   0.720 -0.9714  1.3380 -0.7587
 2801TIP3   OH229893   6.816   3.937  13.110  0.9391 -0.1603  0.4112
 2801TIP3    H129894   6.797   3.915  13.201 -2.2000  3.8297  0.8531
 2801TIP3    H229895   6.880   4.008  13.114 -1.5547  2.2217 -0.2691
 2802TIP3   OH229896   1.840   1.342   6.184 -0.1002 -0.4884  0.3983
 2802TIP3    H129897   1.768   1.378   6.236  1.6728 -1.3632  3.5341
 2802TIP3    H229898   1.807   1.257   6.154 -1.4495  0.3947 -0.7252
 2803TIP3   OH229899   2.740   5.208  13.214 -0.6889  0.1009  0.5368
 2803TIP3    H129900   2.823   5.177  13.178 -1.4268 -3.2074  1.4914
 2803TIP3    H229901   2.728   5.295  13.176  2.9734  0.4672  0.0273
 2804TIP3   OH229902   2.600   1.339   0.534  0.0830 -0.6553 -0.8351
 2804TIP3    H129903   2.688   1.355   0.499 -0.3857 -0.3996 -1.9027
 2804TIP3    H229904   2.598   1.244   0.549  0.9663 -0.4904  0.3600
 2805TIP3   OH229905   3.381   3.876  15.308 -0.0917  0.5467 -0.1354
 2805TIP3    H129906   3.475   3.858  15.303 -0.2680 -0.3995 -0.1375
 2805TIP3    H229907   3.358   3.859  15.399 -0.6417 -1.1623 -0.5850
 2806TIP3   OH229908   3.778   0.809   1.567  0.5742 -0.1404  0.3569
 2806TIP3    H129909   3.812   0.813   1.656 -1.3323  1.0357  1.0541
 2806TIP3    H229910   3.711   0.740   1.569  0.9279 -0.5133 -0.3113
 2807TIP3   OH229911   4.819   4.076  12.701  0.0343  0.1267  0.4672
 2807TIP3    H129912   4.848   3.998  12.749 -2.5563 -0.7657  0.6365
 2807TIP3    H229913   4.759   4.043  12.634 -0.0252  1.8385 -0.3461
 2808TIP3   OH229914   0.593   4.990  16.659 -0.4380  0.4302 -0.1446
 2808TIP3    H129915   0.618   5.039  16.737 -0.4489 -1.1348  0.8682
 2808TIP3    H229916   0.500   4.970  16.671 -0.5156  0.4443 -0.6945
 2809TIP3   OH229917   6.339   1.198   3.567 -0.1136  0.2693  0.1776
 2809TIP3    H129918   6.391   1.273   3.538  1.2812 -0.6987  0.1895
 2809TIP3    H229919   6.379   1.171   3.650  0.1882 -1.3044 -0.4716
 2810TIP3   OH229920   1.658   5.914   4.293 -0.8345 -0.3303 -0.8549
 2810TIP3    H129921   1.665   5.920   4.198 -2.7679 -2.4065 -1.1567
 2810TIP3    H229922   1.569   5.944   4.312 -0.3765  0.3065  0.3431
 2811TIP3   OH229923   2.036   4.987   1.335  0.2006 -0.1639  0.5420
 2811TIP3    H129924   1.969   5.018   1.395  0.6334 -0.8095  1.3790
 2811TIP3    H229925   2.010   4.897   1.315 -1.0347  0.6863 -1.8389
 2812TIP3   OH229926   0.207   2.333   5.820 -0.4172 -0.0252 -0.1596
 2812TIP3    H129927   0.298   2.320   5.846 -0.8769  0.8323  1.9302
 2812TIP3    H229928   0.211   2.351   5.726  1.5832  0.2705 -0.0205
 2813TIP3   OH229929   3.757   6.194  16.778  0.2452 -0.0321 -0.2479
 2813TIP3    H129930   3.774   6.156  16.691 -0.6760 -0.6586 -0.1575
 2813TIP3    H229931   3.842   6.227  16.806  0.3863  0.9277 -1.7501
 2814TIP3   OH229932   5.136   3.121  13.985 -0.5472  0.3689  0.3253
 2814TIP3    H129933   5.132   3.153  13.895  0.6390  1.9697  0.8208
 2814TIP3    H229934   5.119   3.027  13.978 -1.9734  0.7253 -1.3906
 2815TIP3   OH229935   2.168   3.013  15.965  0.0957 -0.3150  0.2666
 2815TIP3    H129936   2.234   3.055  15.910 -2.1974  1.6551 -1.0371
 2815TIP3    H229937   2.167   3.065  16.045  0.8017 -0.9440  0.6920
 2816TIP3   OH229938   1.444   1.714  16.340 -0.6306 -0.5551 -0.1002
 2816TIP3    H129939   1.488   1.791  16.376  0.1109 -0.2642 -1.5827
 2816TIP3    H229940   1.362   1.748  16.304 -0.7905 -0.6379  0.1834
 2817TIP3   OH229941   1.492   2.977   5.947  0.3570  0.1388 -0.0177
 2817TIP3    H129942   1.397   2.967   5.942  0.5341 -1.9331  0.2236
 2817TIP3    H229943   1.506   3.072   5.950 -1.5870  0.5432 -2.1305
 2818TIP3   OH229944   0.537   6.617   4.974  0.4395 -0.2603 -0.0203
 2818TIP3    H129945   0.557   6.527   4.948 -1.2974 -0.0824 -2.0718
 2818TIP3    H229946   0.443   6.618   4.988  0.0006  1.8492 -2.6238
 2819TIP3   OH229947   5.623   6.624   4.958 -0.1503 -0.3847 -0.1866
 2819TIP3    H129948   5.617   6.678   5.036  1.6937 -0.7682  0.2566
 2819TIP3    H229949   5.637   6.686   4.887  1.4948 -0.2326  0.2545
 2820TIP3   OH229950   4.259   0.280   2.317 -0.4867 -0.1969 -0.0836
 2820TIP3    H129951   4.343   0.299   2.360 -0.6467 -0.3753  0.3139
 2820TIP3    H229952   4.283   0.242   2.233 -0.1621 -1.1979  0.4573
 2821TIP3   OH229953   4.216   5.747  15.113  0.5110 -0.2958 -0.3370
 2821TIP3    H129954   4.285   5.811  15.097 -0.3085  0.8384  0.6263
 2821TIP3    H229955   4.140   5.781  15.066  0.3137 -1.0413 -0.5711
 2822TIP3   OH229956   5.678   1.876  14.834 -0.0937 -0.3907  0.2264
 2822TIP3    H129957   5.603   1.817  14.842  0.9949 -1.6922  1.1539
 2822TIP3    H229958   5.700   1.875  14.740 -1.7129  0.6245 -0.1709
 2823TIP3   OH229959   3.897   2.687  13.348 -0.0836  0.1277  0.1555
 2823TIP3    H129960   3.926   2.598  13.326 -0.1969  0.2198 -0.3818
 2823TIP3    H229961   3.961   2.718  13.412  0.4472 -0.0270 -0.2910
 2824TIP3   OH229962   6.531   5.869  15.108 -0.0359 -0.3574 -0.1721
 2824TIP3    H129963   6.595   5.922  15.156  1.0910 -1.0555 -0.8818
 2824TIP3    H229964   6.473   5.836  15.176 -0.2216  1.0676  0.3776
 2825TIP3   OH229965   3.933   4.614   0.442 -0.2566  0.1435 -0.1069
 2825TIP3    H129966   4.013   4.592   0.395 -0.3173  1.9169 -1.0621
 2825TIP3    H229967   3.869   4.634   0.373 -0.9407  0.7511  0.6964
 2826TIP3   OH229968   3.066   6.652  14.095 -0.3208  0.2143  0.0098
 2826TIP3    H129969   3.075   6.666  14.001  0.4147  0.1985  0.0746
 2826TIP3    H229970   3.074   6.739  14.133  1.8421 -0.0416  0.2310
 2827TIP3   OH229971   4.602   4.167   1.704 -0.6278  0.7324  0.3949
 2827TIP3    H129972   4.621   4.073   1.705  1.1204  1.0496 -0.5433
 2827TIP3    H229973   4.618   4.194   1.614  1.1529  2.3543  1.1500
 2828TIP3   OH229974   6.620   5.200  14.154  0.9995  0.1058 -0.1661
 2828TIP3    H129975   6.689   5.248  14.200  0.2682  0.9271  0.1059
 2828TIP3    H229976   6.541   5.220  14.204  0.4951 -0.4875 -0.7177
 2829TIP3   OH229977   0.541   5.234  12.247  0.2572 -0.0796  0.4400
 2829TIP3    H129978   0.487   5.287  12.188 -0.3644 -1.0012  0.1858
 2829TIP3    H229979   0.506   5.253  12.334 -0.7494 -1.0079  0.2330
 2830TIP3   OH229980   4.199   1.687  11.020  0.8652 -0.6437  0.1897
 2830TIP3    H129981   4.175   1.703  10.928  0.5624 -1.5172  0.1208
 2830TIP3    H229982   4.245   1.603  11.019  0.5014 -0.8511  0.9048
 2831TIP3   OH229983   0.065   1.518  11.318  0.5394  0.7565 -0.0589
 2831TIP3    H129984   0.106   1.579  11.380  0.8793  1.3307 -0.8397
 2831TIP3    H229985  -0.026   1.512  11.347  0.6015  1.3143  0.2631
 2832TIP3   OH229986   6.727   0.678   1.620 -0.0406 -0.6438 -0.1286
 2832TIP3    H129987   6.730   0.639   1.533 -0.2074 -0.4754 -0.2089
 2832TIP3    H229988   6.819   0.687   1.646  0.0321 -0.0259 -0.5865
 2833TIP3   OH229989   4.924   1.976   4.272 -0.7865 -0.2584  0.0336
 2833TIP3    H129990   4.847   2.022   4.305 -0.7401 -0.4581  0.4270
 2833TIP3    H229991   4.981   2.045   4.239 -0.5444  0.0002  0.9882
 2834TIP3   OH229992   4.738   1.412  17.227 -0.7328  0.4642  0.0240
 2834TIP3    H129993   4.786   1.495  17.227  0.3572 -0.1642  0.3567
 2834TIP3    H229994   4.716   1.397  17.319  0.8834 -0.6476  0.2485
 2835TIP3   OH229995   6.637   5.189  13.791 -0.0579 -0.8400  0.5006
 2835TIP3    H129996   6.694   5.248  13.741 -0.5681 -2.0026 -1.5248
 2835TIP3    H229997   6.696   5.138  13.846  0.3509  1.8803  2.6679
 2836TIP3   OH229998   0.218   3.561  13.240  0.5057  0.5054  0.1497
 2836TIP3    H129999   0.266   3.544  13.159  2.2396  1.4135  0.9591
 2836TIP3    H230000   0.269   3.629  13.285 -0.4648  0.0828  1.9593
 2837TIP3   OH230001   5.681   4.317   2.383  0.0803 -0.4399 -0.7100
 2837TIP3    H130002   5.675   4.234   2.337 -0.1392  0.0629 -1.5970
 2837TIP3    H230003   5.737   4.299   2.458  1.7199 -0.8938 -2.0095
 2838TIP3   OH230004   6.033   6.370  13.205  0.7989  0.1233 -0.5589
 2838TIP3    H130005   6.021   6.451  13.255  1.9475  1.0487 -1.7249
 2838TIP3    H230006   6.092   6.395  13.134  0.9084 -1.6777 -1.1236
 2839TIP3   OH230007   0.867   0.778   3.775  0.3713  0.2433 -0.4558
 2839TIP3    H130008   0.834   0.861   3.741  0.3115 -0.1066 -1.2461
 2839TIP3    H230009   0.818   0.764   3.857 -0.5605  0.3348 -0.9916
 2840TIP3   OH230010   2.566   6.218  12.742 -0.2904  0.0739  0.5877
 2840TIP3    H130011   2.500   6.172  12.794 -2.2692  1.2814 -0.7922
 2840TIP3    H230012   2.535   6.211  12.652  2.4020 -0.8436 -0.3098
 2841TIP3   OH230013   4.960   3.233  11.331  0.7752 -0.1793  0.5106
 2841TIP3    H130014   4.921   3.150  11.358 -0.9401  0.3987 -0.1280
 2841TIP3    H230015   4.890   3.279  11.284  1.7554  1.5470  0.6791
 2842TIP3   OH230016   3.061   6.084   3.614 -0.1768 -0.4271 -0.6949
 2842TIP3    H130017   3.128   6.151   3.599  0.4900 -1.1452 -0.9054
 2842TIP3    H230018   3.107   6.011   3.655 -1.1876 -0.1962  0.9089
 2843TIP3   OH230019   4.697   2.258   5.388  0.3133  0.4204 -0.2757
 2843TIP3    H130020   4.681   2.264   5.482 -0.0589  0.4256 -0.3404
 2843TIP3    H230021   4.698   2.164   5.370 -0.0023  0.4275 -0.3336
 2844TIP3   OH230022   4.473   3.882   1.242  0.0391  0.5721  0.2807
 2844TIP3    H130023   4.533   3.917   1.309 -1.1439  0.7153  1.2817
 2844TIP3    H230024   4.442   3.960   1.195 -1.2815  0.7335  1.3987
 2845TIP3   OH230025   2.296   4.763  16.925  0.6494 -0.5011  0.4092
 2845TIP3    H130026   2.369   4.709  16.895  0.7039  0.8006 -1.9425
 2845TIP3    H230027   2.239   4.772  16.849 -0.1811  1.3716  1.2069
 2846TIP3   OH230028   2.109   6.205  14.727 -0.2625  0.4785 -0.1787
 2846TIP3    H130029   2.090   6.290  14.686  0.0283  0.9823  0.7235
 2846TIP3    H230030   2.134   6.148  14.654 -0.3253  1.2119 -0.7736
 2847TIP3   OH230031   5.799   3.112  13.788 -0.1716 -0.1489 -0.1375
 2847TIP3    H130032   5.828   3.157  13.709  0.6335  0.5658  0.5650
 2847TIP3    H230033   5.879   3.088  13.834 -0.6467  1.5012  1.6285
 2848TIP3   OH230034   3.121   1.263  12.992 -0.0175  0.7349  0.1269
 2848TIP3    H130035   3.156   1.220  13.070  0.2863 -0.6304 -0.7382
 2848TIP3    H230036   3.051   1.204  12.963  0.6631  0.6174 -1.3051
 2849TIP3   OH230037   4.313   2.448   4.950  0.9915  0.0297 -0.6930
 2849TIP3    H130038   4.320   2.534   4.993  0.8992  0.4242 -1.4486
 2849TIP3    H230039   4.403   2.427   4.925  1.2756 -0.9209  1.0466
 2850TIP3   OH230040   4.426   5.316  12.908 -0.0650  0.1651 -0.5102
 2850TIP3    H130041   4.430   5.293  12.815  0.0282 -1.6350 -0.0815
 2850TIP3    H230042   4.355   5.262  12.943  0.2065  0.4934  0.5649
 2851TIP3   OH230043   3.354   5.617   5.577  0.0391 -0.1620  0.0362
 2851TIP3    H130044   3.391   5.705   5.586  1.0020 -0.2103 -2.9353
 2851TIP3    H230045   3.260   5.633   5.566  0.1258  0.4575  0.1332
 2852TIP3   OH230046   4.170   3.052  14.796 -0.0074  0.4933 -0.4917
 2852TIP3    H130047   4.203   3.132  14.837 -0.9401 -0.1083  1.5381
 2852TIP3    H230048   4.247   3.007  14.764  0.7937  0.8170  0.9578
 2853TIP3   OH230049   0.699   2.116  12.170 -0.0381  0.4213  0.3257
 2853TIP3    H130050   0.781   2.140  12.127  0.1460 -0.9716 -0.1350
 2853TIP3    H230051   0.716   2.028  12.205 -2.4192 -1.3591 -2.7050
 2854TIP3   OH230052   6.482   0.392  13.968 -0.1691  0.0010 -0.2186
 2854TIP3    H130053   6.431   0.315  13.945  1.5306 -1.8900  2.1245
 2854TIP3    H230054   6.463   0.408  14.060  2.6492 -0.1357  0.4229
 2855TIP3   OH230055   5.940   3.598  11.295  0.2045 -0.1074 -0.0864
 2855TIP3    H130056   5.923   3.522  11.350  0.6077 -1.4215 -1.7563
 2855TIP3    H230057   5.882   3.587  11.219  1.4001  0.4310 -1.0929
 2856TIP3   OH230058   6.356   6.273  14.953 -0.1910 -0.2018  0.3586
 2856TIP3    H130059   6.346   6.367  14.966 -2.7057 -0.4687  0.5851
 2856TIP3    H230060   6.414   6.245  15.024  1.0730  1.2608 -0.0885
 2857TIP3   OH230061   4.613   2.793   0.994  0.5391 -0.0834  1.0414
 2857TIP3    H130062   4.670   2.858   1.036 -1.1332  2.9516 -1.1866
 2857TIP3    H230063   4.540   2.783   1.055  1.3754 -0.7883  1.9424
 2858TIP3   OH230064   1.515   4.114  12.848  0.2431  0.1714  0.0124
 2858TIP3    H130065   1.532   4.054  12.776 -3.0427 -0.5561 -0.2260
 2858TIP3    H230066   1.464   4.063  12.911  1.5327  1.3224  2.0630
 2859TIP3   OH230067   4.909   5.750  13.783 -0.1909  0.7438 -0.9523
 2859TIP3    H130068   4.969   5.779  13.851  0.5191  1.2452 -1.7733
 2859TIP3    H230069   4.912   5.654  13.787  0.0517  0.7709 -0.4688
 2860TIP3   OH230070   2.237   1.103  11.092  0.2905  0.2014  0.4153
 2860TIP3    H130071   2.254   1.050  11.014  0.3221  1.1027 -0.2015
 2860TIP3    H230072   2.307   1.079  11.153  0.7838  0.1281 -0.1681
 2861TIP3   OH230073   6.602   5.150  15.441  0.2479 -0.3621  0.1457
 2861TIP3    H130074   6.532   5.194  15.490  0.8243  0.7120  0.0164
 2861TIP3    H230075   6.579   5.057  15.444 -2.4631  0.1903 -1.9369
 2862TIP3   OH230076   4.684   4.172   5.539  0.1938 -0.1316 -0.1598
 2862TIP3    H130077   4.712   4.261   5.559 -0.0664  0.1997 -1.2120
 2862TIP3    H230078   4.670   4.131   5.624  0.1141  0.8967  0.3253
 2863TIP3   OH230079   6.096   1.252  14.965 -0.3361 -0.3122 -0.1642
 2863TIP3    H130080   6.085   1.301  15.046 -0.0368  0.0908 -0.3636
 2863TIP3    H230081   6.156   1.181  14.988 -0.3372 -0.2624 -0.0051
 2864TIP3   OH230082   1.290   1.100   3.506 -0.6432 -0.1775  0.2746
 2864TIP3    H130083   1.261   1.118   3.417  0.3330 -0.1896 -0.0579
 2864TIP3    H230084   1.211   1.106   3.560 -1.2824 -0.4361 -0.6288
 2865TIP3   OH230085   2.516   5.973  14.510  0.4253  0.0966 -0.0532
 2865TIP3    H130086   2.575   5.928  14.448 -1.1352 -0.4840 -1.1566
 2865TIP3    H230087   2.505   6.060  14.472 -0.5527 -0.2681 -0.6322
 2866TIP3   OH230088   5.175   4.407  14.950  0.5291  0.4120 -0.3388
 2866TIP3    H130089   5.170   4.502  14.941 -0.6036  0.4954  0.9100
 2866TIP3    H230090   5.216   4.393  15.035 -0.4885 -0.1959  0.0634
 2867TIP3   OH230091   1.570   0.366   4.360 -0.6267 -0.4156 -0.1537
 2867TIP3    H130092   1.498   0.377   4.299 -1.0314 -0.4726  0.3116
 2867TIP3    H230093   1.549   0.424   4.433 -0.7776 -1.2993  0.5095
 2868TIP3   OH230094   6.110   1.242  10.653  0.3292  0.4662  0.1901
 2868TIP3    H130095   6.068   1.293  10.721 -0.0369  2.0394 -1.1893
 2868TIP3    H230096   6.072   1.275  10.571 -0.0804 -2.1363 -0.7261
 2869TIP3   OH230097   3.967   3.034   3.365  0.3853  0.0733 -0.1257
 2869TIP3    H130098   4.039   3.096   3.349  0.3348 -0.0356 -0.8026
 2869TIP3    H230099   3.895   3.066   3.310  0.0266 -0.0201  0.2796
 2870TIP3   OH230100   3.699   4.841   0.961 -0.0882  0.4071  0.2226
 2870TIP3    H130101   3.753   4.919   0.949 -1.2348  1.2650  0.4420
 2870TIP3    H230102   3.614   4.866   0.925 -0.8276 -0.3042  1.4233
 2871TIP3   OH230103   3.080   0.317  13.644  0.0224 -0.1960  0.0033
 2871TIP3    H130104   3.100   0.382  13.711  0.1275 -0.5017  0.2693
 2871TIP3    H230105   3.002   0.272  13.677 -1.2944  1.1486 -1.1346
 2872TIP3   OH230106   3.540   0.230  12.350  0.1775  0.3976 -0.5609
 2872TIP3    H130107   3.507   0.207  12.263  0.8173  0.0274 -0.7138
 2872TIP3    H230108   3.618   0.282  12.333  1.7984 -1.8482 -0.2470
 2873TIP3   OH230109   2.243   3.222   5.074 -0.0232 -0.0414  0.2634
 2873TIP3    H130110   2.248   3.127   5.070  2.2212  0.0781 -0.6335
 2873TIP3    H230111   2.168   3.244   5.019  0.8685 -1.1931 -1.4754
 2874TIP3   OH230112   2.918   3.060  11.197  0.1768  0.0285 -0.1049
 2874TIP3    H130113   2.896   3.149  11.224 -0.6080 -0.2893  0.3292
 2874TIP3    H230114   2.897   3.057  11.104 -0.8109 -0.0082  0.1105
 2875TIP3   OH230115   0.912   5.311  14.886  0.0411 -0.5476 -0.3480
 2875TIP3    H130116   0.915   5.404  14.909 -2.2170 -0.3865 -0.5961
 2875TIP3    H230117   0.900   5.267  14.970 -1.3920 -0.4291 -0.4816
 2876TIP3   OH230118   0.117   0.577   4.541  0.3856  0.0093 -0.2519
 2876TIP3    H130119   0.102   0.547   4.451  1.2282  0.5914 -0.5922
 2876TIP3    H230120   0.159   0.503   4.584  0.2411 -0.1724 -0.4233
 2877TIP3   OH230121   3.039   4.731   3.155 -0.0848 -0.0565  0.0532
 2877TIP3    H130122   3.040   4.686   3.071  2.4586 -0.5778  0.3146
 2877TIP3    H230123   2.962   4.787   3.152 -1.1319 -1.5549 -1.8216
 2878TIP3   OH230124   5.658   6.690   2.314  0.3071 -0.0131 -0.2498
 2878TIP3    H130125   5.735   6.645   2.349  0.5780  0.1946 -0.5756
 2878TIP3    H230126   5.610   6.719   2.392 -0.7433 -2.3161 -0.0099
 2879TIP3   OH230127   2.950   2.896   5.876  0.3876 -0.3053  0.4173
 2879TIP3    H130128   2.880   2.844   5.837  1.1449 -0.3262 -0.9712
 2879TIP3    H230129   3.000   2.833   5.929 -0.2038 -0.4417  0.8164
 2880TIP3   OH230130   2.012   1.206  11.202 -0.3741  0.1238  0.0797
 2880TIP3    H130131   2.081   1.146  11.173  1.0008  1.2726  0.8784
 2880TIP3    H230132   2.059   1.287  11.225 -2.0461  1.0857  0.2028
 2881TIP3   OH230133   0.527   6.433   4.115 -0.4788 -0.1706  0.3474
 2881TIP3    H130134   0.503   6.514   4.070  1.3749 -0.6918 -1.6091
 2881TIP3    H230135   0.473   6.434   4.195 -1.6540  2.1840 -0.4240
 2882TIP3   OH230136   3.864   1.442  15.365  0.2008 -0.5381  0.6831
 2882TIP3    H130137   3.889   1.428  15.456 -0.7914 -3.3458  0.5724
 2882TIP3    H230138   3.874   1.356  15.324 -1.5778  0.1727 -1.3266
 2883TIP3   OH230139   4.552   5.543   2.876 -0.1924  0.0462  0.0410
 2883TIP3    H130140   4.541   5.448   2.875 -0.5875  0.0959 -0.5900
 2883TIP3    H230141   4.646   5.556   2.862  0.8107 -0.3731  5.3676
 2884TIP3   OH230142   0.752   3.301   4.065  0.4897 -0.0995  0.4326
 2884TIP3    H130143   0.662   3.270   4.075  0.2518  0.5175  0.2244
 2884TIP3    H230144   0.747   3.363   3.992  1.0369  0.1264  0.5937
 2885TIP3   OH230145   4.063   6.131  17.095 -0.0621  0.2386 -0.0293
 2885TIP3    H130146   4.110   6.161  17.173  1.1908 -0.5989 -0.4508
 2885TIP3    H230147   3.973   6.118  17.125  0.0213  1.5739  0.8602
 2886TIP3   OH230148   6.380   1.323  13.655 -0.0464  0.0030  0.5874
 2886TIP3    H130149   6.462   1.369  13.639  0.1959 -0.3224  0.8973
 2886TIP3    H230150   6.315   1.392  13.665  0.3476  0.2787  1.2280
 2887TIP3   OH230151   2.672   4.040  14.482 -0.2635  0.0830  0.1201
 2887TIP3    H130152   2.611   3.967  14.498 -0.8527  0.6352  0.3960
 2887TIP3    H230153   2.619   4.106  14.438  0.1080  0.6273  0.4973
 2888TIP3   OH230154   3.845   0.837   3.325 -0.2829  0.2725 -0.3447
 2888TIP3    H130155   3.783   0.861   3.256 -0.4719  0.1571 -0.2142
 2888TIP3    H230156   3.849   0.742   3.323 -2.0171  0.1423  1.3120
 2889TIP3   OH230157   1.157   1.934   2.592  0.1168  0.6485 -0.0664
 2889TIP3    H130158   1.176   1.910   2.501  0.5498 -1.1860  0.4809
 2889TIP3    H230159   1.231   1.899   2.642 -0.9946  0.0499  1.1963
 2890TIP3   OH230160   5.618   0.793   6.732 -0.2866  0.1083  0.0361
 2890TIP3    H130161   5.598   0.796   6.638  0.7129  0.7370 -0.1693
 2890TIP3    H230162   5.583   0.875   6.767  0.7857  0.6442 -0.1036
 2891TIP3   OH230163   1.945   0.372  11.602 -0.5450 -0.5634  0.0011
 2891TIP3    H130164   1.937   0.330  11.688 -2.3083  0.0797  0.1667
 2891TIP3    H230165   1.895   0.453  11.610 -1.2319 -0.7871 -1.8250
 2892TIP3   OH230166   4.071   5.218   0.296  0.0292 -0.1587 -0.3473
 2892TIP3    H130167   4.062   5.127   0.321 -0.9519  0.1741  0.5514
 2892TIP3    H230168   4.149   5.221   0.242 -0.7426 -1.7852 -1.5846
 2893TIP3   OH230169   3.740   4.586  12.157  0.3136  0.5942  0.4513
 2893TIP3    H130170   3.713   4.604  12.066  0.4747 -1.6671 -0.0547
 2893TIP3    H230171   3.697   4.504  12.179  1.5331  0.3332  1.9197
 2894TIP3   OH230172   5.561   3.246   3.143 -0.1731 -0.1330 -0.4977
 2894TIP3    H130173   5.565   3.242   3.239 -0.4953 -1.2595 -0.5223
 2894TIP3    H230174   5.515   3.166   3.118 -0.4957  0.3820 -1.5716
 2895TIP3   OH230175   1.411   6.399  14.036 -0.1079 -0.1480 -0.2886
 2895TIP3    H130176   1.385   6.449  14.114 -1.0716 -1.4628  0.2566
 2895TIP3    H230177   1.354   6.432  13.967 -0.0923  0.1689 -0.1517
 2896TIP3   OH230178   3.897   4.282   4.803 -0.3429 -0.1390 -0.3330
 2896TIP3    H130179   3.804   4.264   4.788 -0.1932 -0.9975 -0.2770
 2896TIP3    H230180   3.932   4.199   4.834 -0.0042  0.7901  1.8023
 2897TIP3   OH230181   4.454   2.640   5.704  0.2442 -0.1726 -0.8555
 2897TIP3    H130182   4.406   2.558   5.696  0.6643 -0.6682  1.5136
 2897TIP3    H230183   4.427   2.677   5.788  1.1588  1.4031 -1.2163
 2898TIP3   OH230184   4.791   3.721  14.857  0.3058 -0.3607 -0.2269
 2898TIP3    H130185   4.748   3.752  14.936  0.9271  1.3562 -0.5564
 2898TIP3    H230186   4.724   3.725  14.790 -0.0898 -1.3729  0.0998
 2899TIP3   OH230187   3.611   5.986  13.843 -0.0052  0.5885 -0.2643
 2899TIP3    H130188   3.555   5.918  13.879  1.4246 -1.1731 -1.3019
 2899TIP3    H230189   3.622   6.049  13.915 -0.4219 -0.8353  1.0613
 2900TIP3   OH230190   3.836   4.371  11.347  0.5276  0.0945 -0.0456
 2900TIP3    H130191   3.826   4.315  11.270  0.4971  0.3837 -0.2526
 2900TIP3    H230192   3.798   4.321  11.418 -1.2960  0.6496 -0.5919
 2901TIP3   OH230193   6.805   6.725   2.691 -0.7477  0.1190  0.3693
 2901TIP3    H130194   6.819   6.745   2.598  2.0793  1.5582  1.0706
 2901TIP3    H230195   6.756   6.800   2.724 -1.3297 -0.1663  0.1626
 2902TIP3   OH230196   0.328   1.394  14.430  0.2518  0.1239  0.5513
 2902TIP3    H130197   0.417   1.412  14.398 -0.4872 -0.5171 -1.9427
 2902TIP3    H230198   0.288   1.480  14.441  0.2864  0.3263 -0.9327
 2903TIP3   OH230199   6.124   2.032   4.664  0.5551  0.5801 -0.1874
 2903TIP3    H130200   6.154   2.119   4.638  2.2770  0.2248  0.5011
 2903TIP3    H230201   6.036   2.024   4.626 -0.7368  3.6491  1.9328
 2904TIP3   OH230202   3.186   5.960   1.181 -0.2980  0.8847 -0.1492
 2904TIP3    H130203   3.108   5.983   1.129 -0.0591  1.9739 -0.0300
 2904TIP3    H230204   3.253   6.023   1.153 -0.2128  1.5774  1.5855
 2905TIP3   OH230205   0.983   0.919  16.198  0.4665 -0.5509 -0.1013
 2905TIP3    H130206   0.907   0.909  16.255  1.8282 -0.8502  1.7109
 2905TIP3    H230207   0.987   0.837  16.148 -0.8832 -0.1828 -0.8407
 2906TIP3   OH230208   1.012   2.982   5.072  0.3417 -0.2401  0.2765
 2906TIP3    H130209   1.011   3.008   4.980  1.7827  0.7748  0.5336
 2906TIP3    H230210   1.007   2.886   5.070 -2.9472 -0.1069 -0.7311
 2907TIP3   OH230211   4.617   3.650  10.395  0.0463 -0.3118 -0.3193
 2907TIP3    H130212   4.530   3.658  10.432 -0.7646 -1.9991 -1.7474
 2907TIP3    H230213   4.604   3.653  10.300  1.4841 -0.8976 -0.5649
 2908TIP3   OH230214   3.952   0.659   3.069  0.1459 -0.0580 -0.1060
 2908TIP3    H130215   3.956   0.714   3.147 -1.8719 -1.0605  0.7302
 2908TIP3    H230216   3.918   0.575   3.100 -1.2618 -0.2909 -2.1653
 2909TIP3   OH230217   5.556   2.078  17.087 -0.0918 -0.0344 -0.4828
 2909TIP3    H130218   5.597   2.063  17.172  0.1809  1.0181 -0.4172
 2909TIP3    H230219   5.556   2.173  17.077  1.3305 -0.1981 -2.3824
 2910TIP3   OH230220   2.949   3.693   0.375 -0.5950 -0.1113 -0.2901
 2910TIP3    H130221   3.039   3.660   0.375 -1.5405 -2.8215 -0.6176
 2910TIP3    H230222   2.942   3.745   0.295  0.9688  1.0271  0.2880
 2911TIP3   OH230223   6.638   1.381   4.491  0.1554 -0.5609  0.1413
 2911TIP3    H130224   6.613   1.473   4.499 -0.1703 -0.8286  2.4513
 2911TIP3    H230225   6.562   1.332   4.523  0.6858 -1.6192 -0.1786
 2912TIP3   OH230226   2.681   6.304   5.713 -0.2230 -0.2659  0.3680
 2912TIP3    H130227   2.612   6.239   5.695  0.7834 -1.1019 -0.5612
 2912TIP3    H230228   2.763   6.256   5.697  0.5311  1.2136 -0.2312
 2913TIP3   OH230229   0.959   4.325   6.470  0.0584 -0.3363 -0.3460
 2913TIP3    H130230   1.035   4.292   6.518 -0.4941  0.5325  1.1443
 2913TIP3    H230231   0.890   4.331   6.536 -1.4395 -1.5032 -1.7607
 2914TIP3   OH230232   6.483   3.615   0.192 -0.5785  0.3263  0.1625
 2914TIP3    H130233   6.404   3.601   0.245 -0.3280  1.0997  0.7388
 2914TIP3    H230234   6.518   3.699   0.222  1.1525 -0.5912  0.7936
 2915TIP3   OH230235   2.413   4.569  15.939 -0.2796  0.0692  0.2545
 2915TIP3    H130236   2.358   4.580  16.016  2.3171  2.5974  1.8350
 2915TIP3    H230237   2.411   4.654  15.895 -1.2889 -1.1807 -2.2240
 2916TIP3   OH230238   6.691   0.620   4.675  0.1071  0.5745  0.1356
 2916TIP3    H130239   6.779   0.613   4.639 -0.2478 -0.4138 -0.5440
 2916TIP3    H230240   6.699   0.686   4.744  1.2428  0.9308 -0.3286
 2917TIP3   OH230241   4.974   1.590   2.727 -0.1993  0.0293 -0.0612
 2917TIP3    H130242   4.904   1.568   2.665  0.1487  1.9555 -1.1778
 2917TIP3    H230243   5.022   1.508   2.740 -1.0535 -0.6826 -1.3560
 2918TIP3   OH230244   6.327   1.871   4.512 -0.3674 -0.1968  0.3097
 2918TIP3    H130245   6.247   1.821   4.494 -0.4864  0.0644  0.1090
 2918TIP3    H230246   6.311   1.914   4.595 -1.2536  1.5140 -0.7212
 2919TIP3   OH230247   1.417   2.184  13.391 -0.4466  0.5907  0.2085
 2919TIP3    H130248   1.359   2.129  13.339  0.3939 -1.1488  1.0791
 2919TIP3    H230249   1.506   2.154  13.369  0.1417  2.8525 -0.7019
 2920TIP3   OH230250   5.840   5.538   4.546 -0.5811  0.6058  0.0818
 2920TIP3    H130251   5.856   5.458   4.596 -0.3938  1.4279  1.3641
 2920TIP3    H230252   5.746   5.538   4.530 -0.9062  1.2067  1.9524
 2921TIP3   OH230253   1.836   6.275   0.587  0.3636  0.6377  0.3505
 2921TIP3    H130254   1.812   6.262   0.496  1.5740  0.2677  0.0773
 2921TIP3    H230255   1.917   6.326   0.584  0.7144  0.1398  1.2025
 2922TIP3   OH230256   4.530   5.900   5.257 -0.0841  0.7085  0.5139
 2922TIP3    H130257   4.447   5.944   5.239  0.2570  0.4019 -2.0335
 2922TIP3    H230258   4.545   5.845   5.180  2.1853  0.3188  1.1910
 2923TIP3   OH230259   5.186   1.836  12.535 -0.0920  0.4619 -0.3975
 2923TIP3    H130260   5.241   1.883  12.597 -0.5956  0.3769  0.1210
 2923TIP3    H230261   5.165   1.754  12.578  1.4794 -0.6349 -1.6532
 2924TIP3   OH230262   6.048   3.292   0.809  0.1151  0.5389 -0.0145
 2924TIP3    H130263   6.045   3.219   0.872  1.4177 -0.8030 -1.4807
 2924TIP3    H230264   6.126   3.342   0.834 -0.2662  0.9375  0.4108
 2925TIP3   OH230265   2.457   2.084  16.874  0.6559 -0.0384 -0.0845
 2925TIP3    H130266   2.368   2.118  16.878 -0.5465 -3.1138  0.1670
 2925TIP3    H230267   2.513   2.160  16.891 -1.8901  1.9348 -0.3284
 2926TIP3   OH230268   0.694   2.144  15.155  0.0381  0.0591 -0.0329
 2926TIP3    H130269   0.740   2.175  15.077  0.3431  0.5823  0.3475
 2926TIP3    H230270   0.761   2.098  15.206  0.2570  1.2037  0.7331
 2927TIP3   OH230271   5.372   2.978   5.533  0.4231  0.4220  0.6176
 2927TIP3    H130272   5.326   3.048   5.487  0.0783  0.2260  0.6659
 2927TIP3    H230273   5.459   2.977   5.492 -0.1280 -0.2557 -0.5574
 2928TIP3   OH230274   5.924   2.852   3.039  0.5104 -0.0486 -0.3401
 2928TIP3    H130275   5.843   2.817   3.003 -0.2608  1.1057  0.2430
 2928TIP3    H230276   5.948   2.790   3.108  1.1619 -1.4183 -1.7817
 2929TIP3   OH230277   0.836   3.773   1.419  0.0621  0.4408  0.1479
 2929TIP3    H130278   0.884   3.776   1.501 -0.5100 -0.2500  0.5134
 2929TIP3    H230279   0.894   3.727   1.358 -0.5175 -1.3013  0.8653
 2930TIP3   OH230280   1.526   5.341   4.609  0.0582 -0.7133 -0.1200
 2930TIP3    H130281   1.470   5.306   4.678  0.8466 -0.6486  0.5484
 2930TIP3    H230282   1.615   5.323   4.638  0.4680  1.5337  0.0495
 2931TIP3   OH230283   3.065   1.406  10.899 -0.0199  0.6847  0.0133
 2931TIP3    H130284   3.092   1.394  10.990 -2.1648 -0.0231  0.5913
 2931TIP3    H230285   3.097   1.492  10.875 -0.5372  1.4161  1.8654
 2932TIP3   OH230286   2.007   0.474  13.508  0.1425 -0.3386 -0.2113
 2932TIP3    H130287   2.070   0.521  13.454 -0.4800  0.7474  0.0011
 2932TIP3    H230288   2.022   0.508  13.597 -0.7991 -0.0163 -0.1757
 2933TIP3   OH230289   2.659   5.537  17.238  0.4098  0.5988  0.3248
 2933TIP3    H130290   2.618   5.452  17.219  2.1735 -0.3880  0.7872
 2933TIP3    H230291   2.590   5.601  17.221 -0.9220 -0.9155 -0.1566
 2934TIP3   OH230292   1.113   0.022  13.853 -0.6018 -0.0495 -0.2915
 2934TIP3    H130293   1.101  -0.022  13.938 -1.6057 -1.5829 -1.1869
 2934TIP3    H230294   1.207   0.024  13.840 -0.4971 -0.9684  0.2746
 2935TIP3   OH230295   5.871   2.144   3.786  0.2574  0.2223  0.3610
 2935TIP3    H130296   5.829   2.058   3.792  0.1195  0.3068  0.6190
 2935TIP3    H230297   5.850   2.175   3.698 -1.5619  0.9445  1.0262
 2936TIP3   OH230298   1.361   4.647  14.603  0.0110 -0.0765  0.0932
 2936TIP3    H130299   1.373   4.733  14.562 -2.1847  1.5879  2.7289
 2936TIP3    H230300   1.269   4.627  14.592  0.3791 -1.8438  0.0407
 2937TIP3   OH230301   0.886   0.960   6.417 -0.4316  0.1528  0.1538
 2937TIP3    H130302   0.797   0.988   6.396  0.0845  1.6467 -0.0815
 2937TIP3    H230303   0.875   0.886   6.476 -1.8207  0.6027  0.4642
 2938TIP3   OH230304   5.034   2.028   1.378 -0.4153 -0.3652  0.3084
 2938TIP3    H130305   5.099   2.015   1.447  1.1053  2.6948 -0.4408
 2938TIP3    H230306   5.084   2.019   1.297 -1.6621 -1.4159 -0.3586
 2939TIP3   OH230307   5.548   2.098   0.961  0.0908  0.1163  0.0313
 2939TIP3    H130308   5.559   2.038   1.035 -0.1067 -0.9792 -0.8255
 2939TIP3    H230309   5.510   2.177   1.000 -1.8865 -1.1801  0.7823
 2940TIP3   OH230310   3.076   1.275   4.474 -0.2319 -0.0780  0.2531
 2940TIP3    H130311   3.079   1.179   4.478 -3.2926 -0.1900  0.8318
 2940TIP3    H230312   3.161   1.300   4.437  0.9238 -2.9536  0.8157
 2941TIP3   OH230313   2.838   5.171  15.961  0.5230  0.6752  0.6751
 2941TIP3    H130314   2.835   5.248  15.905 -1.4101  0.1630  0.0565
 2941TIP3    H230315   2.754   5.170  16.006 -0.1193 -1.9224 -0.5035
 2942TIP3   OH230316   3.522   3.548  15.305  0.1409 -0.4273 -0.4640
 2942TIP3    H130317   3.548   3.639  15.317 -0.6680 -0.4093  1.4130
 2942TIP3    H230318   3.586   3.512  15.244 -0.4652  1.7910 -2.4834
 2943TIP3   OH230319   3.678   5.523  14.113  0.0703  0.3169  0.3323
 2943TIP3    H130320   3.748   5.588  14.111  1.7810 -1.4730  0.7328
 2943TIP3    H230321   3.648   5.518  14.022 -0.7203  2.3092  0.4580
 2944TIP3   OH230322   3.732   4.565  16.206 -0.3622 -0.5584  0.0545
 2944TIP3    H130323   3.747   4.579  16.300 -0.0033 -0.3587 -0.0311
 2944TIP3    H230324   3.674   4.637  16.180  2.0036  1.1932 -0.5310
 2945TIP3   OH230325   1.878   6.667   4.340  0.1028 -0.2897  0.4843
 2945TIP3    H130326   1.908   6.729   4.274  1.8514 -1.0578  0.5330
 2945TIP3    H230327   1.915   6.699   4.422  1.8433 -1.8834  0.3691
 2946TIP3   OH230328   4.750   5.320   2.466  0.0204  0.0484  0.2320
 2946TIP3    H130329   4.844   5.330   2.475 -0.0465 -1.8464  3.7237
 2946TIP3    H230330   4.739   5.255   2.396  1.2183  1.2734 -1.1238
 2947TIP3   OH230331   2.995   0.682  14.942 -0.0594  0.4001  0.5912
 2947TIP3    H130332   3.023   0.642  15.024 -1.2148  2.5548  2.0810
 2947TIP3    H230333   3.009   0.776  14.955  0.7441  0.6885 -2.0884
 2948TIP3   OH230334   5.054   1.321  17.282  0.2828  0.3480 -0.0686
 2948TIP3    H130335   5.010   1.366  17.355  0.6734 -0.0283  0.4041
 2948TIP3    H230336   5.087   1.240  17.321  0.1831 -0.0213 -0.7581
 2949TIP3   OH230337   1.146   4.054  16.202 -0.3544  0.2476  0.3524
 2949TIP3    H130338   1.096   4.059  16.120  0.3951  0.7248 -0.0818
 2949TIP3    H230339   1.202   3.977  16.190  0.7272  1.1076 -0.1398
 2950TIP3   OH230340   1.240   4.090  12.119  0.4249 -0.0313 -0.8348
 2950TIP3    H130341   1.252   4.147  12.195 -0.8785 -2.4022  1.2399
 2950TIP3    H230342   1.201   4.147  12.053  1.9024  2.1803  0.1305
 2951TIP3   OH230343   0.845   4.243   2.525  0.2689  0.3199 -0.5809
 2951TIP3    H130344   0.833   4.284   2.611 -1.2700 -1.1116 -0.0983
 2951TIP3    H230345   0.814   4.309   2.463 -0.5180  0.5815  0.0811
 2952TIP3   OH230346   1.521   2.407  11.904  0.3840 -0.0335 -0.1267
 2952TIP3    H130347   1.464   2.453  11.842  0.1161 -0.3843 -0.1356
 2952TIP3    H230348   1.476   2.412  11.988  0.8697  0.6701  0.1025
 2953TIP3   OH230349   0.468   1.355  11.871  0.2427 -0.6987  0.0191
 2953TIP3    H130350   0.487   1.422  11.805  2.5528 -0.1941  1.1741
 2953TIP3    H230351   0.508   1.275  11.835 -2.3401 -1.4571 -1.2661
 2954TIP3   OH230352   0.977   1.176  15.724  0.2143  0.3128 -0.4590
 2954TIP3    H130353   1.017   1.108  15.670  0.1145 -0.3819  0.3350
 2954TIP3    H230354   1.005   1.155  15.813 -1.6707 -0.0374  0.0804
 2955TIP3   OH230355   6.460   0.010  12.919  0.4460  0.5800  0.0130
 2955TIP3    H130356   6.518   0.042  12.850  1.0987 -1.6271 -0.5001
 2955TIP3    H230357   6.478   0.067  12.994  2.7175  0.4112 -0.3680
 2956TIP3   OH230358   0.487   5.807  17.090  0.0810 -0.5645  0.3081
 2956TIP3    H130359   0.409   5.767  17.051  1.1040  0.7757 -3.2379
 2956TIP3    H230360   0.464   5.899  17.101  0.4836 -0.5620  1.2014
 2957TIP3   OH230361   3.158   2.730  14.159 -0.3716 -0.3395  0.2629
 2957TIP3    H130362   3.123   2.789  14.226  0.6652  0.3171  0.2304
 2957TIP3    H230363   3.124   2.764  14.076  1.1577  0.9093  0.1328
 2958TIP3   OH230364   3.655   3.603  11.388  0.2999  0.0497 -0.4977
 2958TIP3    H130365   3.694   3.645  11.311  0.7287 -0.7106 -0.7022
 2958TIP3    H230366   3.625   3.675  11.443 -0.0475  0.5958 -1.4016
 2959TIP3   OH230367   4.364   3.303  14.511 -0.0897 -0.0111  0.2811
 2959TIP3    H130368   4.399   3.219  14.542 -0.7801  0.7071  3.1161
 2959TIP3    H230369   4.281   3.280  14.469 -0.2250 -0.7666  0.9412
 2960TIP3   OH230370   6.714   4.065  16.342 -0.1454 -0.0817 -0.0141
 2960TIP3    H130371   6.701   4.004  16.269  1.2930 -0.0990 -0.2658
 2960TIP3    H230372   6.799   4.106  16.324 -0.1460  0.4892  1.2422
 2961TIP3   OH230373   4.942   2.800   0.310 -0.8172 -0.1881 -0.0429
 2961TIP3    H130374   4.965   2.761   0.225 -2.5893  1.3369 -1.2612
 2961TIP3    H230375   4.985   2.885   0.310  2.1905 -1.6040  2.1854
 2962TIP3   OH230376   4.604   0.436  13.791  0.4565 -0.3457 -0.6454
 2962TIP3    H130377   4.593   0.465  13.701 -2.6615 -1.5767 -0.7171
 2962TIP3    H230378   4.603   0.517  13.842  2.9734  0.4134 -1.7355
 2963TIP3   OH230379   3.802   6.164  15.813 -0.1886  0.2804 -0.5752
 2963TIP3    H130380   3.809   6.081  15.765 -2.3140  0.0343 -0.4772
 2963TIP3    H230381   3.844   6.146  15.897  0.8678 -0.1885 -1.1885
 2964TIP3   OH230382   5.118   4.354   2.907 -0.1365 -0.3850  0.0237
 2964TIP3    H130383   5.173   4.292   2.954 -0.1312  0.3769  1.0467
 2964TIP3    H230384   5.058   4.300   2.855  1.5420 -1.2208 -1.0720
 2965TIP3   OH230385   2.444   5.319   4.061 -0.3681  0.6108  0.0950
 2965TIP3    H130386   2.400   5.353   4.140 -0.5315 -0.3023  0.4082
 2965TIP3    H230387   2.537   5.324   4.082 -0.4655 -2.0239  1.3976
 2966TIP3   OH230388   3.596   1.581   6.369 -0.5591 -0.1144 -0.1133
 2966TIP3    H130389   3.631   1.593   6.280 -0.5526 -1.1063 -0.2541
 2966TIP3    H230390   3.674   1.571   6.423 -0.5006  2.1595  0.2869
 2967TIP3   OH230391   5.501   5.806  16.526 -0.0631 -0.0924  0.3497
 2967TIP3    H130392   5.440   5.879  16.514 -0.1548  0.3467  3.0609
 2967TIP3    H230393   5.445   5.728  16.527 -0.0351 -0.1820 -1.8626
 2968TIP3   OH230394   2.750   2.616  11.891  0.2756 -0.5748  0.3722
 2968TIP3    H130395   2.668   2.663  11.876 -1.2518 -2.9088  1.0022
 2968TIP3    H230396   2.787   2.605  11.803 -0.1219  0.4245  0.0717
 2969TIP3   OH230397   6.031   4.992  10.632  0.3701 -0.7029 -0.6443
 2969TIP3    H130398   6.000   5.083  10.631 -0.5177 -0.9661  1.1269
 2969TIP3    H230399   5.965   4.944  10.582  0.8552 -0.3894 -1.6068
 2970TIP3   OH230400   2.277   4.810  11.653  0.9318  0.1160 -0.4297
 2970TIP3    H130401   2.315   4.829  11.739 -0.2299  0.2943  0.0468
 2970TIP3    H230402   2.256   4.717  11.656 -1.0405  0.5614  0.2553
 2971TIP3   OH230403   2.937   5.032  14.056 -0.1450 -0.0071  0.5043
 2971TIP3    H130404   2.890   4.952  14.079 -1.3208  0.2958 -0.7692
 2971TIP3    H230405   2.953   5.024  13.962 -0.2390  1.2258  0.3774
 2972TIP3   OH230406   4.759   6.765  12.989 -0.2549 -0.0015 -0.1309
 2972TIP3    H130407   4.855   6.769  12.990 -0.3007  0.8088  1.8934
 2972TIP3    H230408   4.739   6.706  12.916  1.7681  0.0543 -0.7663
 2973TIP3   OH230409   3.882   1.648  17.107  0.1471  0.7778 -0.4554
 2973TIP3    H130410   3.840   1.729  17.134  0.8654  0.6785  0.9990
 2973TIP3    H230411   3.965   1.647  17.154  0.5377 -0.3779 -1.1393
 2974TIP3   OH230412   1.774   5.057   4.708  0.6397 -0.0349  0.4769
 2974TIP3    H130413   1.834   5.058   4.782  1.2024  0.8778  0.0164
 2974TIP3    H230414   1.800   4.980   4.658  0.1174 -0.7795  1.3344
 2975TIP3   OH230415   0.944   1.246   0.581  0.3968 -0.0317 -0.0883
 2975TIP3    H130416   0.913   1.336   0.570  2.4900  0.8977  1.2663
 2975TIP3    H230417   1.023   1.241   0.527  0.7903 -0.7889  0.5517
 2976TIP3   OH230418   2.262   2.164  11.371  0.5925 -0.0639 -0.2531
 2976TIP3    H130419   2.273   2.204  11.458  0.6878  0.2863 -0.4253
 2976TIP3    H230420   2.233   2.236  11.315  1.6499 -0.0464 -0.7735
 2977TIP3   OH230421   3.639   6.659   3.510 -1.0106  0.5268  0.0080
 2977TIP3    H130422   3.556   6.692   3.547 -0.5335  0.1632  1.4408
 2977TIP3    H230423   3.687   6.738   3.486 -1.6096  0.7521 -0.4605
 2978TIP3   OH230424   5.803   2.606   1.367  0.1126 -0.4154  0.0043
 2978TIP3    H130425   5.848   2.555   1.300 -1.7252 -1.3016 -0.6004
 2978TIP3    H230426   5.838   2.573   1.450  0.5532 -1.1028 -0.4554
 2979TIP3   OH230427   1.230   5.449   1.981  0.3506  0.0491 -0.0127
 2979TIP3    H130428   1.316   5.409   1.995  0.2156  0.2212  1.3341
 2979TIP3    H230429   1.216   5.504   2.057 -0.5744  0.7238 -0.6599
 2980TIP3   OH230430   2.497   2.936  16.278 -0.9292 -0.0008  0.1867
 2980TIP3    H130431   2.556   2.995  16.231 -1.8469  0.6053 -0.2162
 2980TIP3    H230432   2.447   2.994  16.336 -1.0453 -0.5303  0.6177
 2981TIP3   OH230433   0.080   1.044   2.379  0.5894 -0.6899  0.0989
 2981TIP3    H130434   0.144   0.994   2.329  1.2186  1.6505 -1.5540
 2981TIP3    H230435   0.109   1.135   2.369 -1.7958  0.2088  1.0903
 2982TIP3   OH230436   2.628   3.933   0.064  0.2829  0.2358 -0.3755
 2982TIP3    H130437   2.600   3.843   0.077  0.3955  0.2635  0.0726
 2982TIP3    H230438   2.580   3.963  -0.014  0.3878 -0.2682 -0.6322
 2983TIP3   OH230439   5.109   3.504   4.209 -0.2452  0.6204 -0.5351
 2983TIP3    H130440   5.047   3.489   4.281 -1.6427 -2.5038 -2.2551
 2983TIP3    H230441   5.175   3.436   4.220  1.4672  2.3101 -0.2261
 2984TIP3   OH230442   6.654   0.237  16.132 -0.3031 -0.5265 -0.1470
 2984TIP3    H130443   6.643   0.142  16.129  1.4609 -0.7930  1.1580
 2984TIP3    H230444   6.586   0.270  16.073 -0.3396 -2.6396 -1.3678
 2985TIP3   OH230445   5.021   1.174  14.754  0.0884  0.1356  0.2505
 2985TIP3    H130446   4.977   1.258  14.747 -0.3300  0.0665  1.7840
 2985TIP3    H230447   4.984   1.134  14.833  1.2896 -0.8837  0.3182
 2986TIP3   OH230448   5.031   6.292  11.661 -0.0822  0.1283  0.2944
 2986TIP3    H130449   5.000   6.252  11.580 -2.0831  0.9631  0.6194
 2986TIP3    H230450   4.999   6.235  11.731 -1.5980  1.4081  0.6741
 2987TIP3   OH230451   4.481   3.122   3.294 -0.3237  0.3924  0.6859
 2987TIP3    H130452   4.389   3.106   3.272  0.0777  1.5814 -1.9291
 2987TIP3    H230453   4.531   3.082   3.223  1.1490  1.1284  1.2784
 2988TIP3   OH230454   0.601   2.560  12.736  0.4653  0.0213  0.2634
 2988TIP3    H130455   0.555   2.547  12.819  0.9445  0.3909  0.5955
 2988TIP3    H230456   0.544   2.618  12.686 -0.5311 -1.4053 -0.2601
 2989TIP3   OH230457   3.118   5.863  15.727  0.4460 -0.5033 -0.3416
 2989TIP3    H130458   3.199   5.841  15.772  0.1235  0.1517  0.5740
 2989TIP3    H230459   3.146   5.913  15.651  0.8612  0.5544  0.4885
 2990TIP3   OH230460   5.827   5.457  12.120  0.4185 -0.0282  0.2666
 2990TIP3    H130461   5.864   5.510  12.190 -0.8126 -0.2974  1.1379
 2990TIP3    H230462   5.869   5.490  12.040  2.6932 -0.4831  1.2298
 2991TIP3   OH230463   3.256   6.000  11.644 -0.4429 -0.1877 -0.7359
 2991TIP3    H130464   3.279   6.086  11.681  1.6057 -1.0775  0.0988
 2991TIP3    H230465   3.171   5.980  11.684 -0.1333  0.6855  0.4155
 2992TIP3   OH230466   3.577   5.000   5.110  0.2061  0.2451  0.1242
 2992TIP3    H130467   3.671   4.993   5.123  0.1274 -0.6156  0.2399
 2992TIP3    H230468   3.539   4.951   5.183 -0.2952 -1.1516 -1.0514
 2993TIP3   OH230469   6.611   6.404  17.079 -0.4986  0.4475  0.1656
 2993TIP3    H130470   6.611   6.476  17.142 -2.0188  0.3914  0.2479
 2993TIP3    H230471   6.644   6.442  16.998 -1.2486  1.2448  0.2228
 2994TIP3   OH230472   4.096   1.761  16.879 -0.3512 -0.0508 -0.4647
 2994TIP3    H130473   4.004   1.784  16.861 -0.5628  0.5611  1.3461
 2994TIP3    H230474   4.147   1.827  16.833 -0.8572  0.6529 -0.0169
 2995TIP3   OH230475   0.830   3.307   3.369  0.4413  0.1699  0.3277
 2995TIP3    H130476   0.904   3.257   3.334 -0.1786  0.5474 -1.6046
 2995TIP3    H230477   0.860   3.397   3.372 -0.1622  0.4401 -1.1852
 2996TIP3   OH230478   2.048   6.003  12.520 -0.0549  0.4801  0.1924
 2996TIP3    H130479   2.111   5.931  12.514 -0.5738 -0.0612  1.1700
 2996TIP3    H230480   1.991   5.992  12.444 -1.0783 -1.0499  1.1683
 2997TIP3   OH230481   4.539   6.273  16.992  0.2839 -0.0952  0.3056
 2997TIP3    H130482   4.460   6.321  16.966  0.0424 -0.8939 -0.4599
 2997TIP3    H230483   4.525   6.253  17.085 -1.3605 -2.0181 -0.3185
 2998TIP3   OH230484   1.260   4.996   2.219  0.3048 -0.1706 -0.3584
 2998TIP3    H130485   1.331   4.939   2.247 -0.3786 -0.5288  0.6730
 2998TIP3    H230486   1.212   5.015   2.299  1.5525  3.3124 -0.3302
 2999TIP3   OH230487   3.807   3.437  13.718 -0.3889  0.3331  0.2825
 2999TIP3    H130488   3.721   3.453  13.678 -0.1842  1.4185  0.2611
 2999TIP3    H230489   3.864   3.504  13.680  1.0197 -1.7166 -1.3815
 3000TIP3   OH230490   5.313   3.773   0.779  0.0607  0.1400 -0.3794
 3000TIP3    H130491   5.381   3.828   0.742 -2.0806  1.1019 -3.0375
 3000TIP3    H230492   5.236   3.830   0.783 -0.5757 -0.8256  2.8184
 3001TIP3   OH230493   3.224   3.884   0.154 -0.5481 -0.1809 -0.0244
 3001TIP3    H130494   3.158   3.954   0.163  0.0229  0.7403 -2.4285
 3001TIP3    H230495   3.308   3.931   0.154 -0.2561 -0.5361 -3.9341
 3002TIP3   OH230496   2.857   3.649   1.286 -0.0402  0.7613  0.8884
 3002TIP3    H130497   2.890   3.653   1.376 -1.3644 -1.5252  1.5064
 3002TIP3    H230498   2.826   3.738   1.269  0.3588  1.2715  2.6311
 3003TIP3   OH230499   1.830   6.464   6.641 -0.2377  0.6300 -0.5566
 3003TIP3    H130500   1.756   6.510   6.680  0.4441 -1.0592  3.0233
 3003TIP3    H230501   1.808   6.371   6.649  1.5027  0.1505 -1.0115
 3004TIP3   OH230502   6.599   5.892  15.738 -0.1284  0.8815  0.3046
 3004TIP3    H130503   6.688   5.896  15.775 -0.9753  1.2410  2.3840
 3004TIP3    H230504   6.553   5.964  15.780 -2.1441 -0.9349  1.3250
 3005TIP3   OH230505   6.573   2.016   5.325  0.5382  0.3317 -0.0138
 3005TIP3    H130506   6.588   2.024   5.419 -0.8336 -1.1595  0.3450
 3005TIP3    H230507   6.581   1.923   5.307 -0.2320  0.4867 -1.1964
 3006TIP3   OH230508   1.028   3.240  11.352  0.6723 -0.4334 -0.4745
 3006TIP3    H130509   1.013   3.189  11.273  1.4965 -0.3523 -0.6814
 3006TIP3    H230510   1.111   3.286  11.337  0.4287  0.2196  0.0951
 3007TIP3   OH230511   2.151   5.106   0.287  0.2851  0.0026  0.4256
 3007TIP3    H130512   2.181   5.147   0.368  1.3649  0.0426  0.0118
 3007TIP3    H230513   2.083   5.165   0.254 -0.4491 -0.2280  1.5056
 3008TIP3   OH230514   0.098   3.250  16.341 -0.3094  0.0234 -0.2429
 3008TIP3    H130515   0.099   3.328  16.285 -2.4240  0.0269 -0.3000
 3008TIP3    H230516   0.138   3.182  16.288  3.7229  1.5498  0.6200
 3009TIP3   OH230517   3.812   6.782  10.462  0.2154 -0.4568 -0.0090
 3009TIP3    H130518   3.766   6.722  10.521  0.0989 -0.1173  0.2453
 3009TIP3    H230519   3.806   6.741  10.376 -0.6188 -0.3689  0.0112
 3010TIP3   OH230520   0.687   5.116  16.895  0.7041  0.5551 -0.1297
 3010TIP3    H130521   0.748   5.176  16.938  1.3392  0.3757 -0.7677
 3010TIP3    H230522   0.690   5.037  16.948 -1.1748  1.5434  1.5028
 3011TIP3   OH230523   4.299   1.413  16.093  0.3133  0.7428  0.1936
 3011TIP3    H130524   4.341   1.422  16.178  0.7002  0.3843  0.0410
 3011TIP3    H230525   4.213   1.455  16.104 -1.0677 -2.3836  1.7775
 3012TIP3   OH230526   2.239   6.206   1.826  0.1075 -0.4787 -0.4549
 3012TIP3    H130527   2.332   6.215   1.804 -0.1257 -0.6955 -1.5920
 3012TIP3    H230528   2.231   6.244   1.913  1.0334  0.7569 -0.8888
 3013TIP3   OH230529   5.099   0.055   4.690 -0.6474 -0.1809 -0.2838
 3013TIP3    H130530   5.131   0.075   4.602  2.7475 -0.3650  0.8420
 3013TIP3    H230531   5.110  -0.039   4.699  1.7512  0.2118  1.3077
 3014TIP3   OH230532   1.481   0.214   2.537  0.2427 -0.2956 -0.1904
 3014TIP3    H130533   1.393   0.182   2.514 -0.6735  1.6683  0.4844
 3014TIP3    H230534   1.511   0.259   2.458  0.8855 -1.4697 -0.6159
 3015TIP3   OH230535   3.319   4.998   3.677 -0.7967 -0.3114 -0.1279
 3015TIP3    H130536   3.332   4.952   3.593  1.5750 -1.0765  0.6298
 3015TIP3    H230537   3.260   5.071   3.655 -0.1324 -0.4345 -2.4973
 3016TIP3   OH230538   4.712   0.143  14.856 -0.5709 -0.4529  0.2163
 3016TIP3    H130539   4.770   0.129  14.930 -0.5113  0.9083  0.4322
 3016TIP3    H230540   4.660   0.063  14.852  1.4051 -1.7505 -0.0857
 3017TIP3   OH230541   0.531   4.423  14.717  0.3063 -0.3542 -0.1150
 3017TIP3    H130542   0.536   4.340  14.764 -0.9279 -1.1241 -1.3382
 3017TIP3    H230543   0.485   4.403  14.636  0.3836  1.4375 -0.6289
 3018TIP3   OH230544   2.053   1.766  14.385 -0.1146 -0.1783  0.1297
 3018TIP3    H130545   2.068   1.841  14.442  1.6153  0.8471 -1.5926
 3018TIP3    H230546   1.964   1.776  14.354 -0.3309  0.4485  0.9399
 3019TIP3   OH230547   2.466   3.084   0.916  0.2217 -0.3940  0.2302
 3019TIP3    H130548   2.397   3.129   0.963  0.2990 -0.2926  0.2458
 3019TIP3    H230549   2.528   3.153   0.891  1.2849 -0.7264  1.8641
 3020TIP3   OH230550   6.041   0.282  15.582 -0.7374  0.2940  0.3583
 3020TIP3    H130551   6.073   0.339  15.511 -2.0572  0.9443  0.2583
 3020TIP3    H230552   6.072   0.195  15.559 -3.2672  0.0124 -2.4322
 3021TIP3   OH230553   3.241   6.794  16.408 -0.1426  0.3729  0.2117
 3021TIP3    H130554   3.240   6.702  16.383 -2.6112  0.6566 -0.9492
 3021TIP3    H230555   3.188   6.798  16.488 -1.6262  1.0026 -0.7714
 3022TIP3   OH230556   1.467   3.338  14.887  0.5123  0.1004  0.4930
 3022TIP3    H130557   1.385   3.306  14.850  0.6229  0.1864  0.1661
 3022TIP3    H230558   1.461   3.319  14.980 -0.7561  1.9790  0.7999
 3023TIP3   OH230559   2.241   5.878   3.031  0.1580  0.1038  0.0175
 3023TIP3    H130560   2.330   5.903   3.006  0.5364 -1.2930 -0.1170
 3023TIP3    H230561   2.185   5.943   2.989  1.0831  0.5421 -0.5576
 3024TIP3   OH230562   4.496   1.211   4.015  0.3176  0.5709 -0.1651
 3024TIP3    H130563   4.571   1.185   3.962 -0.7169  0.3200 -1.5197
 3024TIP3    H230564   4.531   1.218   4.104  1.5732 -1.2482 -0.4937
 3025TIP3   OH230565   5.306   3.636   3.384 -0.1930 -0.7634 -0.3870
 3025TIP3    H130566   5.224   3.682   3.400  0.1890  0.2611 -1.3895
 3025TIP3    H230567   5.337   3.668   3.300  0.4168 -2.3609 -0.7908
 3026TIP3   OH230568   5.806   2.309   2.990  0.2166  0.0953 -0.1801
 3026TIP3    H130569   5.714   2.324   2.968 -0.0965  0.7222  1.4485
 3026TIP3    H230570   5.814   2.341   3.080  2.7821  3.1273 -1.3865
 3027TIP3   OH230571   3.189   6.714   4.539  0.6037  0.0368  0.3595
 3027TIP3    H130572   3.182   6.711   4.443 -0.5741  0.2697  0.4424
 3027TIP3    H230573   3.283   6.725   4.555  0.4347  3.8272 -0.8472
 3028TIP3   OH230574   2.508   3.025   6.373  0.0607 -0.1459  0.1247
 3028TIP3    H130575   2.521   2.954   6.311 -0.3257 -0.5402  0.4956
 3028TIP3    H230576   2.589   3.077   6.367 -0.2918  0.2803 -1.2948
 3029TIP3   OH230577   3.649   6.183  14.017  0.1389 -0.5283  0.0775
 3029TIP3    H130578   3.662   6.159  14.109  1.0215 -0.4180 -0.0225
 3029TIP3    H230579   3.591   6.259  14.021  2.4661  1.2505  0.6846
 3030TIP3   OH230580   3.928   3.850  11.758 -0.4868  0.1708  0.0609
 3030TIP3    H130581   3.988   3.820  11.826 -2.0073 -0.1562  1.3010
 3030TIP3    H230582   3.885   3.926  11.796 -0.3383  0.8399 -1.0937
 3031TIP3   OH230583   4.758   1.744   4.326 -0.3310 -0.1792  0.3542
 3031TIP3    H130584   4.751   1.696   4.243  1.8069  0.3816 -0.1966
 3031TIP3    H230585   4.836   1.799   4.315 -1.2448  1.4781  1.9565
 3032TIP3   OH230586   2.242   6.534   1.227 -1.1351  0.1561  0.2782
 3032TIP3    H130587   2.216   6.625   1.215 -0.7404  0.4116  1.2727
 3032TIP3    H230588   2.166   6.483   1.200 -1.2595  0.7746 -0.5435
 3033TIP3   OH230589   1.775   1.250   4.648 -0.2206  0.1701  0.1061
 3033TIP3    H130590   1.687   1.289   4.642 -0.5537 -0.6938 -0.8408
 3033TIP3    H230591   1.789   1.210   4.562 -0.0325 -2.0739  1.1499
 3034TIP3   OH230592   3.604   3.856   0.825  0.5565  0.2234 -0.4811
 3034TIP3    H130593   3.532   3.896   0.777  1.6884  0.7768 -1.7632
 3034TIP3    H230594   3.636   3.787   0.766 -1.3999 -2.6482  1.7065
 3035TIP3   OH230595   4.653   3.645   6.105  0.5572  0.4439  0.1412
 3035TIP3    H130596   4.648   3.594   6.185  0.0483 -0.7650 -0.6497
 3035TIP3    H230597   4.745   3.639   6.079  0.1167 -1.7451 -1.0082
 3036TIP3   OH230598   0.371   4.511   3.887  0.5148 -0.5664 -0.2354
 3036TIP3    H130599   0.442   4.459   3.923  1.1035 -0.8320 -1.7245
 3036TIP3    H230600   0.414   4.574   3.828 -0.3649  0.1675 -0.1152
 3037TIP3   OH230601   2.852   0.253  14.245  0.1471 -0.2258  0.3428
 3037TIP3    H130602   2.770   0.206  14.229  1.0120 -1.3910 -0.6815
 3037TIP3    H230603   2.850   0.326  14.183 -0.2493 -0.0705  0.5347
 3038TIP3   OH230604   2.395   4.708  15.233 -0.6895 -0.4886  0.1564
 3038TIP3    H130605   2.300   4.699  15.247 -0.3598 -2.2235  1.4209
 3038TIP3    H230606   2.427   4.618  15.230  0.9947  0.1051  0.1894
 3039TIP3   OH230607   0.218   6.047   2.968  0.0750 -0.3378 -0.3213
 3039TIP3    H130608   0.190   6.013   2.883 -1.5496  0.4879 -0.1244
 3039TIP3    H230609   0.138   6.057   3.018  0.8083  1.0896  0.6112
 3040TIP3   OH230610   4.026   5.137   6.589  0.6903 -0.2248 -0.1395
 3040TIP3    H130611   3.956   5.202   6.592 -0.1958 -1.2253  1.6287
 3040TIP3    H230612   4.053   5.134   6.497  0.8702  2.7574 -0.2089
 3041TIP3   OH230613   0.210   4.676  12.507 -0.5345  0.3117 -0.0419
 3041TIP3    H130614   0.217   4.691  12.413  0.7205 -1.1972 -0.2097
 3041TIP3    H230615   0.271   4.738  12.546  1.5094 -1.3896 -0.4597
 3042TIP3   OH230616   3.229   0.707  14.752  0.1018 -0.3036  0.1609
 3042TIP3    H130617   3.140   0.740  14.764  0.4447  0.7777 -0.1891
 3042TIP3    H230618   3.258   0.746  14.669  0.1910 -2.2205 -0.7348
 3043TIP3   OH230619   5.283   6.189   3.343 -0.0760  0.0305  0.4791
 3043TIP3    H130620   5.206   6.141   3.373  0.2687 -1.5902 -1.1397
 3043TIP3    H230621   5.350   6.122   3.332  1.4895  1.3713  1.5168
 3044TIP3   OH230622   4.693   3.182   0.375  0.3790  0.2450 -0.6596
 3044TIP3    H130623   4.742   3.203   0.294  2.8601 -3.4729 -0.2625
 3044TIP3    H230624   4.750   3.213   0.445 -1.5677  3.0433 -0.2373
 3045TIP3   OH230625   4.897   6.447  12.543 -0.0044  0.3916 -0.0896
 3045TIP3    H130626   4.938   6.529  12.514  0.5992  0.3451  0.6053
 3045TIP3    H230627   4.940   6.379  12.492  0.3212  0.4031  0.1699
 3046TIP3   OH230628   2.540   6.655  11.516 -0.3488 -0.5226 -0.2353
 3046TIP3    H130629   2.592   6.574  11.512 -0.7586 -0.8158  0.3581
 3046TIP3    H230630   2.489   6.654  11.435 -0.4902 -0.9521 -0.1407
 3047TIP3   OH230631   4.785   0.350  12.496  0.4286 -0.3985 -0.0836
 3047TIP3    H130632   4.865   0.311  12.461  0.1546  0.3986 -1.6469
 3047TIP3    H230633   4.774   0.431  12.446 -0.3611  0.4246  1.3926
 3048TIP3   OH230634   2.772   2.731  17.226 -0.4262 -0.5505  0.4816
 3048TIP3    H130635   2.744   2.659  17.169 -1.2074  0.5140 -0.4966
 3048TIP3    H230636   2.866   2.737  17.212 -0.6399 -0.1960 -0.8254
 3049TIP3   OH230637   0.251   5.964  17.131  0.2871 -0.3445  0.0325
 3049TIP3    H130638   0.299   6.042  17.102 -0.1552 -0.2148 -0.3550
 3049TIP3    H230639   0.164   5.997  17.155  0.3028 -0.6213  0.4739
 3050TIP3   OH230640   3.636   6.073  13.164 -0.6292 -0.2337 -0.0436
 3050TIP3    H130641   3.663   5.984  13.185  0.0367  0.3644  1.7566
 3050TIP3    H230642   3.546   6.064  13.133  0.1157 -1.7525 -1.9215
 3051TIP3   OH230643   0.926   1.082  10.766 -0.0111  0.6632  0.6264
 3051TIP3    H130644   0.880   1.157  10.728  0.4518 -0.1373 -1.5687
 3051TIP3    H230645   0.885   1.006  10.724  0.5590 -0.2348  1.6986
 3052TIP3   OH230646   0.245   4.600   3.643  0.4760 -0.3087 -0.1627
 3052TIP3    H130647   0.246   4.590   3.738  0.0694  1.1883  0.0137
 3052TIP3    H230648   0.179   4.536   3.613 -2.4447  2.0572  0.9482
 3053TIP3   OH230649   5.090   2.647   0.499 -0.3362 -0.1429 -0.0735
 3053TIP3    H130650   5.179   2.662   0.467 -0.1552  1.8669  1.3009
 3053TIP3    H230651   5.034   2.694   0.438 -0.3773 -0.4054 -0.2411
 3054TIP3   OH230652   1.342   4.228  11.351 -0.5930  0.3533 -0.0987
 3054TIP3    H130653   1.406   4.256  11.416  0.3377 -1.8570 -0.0006
 3054TIP3    H230654   1.386   4.241  11.267  0.5056 -2.2317  0.0137
 3055TIP3   OH230655   1.603   5.952   5.655  0.8769 -0.9733 -0.1374
 3055TIP3    H130656   1.534   6.018   5.646  1.7012  0.1863  1.6666
 3055TIP3    H230657   1.671   5.980   5.594  1.6745  0.4954  1.3664
 3056TIP3   OH230658   3.528   1.383   4.575  0.0649  0.2991  0.5832
 3056TIP3    H130659   3.516   1.374   4.480  1.1622 -0.1513  0.4841
 3056TIP3    H230660   3.445   1.352   4.612  0.1368 -0.8414 -0.1728
 3057TIP3   OH230661   0.899   6.518   0.389  0.3729 -0.4240  0.1386
 3057TIP3    H130662   0.813   6.559   0.379  1.4249  1.6093 -1.0723
 3057TIP3    H230663   0.895   6.440   0.333 -0.5927 -0.2010 -0.1228
 3058TIP3   OH230664   6.587   5.964   3.870 -0.1205  0.3847  0.3411
 3058TIP3    H130665   6.606   5.972   3.776  5.2849  2.4746  1.4280
 3058TIP3    H230666   6.600   5.871   3.889  0.2780  0.2141 -0.7043
 3059TIP3   OH230667   6.529   1.853   3.338 -0.1762  0.4346 -0.3959
 3059TIP3    H130668   6.504   1.945   3.349  0.1405  0.5151 -0.3255
 3059TIP3    H230669   6.487   1.807   3.411 -0.1532  0.5604 -0.3030
 3060TIP3   OH230670   5.511   6.156   2.575  0.2337 -0.3176  0.5825
 3060TIP3    H130671   5.585   6.216   2.565  0.9801 -1.3352  0.0226
 3060TIP3    H230672   5.508   6.137   2.669 -0.3800  1.0433  0.8670
 3061TIP3   OH230673   2.030   4.940   0.004  0.3938  0.3677 -0.6155
 3061TIP3    H130674   1.958   5.003   0.005  0.1873  0.1430 -0.9111
 3061TIP3    H230675   2.014   4.884   0.080  0.2849  0.3550 -0.6466
 3062TIP3   OH230676   1.166   1.330  13.276 -0.3538  0.0738 -0.2516
 3062TIP3    H130677   1.161   1.381  13.195  0.2758 -0.7876 -0.8318
 3062TIP3    H230678   1.241   1.367  13.323  0.9390 -1.2039 -1.2879
 3063TIP3   OH230679   1.032   5.387  15.901  0.2738  0.6924 -0.2290
 3063TIP3    H130680   1.045   5.463  15.844  2.5368 -0.6915 -1.6142
 3063TIP3    H230681   0.951   5.346  15.869  1.4829 -0.0225 -2.4096
 3064TIP3   OH230682   4.138   2.849   0.929 -0.0182  0.3676  0.1036
 3064TIP3    H130683   4.101   2.839   0.842 -0.0434  1.1259  0.0200
 3064TIP3    H230684   4.161   2.760   0.957  1.9159  0.3183 -1.5080
 3065TIP3   OH230685   0.417   2.142   0.503  0.4338 -0.4958  0.1811
 3065TIP3    H130686   0.391   2.221   0.550  1.2467  0.8763 -1.6431
 3065TIP3    H230687   0.348   2.129   0.438  1.9890  0.6811 -1.7714
 3066TIP3   OH230688   2.973   5.085  12.082 -0.0120 -0.6972 -0.4045
 3066TIP3    H130689   2.922   5.160  12.050 -1.5630 -1.8541 -0.6634
 3066TIP3    H230690   3.020   5.120  12.158 -0.5628  0.6043 -0.6461
 3067TIP3   OH230691   0.881   0.847  15.114  0.3689  0.0725 -0.1627
 3067TIP3    H130692   0.928   0.877  15.192  1.2349  0.5912 -0.8705
 3067TIP3    H230693   0.822   0.920  15.093  0.5495  0.1715 -0.3269
 3068TIP3   OH230694   0.458   3.226  15.145 -0.6046  0.0978 -0.1742
 3068TIP3    H130695   0.538   3.252  15.100 -0.4968 -1.4532 -0.9071
 3068TIP3    H230696   0.404   3.186  15.077 -1.2060 -0.5925  0.6959
 3069TIP3   OH230697   1.450   5.465   4.873 -0.2161  0.1432  0.2827
 3069TIP3    H130698   1.363   5.486   4.839 -0.4644 -0.1588  0.7241
 3069TIP3    H230699   1.467   5.532   4.938 -0.0718  0.2653  0.1191
 3070TIP3   OH230700   3.810   5.504   3.910  0.3090 -0.2982  0.0802
 3070TIP3    H130701   3.883   5.548   3.954  0.4972  0.0392 -0.5527
 3070TIP3    H230702   3.780   5.438   3.972  1.7134 -1.0272  0.0096
 3071TIP3   OH230703   5.460   4.785  12.083 -0.0347 -0.3700  0.2826
 3071TIP3    H130704   5.364   4.787  12.079  0.0291  0.7326 -0.9777
 3071TIP3    H230705   5.483   4.692  12.084 -1.0821 -0.6380 -0.3323
 3072TIP3   OH230706   2.326   5.632  15.623 -0.0914 -0.1121 -0.2133
 3072TIP3    H130707   2.365   5.634  15.535  0.7076 -1.7025  0.0973
 3072TIP3    H230708   2.348   5.717  15.660  3.1317 -0.9579 -0.0488
 3073TIP3   OH230709   4.538   6.811   3.883  0.0522 -0.4863 -0.1171
 3073TIP3    H130710   4.623   6.849   3.901 -0.8180  1.7211 -0.5561
 3073TIP3    H230711   4.475   6.874   3.917 -1.4525 -0.7368 -2.3175
 3074TIP3   OH230712   4.541   4.514   2.082  0.8102 -0.0120 -0.1990
 3074TIP3    H130713   4.574   4.535   2.169 -0.8560 -1.6067  0.8752
 3074TIP3    H230714   4.594   4.439   2.054  0.2106 -0.6045  0.2126
 3075TIP3   OH230715   2.732   1.481   0.327 -0.8175 -0.4758  0.1630
 3075TIP3    H130716   2.768   1.533   0.254  0.1599  0.4153  1.2613
 3075TIP3    H230717   2.672   1.541   0.371 -1.8115 -1.1843 -0.2077
 3076TIP3   OH230718   0.242   4.387  11.766  0.1007  0.3407  0.1558
 3076TIP3    H130719   0.202   4.301  11.774  0.4143  0.2671  0.9679
 3076TIP3    H230720   0.260   4.397  11.672 -1.1553  0.0845 -0.1137
 3077TIP3   OH230721   1.206   0.705   3.950  0.2278 -0.2590 -0.0164
 3077TIP3    H130722   1.174   0.617   3.931  3.1448 -1.6847  1.2569
 3077TIP3    H230723   1.298   0.704   3.921  0.5833  2.0683  0.8783
 3078TIP3   OH230724   2.570   6.108  13.702 -0.3387 -0.1683 -0.0527
 3078TIP3    H130725   2.511   6.057  13.648 -0.9168 -1.2013  1.5266
 3078TIP3    H230726   2.514   6.146  13.770  0.6908 -0.6108  1.0657
 3079TIP3   OH230727   0.474   2.083  11.429  0.2693  0.1796  0.0356
 3079TIP3    H130728   0.526   2.032  11.367 -0.2947  1.0668 -1.1937
 3079TIP3    H230729   0.473   2.030  11.509  1.0164 -0.9793 -0.7043
 3080TIP3   OH230730   1.330   0.100  11.174 -0.3822  0.2468 -0.3343
 3080TIP3    H130731   1.328   0.058  11.088  1.7045  0.6995 -0.6267
 3080TIP3    H230732   1.334   0.193  11.155 -0.5938  0.3796  0.2636
 3081TIP3   OH230733   3.168   2.999   0.757 -0.4233  0.3810  0.2127
 3081TIP3    H130734   3.136   2.965   0.841 -0.7798  0.7288  0.2210
 3081TIP3    H230735   3.243   2.944   0.736  0.1011  0.7377  1.1189
 3082TIP3   OH230736   3.493   1.237   5.008  0.4656  0.6102 -0.0893
 3082TIP3    H130737   3.453   1.268   5.089  0.2705  1.2661 -0.4317
 3082TIP3    H230738   3.575   1.286   5.001 -0.1840  1.5970 -0.9968
 3083TIP3   OH230739   1.134   1.268  14.596 -0.5077 -0.1172 -0.6058
 3083TIP3    H130740   1.182   1.343  14.559  0.2719 -0.6862 -0.7734
 3083TIP3    H230741   1.062   1.254  14.535 -0.0782 -0.1254 -1.1160
 3084TIP3   OH230742   1.371   0.356  15.045 -0.0623  0.1028  0.5584
 3084TIP3    H130743   1.305   0.422  15.068  0.9757  1.3034  0.1173
 3084TIP3    H230744   1.438   0.365  15.113  0.5822  0.1985 -0.0937
 3085TIP3   OH230745   5.941   5.499   2.406 -0.2539 -0.0481 -0.1043
 3085TIP3    H130746   5.870   5.523   2.465 -1.3684  0.5319 -1.6441
 3085TIP3    H230747   5.981   5.421   2.445 -2.3004 -0.9035  0.3026
 3086TIP3   OH230748   5.049   3.082   4.927  0.3001  0.7667  0.2784
 3086TIP3    H130749   5.026   3.175   4.915 -0.8379  0.6261  1.3568
 3086TIP3    H230750   4.971   3.034   4.898  0.3142  0.1987  1.1684
 3087TIP3   OH230751   3.008   1.169  16.967  0.0366 -0.2664 -0.2980
 3087TIP3    H130752   3.043   1.094  16.919  0.3282 -0.1838 -0.2104
 3087TIP3    H230753   3.084   1.223  16.988  0.1315 -1.1789  1.8201
 3088TIP3   OH230754   4.172   4.555  12.446  0.3083 -0.1562 -0.6985
 3088TIP3    H130755   4.165   4.498  12.522 -0.0285  0.2458 -0.4178
 3088TIP3    H230756   4.264   4.552  12.421  0.5831  0.3531  0.2361
 3089TIP3   OH230757   6.100   1.915   4.916 -0.5922 -0.0310  0.2105
 3089TIP3    H130758   6.095   1.962   4.832  1.0893  0.2837  0.2678
 3089TIP3    H230759   6.193   1.918   4.939 -0.9453 -0.7178  1.7512
 3090TIP3   OH230760   3.661   3.378   1.471 -0.3020  0.6391  0.2596
 3090TIP3    H130761   3.706   3.462   1.482 -1.9080  1.2735  2.3640
 3090TIP3    H230762   3.699   3.322   1.538 -0.0360  0.0406 -0.3929
 3091TIP3   OH230763   3.124   6.070  14.435 -0.0340 -0.4461  0.3514
 3091TIP3    H130764   3.144   6.144  14.492 -0.6337 -2.5245  3.3549
 3091TIP3    H230765   3.043   6.096  14.390 -0.0009  0.8712  1.0409
 3092TIP3   OH230766   3.486   3.616  12.462 -0.3208  0.5529  0.7286
 3092TIP3    H130767   3.486   3.699  12.413 -1.1413 -0.7821 -1.6002
 3092TIP3    H230768   3.486   3.643  12.554  0.1137  3.1379  0.0154
 3093TIP3   OH230769   4.929   2.395  16.434  0.5122  0.3504 -0.2112
 3093TIP3    H130770   4.859   2.432  16.380  0.6343  3.1964  1.4492
 3093TIP3    H230771   5.009   2.432  16.397  0.9848 -1.1589 -0.7385
 3094TIP3   OH230772   4.727   6.032  14.266  0.0466  0.6155  0.6418
 3094TIP3    H130773   4.708   6.037  14.172 -0.8880  1.1098  0.8527
 3094TIP3    H230774   4.812   6.075  14.275  0.0217  0.7987  0.0634
 3095TIP3   OH230775   5.279   5.431  13.517  0.3100  0.4694 -0.3515
 3095TIP3    H130776   5.374   5.438  13.520  0.2294  1.0804  1.2783
 3095TIP3    H230777   5.258   5.424  13.424  2.0371 -1.0574 -0.6513
 3096TIP3   OH230778   1.194   1.558   5.356  0.5836  0.0825 -0.0679
 3096TIP3    H130779   1.133   1.630   5.372 -1.0557 -1.2651 -0.0286
 3096TIP3    H230780   1.158   1.484   5.405  0.5277 -1.5927 -2.5158
 3097TIP3   OH230781   3.478   2.552   0.746  0.2988 -0.3782 -0.0843
 3097TIP3    H130782   3.500   2.602   0.668  0.7637 -0.1283  0.2072
 3097TIP3    H230783   3.559   2.550   0.797 -0.5938  1.3332  1.4446
 3098TIP3   OH230784   0.733   2.023   2.510 -0.2750  0.3239 -0.8687
 3098TIP3    H130785   0.667   2.092   2.503 -0.2465  0.6588  1.8100
 3098TIP3    H230786   0.705   1.970   2.585  1.0425 -1.1332 -1.3731
 3099TIP3   OH230787   3.890   0.740   6.029 -0.2262 -0.1676  0.2191
 3099TIP3    H130788   3.943   0.807   6.072  0.1383 -1.3472  1.6259
 3099TIP3    H230789   3.945   0.662   6.028 -1.6277 -1.1911  0.9809
 3100TIP3   OH230790   6.170   0.021  13.041  0.2558 -0.3535  0.1406
 3100TIP3    H130791   6.079   0.043  13.062  0.0484  0.9690 -2.0637
 3100TIP3    H230792   6.205  -0.017  13.123 -2.6651 -2.2133  0.6104
 3101TIP3   OH230793   1.584   6.643  11.929 -0.3782 -0.0026 -0.0373
 3101TIP3    H130794   1.543   6.699  11.995  0.8592 -0.5480  1.2177
 3101TIP3    H230795   1.513   6.619  11.870 -0.9940  2.7422 -0.5147
 3102TIP3   OH230796   5.021   2.264   1.713  0.1340 -0.2858  0.2675
 3102TIP3    H130797   4.954   2.269   1.781  0.4119 -1.5353  0.6500
 3102TIP3    H230798   5.016   2.173   1.681 -0.8749  0.6023 -2.2763
 3103TIP3   OH230799   5.047   1.339   0.727  0.3877 -0.3683  0.5432
 3103TIP3    H130800   5.108   1.413   0.724 -1.3827  1.1502  1.2792
 3103TIP3    H230801   5.102   1.264   0.751  1.7673  1.1864  2.4042
 3104TIP3   OH230802   3.812   2.160  14.978  0.2367  0.2746  0.4065
 3104TIP3    H130803   3.796   2.139  14.886  2.8011  0.5300 -0.1455
 3104TIP3    H230804   3.751   2.231  14.998  0.9118  1.4629 -1.6293
 3105TIP3   OH230805   5.081   4.116  13.710 -0.1014  0.1083  0.2304
 3105TIP3    H130806   5.014   4.129  13.644 -0.7276  0.6825  0.9714
 3105TIP3    H230807   5.038   4.137  13.793  0.6878 -0.5466  0.8154
 3106TIP3   OH230808   0.503   3.033  12.999 -0.4101  0.2123  0.1552
 3106TIP3    H130809   0.539   2.973  12.933  0.5132 -1.1649  1.8791
 3106TIP3    H230810   0.435   2.982  13.043 -0.9591  1.0937  0.3453
 3107TIP3   OH230811   2.175   1.501   2.622 -0.1785 -0.0928  0.1369
 3107TIP3    H130812   2.172   1.414   2.661 -1.1333  1.2820  3.2740
 3107TIP3    H230813   2.261   1.536   2.646 -1.2187  1.2097  2.1583
 3108TIP3   OH230814   2.239   3.150   2.601  0.0214 -0.1992  0.1896
 3108TIP3    H130815   2.282   3.109   2.676  0.5424 -0.6559 -0.3553
 3108TIP3    H230816   2.147   3.154   2.625  0.3677  0.8617  1.4041
 3109TIP3   OH230817   6.090   4.972  14.086  0.5589 -0.0737 -0.3495
 3109TIP3    H130818   6.014   4.980  14.027  0.1174  2.4093  0.5006
 3109TIP3    H230819   6.152   5.036  14.054 -0.1547  2.1670  2.5259
 3110TIP3   OH230820   1.665   6.242  15.555 -0.3147 -0.4931  0.0087
 3110TIP3    H130821   1.618   6.161  15.538 -2.1764  0.4209  0.6325
 3110TIP3    H230822   1.685   6.277  15.468  1.3142 -2.0418 -0.2705
 3111TIP3   OH230823   4.476   5.220   6.045  0.9146  0.1382 -0.3079
 3111TIP3    H130824   4.507   5.133   6.070  0.1383  0.0087  0.1964
 3111TIP3    H230825   4.382   5.210   6.035  0.8946  0.7911 -0.8017
 3112TIP3   OH230826   3.312   5.606  15.860 -0.0461  0.8033  0.4889
 3112TIP3    H130827   3.304   5.564  15.945  1.0793  0.4937  0.4499
 3112TIP3    H230828   3.353   5.691  15.879  0.0030  0.8252  0.2847
 3113TIP3   OH230829   0.063   3.714   1.164 -0.3254  0.6860 -0.1501
 3113TIP3    H130830   0.036   3.768   1.238  2.8451  0.9959  0.8267
 3113TIP3    H230831   0.086   3.629   1.202 -0.8078  0.1312 -1.0745
 3114TIP3   OH230832   1.667   4.851   1.544 -0.1659  0.7123 -0.4582
 3114TIP3    H130833   1.719   4.771   1.551  0.2267  0.9693 -0.4139
 3114TIP3    H230834   1.731   4.922   1.551 -0.3936  1.0246 -1.4664
 3115TIP3   OH230835   1.666   5.865  14.471  0.0195 -0.4286 -0.1347
 3115TIP3    H130836   1.759   5.843  14.477  0.0999  0.3113  1.3254
 3115TIP3    H230837   1.633   5.855  14.560 -0.8446  1.2929 -0.2417
 3116TIP3   OH230838   0.259   1.993  11.892  0.0654 -0.1790  0.0330
 3116TIP3    H130839   0.233   2.085  11.897  1.7524  0.2849  0.6475
 3116TIP3    H230840   0.344   1.990  11.936  0.4435 -1.8667 -0.7705
 3117TIP3   OH230841   5.047   4.596   3.870  0.0224  0.0914  0.3825
 3117TIP3    H130842   4.977   4.606   3.805  1.2201 -1.0493 -1.0964
 3117TIP3    H230843   5.002   4.605   3.955 -2.0043 -1.1081 -0.5318
 3118TIP3   OH230844   3.537   0.231  13.666  0.8432 -0.2440 -0.2954
 3118TIP3    H130845   3.539   0.270  13.753  1.4958  0.5382 -0.6594
 3118TIP3    H230846   3.479   0.156  13.675  0.5380  0.1054  0.7026
 3119TIP3   OH230847   5.141   1.861   3.848  0.2010  0.4570 -0.3624
 3119TIP3    H130848   5.130   1.946   3.804  0.5005  1.2433  1.0622
 3119TIP3    H230849   5.221   1.825   3.809  1.3899  1.8874  0.6578
 3120TIP3   OH230850   1.285   4.193   4.696  0.0961 -0.2575 -0.2330
 3120TIP3    H130851   1.330   4.272   4.668  0.0933 -0.8219 -1.8727
 3120TIP3    H230852   1.286   4.198   4.792 -3.0885  3.5154 -0.2712
 3121TIP3   OH230853   3.611   2.283   1.114 -0.4807 -0.1197 -0.1602
 3121TIP3    H130854   3.587   2.256   1.025 -0.6647  2.5273 -0.9600
 3121TIP3    H230855   3.555   2.230   1.171 -1.2099 -1.0000 -1.6588
 3122TIP3   OH230856   3.447   5.197  10.632 -0.2755  0.7665 -0.2453
 3122TIP3    H130857   3.437   5.290  10.649 -1.2291  0.8889 -1.4381
 3122TIP3    H230858   3.518   5.191  10.569 -1.9867  0.9120 -2.2486
 3123TIP3   OH230859   6.068   1.438  13.032 -0.1075  0.3549  0.1750
 3123TIP3    H130860   5.986   1.412  12.990 -0.3894 -1.6741  1.9008
 3123TIP3    H230861   6.045   1.515  13.083 -0.3116  1.3817 -1.4324
 3124TIP3   OH230862   3.095   4.522   0.717  0.6279 -0.2497  0.0504
 3124TIP3    H130863   3.124   4.482   0.635  0.6508  0.6367 -0.3751
 3124TIP3    H230864   3.136   4.470   0.786 -0.1324 -1.5747 -0.4799
 3125TIP3   OH230865   3.952   0.795   2.332  0.0403  0.3910 -0.2377
 3125TIP3    H130866   3.892   0.749   2.391  0.9512 -0.0138  0.3929
 3125TIP3    H230867   3.954   0.884   2.366  0.4864  0.1832  0.3011
 3126TIP3   OH230868   2.416   6.492   4.278  0.3138 -0.1436  0.0930
 3126TIP3    H130869   2.473   6.471   4.351  2.7260  0.2608 -1.6190
 3126TIP3    H230870   2.400   6.586   4.286  0.1197 -0.2053  0.4197
 3127TIP3   OH230871   4.939   1.379  12.611  1.1546 -0.5724 -0.1980
 3127TIP3    H130872   4.925   1.285  12.613  0.3342 -0.4599 -0.4103
 3127TIP3    H230873   4.854   1.417  12.632  1.2557  0.1311 -0.9807
 3128TIP3   OH230874   4.517   3.896  13.324  0.1093  0.3535 -0.2418
 3128TIP3    H130875   4.443   3.932  13.275  0.2681  0.8396 -0.1254
 3128TIP3    H230876   4.583   3.877  13.257  0.4270  1.2645 -0.1936
 3129TIP3   OH230877   3.141   2.287  14.964  0.0486  0.4393  0.3099
 3129TIP3    H130878   3.085   2.220  14.922  0.0494 -0.7046  2.0822
 3129TIP3    H230879   3.211   2.302  14.900 -0.1606 -0.9799 -0.2949
 3130TIP3   OH230880   6.405   2.140  16.607 -0.4278 -0.4707  0.3215
 3130TIP3    H130881   6.338   2.073  16.590 -0.1131 -1.4741  2.9006
 3130TIP3    H230882   6.486   2.101  16.574 -0.3899 -0.9968  1.0434
 3131TIP3   OH230883   2.924   2.494   3.120 -0.1688  0.7712 -0.1190
 3131TIP3    H130884   2.915   2.538   3.205 -0.4812  1.0394 -0.2903
 3131TIP3    H230885   2.839   2.453   3.106  0.5653 -1.1018  0.7114
 3132TIP3   OH230886   1.158   1.357  14.154  0.2141 -0.4089  0.0066
 3132TIP3    H130887   1.186   1.377  14.243 -0.0853 -1.1601  0.2716
 3132TIP3    H230888   1.229   1.304  14.118  1.1418  1.3605 -0.7946
 3133TIP3   OH230889   1.876   3.902   3.400  0.0369 -0.0723  0.1851
 3133TIP3    H130890   1.933   3.977   3.415 -1.5774  1.3343 -0.6178
 3133TIP3    H230891   1.806   3.911   3.464 -1.1151  0.1034 -1.0813
 3134TIP3   OH230892   5.818   1.030  14.481 -0.4913  0.0697 -0.3286
 3134TIP3    H130893   5.820   1.125  14.467 -0.2452  0.2461  0.8550
 3134TIP3    H230894   5.839   1.019  14.574  0.1183 -1.1777 -0.6054
 3135TIP3   OH230895   3.740   4.037   5.596  0.1102  0.3192  0.0427
 3135TIP3    H130896   3.815   3.982   5.622 -0.8911 -1.0662  0.0823
 3135TIP3    H230897   3.766   4.126   5.619  1.2814 -0.2852  1.1276
 3136TIP3   OH230898   5.971   1.920   2.638  0.1257  0.1652 -0.5139
 3136TIP3    H130899   6.058   1.957   2.650  0.5202 -1.1246  0.7571
 3136TIP3    H230900   5.946   1.889   2.725 -0.9300 -0.9144 -1.1817
 3137TIP3   OH230901   0.947   2.448   5.323  0.5127  0.6234  0.3415
 3137TIP3    H130902   0.886   2.504   5.371  1.4493  2.1227 -0.1826
 3137TIP3    H230903   1.033   2.482   5.346  1.1657 -1.5684  1.1853
 3138TIP3   OH230904   0.987   5.250   0.144 -1.1130 -0.4301  0.0181
 3138TIP3    H130905   1.070   5.202   0.143 -0.7595  0.1601  0.6261
 3138TIP3    H230906   0.966   5.263   0.052 -0.4506 -0.4594 -0.1400
 3139TIP3   OH230907   1.854   5.655  13.064  0.1781  0.2311 -0.0305
 3139TIP3    H130908   1.794   5.605  13.119 -0.5229  0.5878 -0.4701
 3139TIP3    H230909   1.894   5.590  13.007  0.0704  0.0183  0.1376
 3140TIP3   OH230910   2.317   4.545  12.311 -0.3784  0.1136  0.8764
 3140TIP3    H130911   2.268   4.626  12.328 -2.7328 -0.8472 -1.0563
 3140TIP3    H230912   2.386   4.571  12.250  1.9366  1.5745  3.9837
 3141TIP3   OH230913   0.820   5.475  13.050 -0.3917  0.8436  0.3798
 3141TIP3    H130914   0.840   5.563  13.080  0.6194  0.8496 -0.2775
 3141TIP3    H230915   0.727   5.463  13.070 -0.8457  2.5089 -0.6289
 3142TIP3   OH230916   0.053   6.751  11.235  0.0882 -0.1450 -0.6325
 3142TIP3    H130917   0.005   6.831  11.259  0.4225  0.0559 -0.6272
 3142TIP3    H230918   0.034   6.739  11.142 -0.5128 -0.4417 -0.4735
 3143TIP3   OH230919   3.444   2.449  12.657 -0.3351  0.8602 -0.3360
 3143TIP3    H130920   3.473   2.527  12.704  0.0731  0.1985  0.5190
 3143TIP3    H230921   3.405   2.483  12.576  0.9158  1.8678 -0.5215
 3144TIP3   OH230922   6.234   4.013  13.621 -0.0455  0.2067  0.0322
 3144TIP3    H130923   6.271   3.925  13.617 -0.3338  0.1443 -1.3058
 3144TIP3    H230924   6.294   4.067  13.570 -0.3538  0.6213  0.1088
 3145TIP3   OH230925   5.341   5.161  16.528 -0.0283 -0.2530  0.2483
 3145TIP3    H130926   5.318   5.237  16.474  1.9428 -0.3800 -0.7961
 3145TIP3    H230927   5.413   5.192  16.584 -1.7803 -0.2277  2.5914
 3146TIP3   OH230928   5.185   2.429  12.541  0.6523 -0.2638 -0.2302
 3146TIP3    H130929   5.185   2.445  12.636 -1.2928 -1.9836  0.0976
 3146TIP3    H230930   5.270   2.388  12.525  0.1478 -1.9562  1.1834
 3147TIP3   OH230931   0.649   1.120  11.883 -0.4521  0.2937  0.0854
 3147TIP3    H130932   0.607   1.080  11.806  1.3551 -0.8488 -0.3563
 3147TIP3    H230933   0.607   1.077  11.958  2.7268 -4.0112 -0.3872
 3148TIP3   OH230934   2.564   6.483   5.895  0.7561  0.1273 -0.0973
 3148TIP3    H130935   2.504   6.542   5.848 -0.0835 -0.4520  0.2326
 3148TIP3    H230936   2.570   6.406   5.838  0.7054 -0.0676  0.1632
 3149TIP3   OH230937   3.932   2.886   2.638 -0.2246 -0.2834  0.4345
 3149TIP3    H130938   3.839   2.880   2.661 -0.3830  0.1081 -0.0802
 3149TIP3    H230939   3.971   2.807   2.674 -0.8593 -0.7167  0.1786
 3150TIP3   OH230940   5.508   1.244   1.421 -0.3585 -0.0445  0.3048
 3150TIP3    H130941   5.417   1.264   1.397  0.4477  1.9427 -1.2884
 3150TIP3    H230942   5.541   1.191   1.348  0.0369  0.0674  0.3989
 3151TIP3   OH230943   2.262   2.092   3.650  0.9777  0.1021  0.3160
 3151TIP3    H130944   2.231   2.137   3.572  1.3229  0.4650  0.3894
 3151TIP3    H230945   2.258   2.157   3.720 -1.8611 -0.9662  1.1908
 3152TIP3   OH230946   1.046   0.924   2.925 -0.0882 -0.0599 -0.3444
 3152TIP3    H130947   1.022   1.009   2.960  0.2777 -0.2983  0.4841
 3152TIP3    H230948   1.110   0.943   2.856 -0.3661  0.3641 -0.4833
 3153TIP3   OH230949   2.608   1.434  15.654 -0.1478 -0.2444 -0.3172
 3153TIP3    H130950   2.561   1.426  15.571 -2.8076  0.9368  1.0215
 3153TIP3    H230951   2.616   1.528  15.668 -1.3125 -0.4176  1.6176
 3154TIP3   OH230952   2.677   5.253  13.854  0.4087  0.4518  0.2589
 3154TIP3    H130953   2.715   5.270  13.767 -0.2294  1.4288  0.1666
 3154TIP3    H230954   2.645   5.163  13.848 -0.6228  0.8720 -0.8962
 3155TIP3   OH230955   1.811   3.910  10.749 -0.6906  0.7799 -0.0092
 3155TIP3    H130956   1.806   3.814  10.757 -2.4885  0.8175 -0.5257
 3155TIP3    H230957   1.874   3.925  10.679  2.5309  0.0922  2.5929
 3156TIP3   OH230958   0.565   0.062   3.149  0.8784 -0.0825  0.2679
 3156TIP3    H130959   0.579   0.106   3.065  1.1417  0.0239  0.3665
 3156TIP3    H230960   0.551  -0.030   3.126 -1.3201  0.3002 -0.0739
 3157TIP3   OH230961   5.356   2.734  15.882  0.5161 -0.2834  0.6670
 3157TIP3    H130962   5.419   2.806  15.881  0.9710 -0.6694  1.1948
 3157TIP3    H230963   5.410   2.655  15.885 -0.0021 -0.5624  3.8682
 3158TIP3   OH230964   2.811   1.399  11.090 -0.0764 -0.1550 -0.2157
 3158TIP3    H130965   2.822   1.477  11.036 -1.3631 -0.4436 -0.9031
 3158TIP3    H230966   2.900   1.366  11.102  0.3777  0.8427 -0.7602
 3159TIP3   OH230967   2.969   3.644  15.105  0.5144  0.1830 -0.1070
 3159TIP3    H130968   2.888   3.597  15.122  0.3716  0.2801 -0.5086
 3159TIP3    H230969   3.001   3.670  15.191  1.2346 -1.7192  0.2258
 3160TIP3   OH230970   0.694   4.616   5.206  0.3569  0.3256  0.2711
 3160TIP3    H130971   0.694   4.523   5.226  0.2611  0.3119  0.2079
 3160TIP3    H230972   0.673   4.621   5.113  0.8747  0.3885  0.1576
 3161TIP3   OH230973   5.633   0.620   2.670  0.4908 -0.1376 -0.0934
 3161TIP3    H130974   5.573   0.548   2.688 -1.7026  2.2010  2.4014
 3161TIP3    H230975   5.703   0.611   2.734 -0.3713  0.5582  0.9609
 3162TIP3   OH230976   3.352   6.055   4.581 -0.0387 -0.1738  0.4965
 3162TIP3    H130977   3.447   6.044   4.589  0.0757  0.7294  0.4497
 3162TIP3    H230978   3.339   6.150   4.577 -0.9618 -0.2864  0.6861
 3163TIP3   OH230979   0.703   5.840  12.396  0.5339  0.3273 -0.6695
 3163TIP3    H130980   0.776   5.899  12.408  0.5647 -0.0784  1.2198
 3163TIP3    H230981   0.641   5.862  12.465 -1.3279  0.9219 -2.4557
 3164TIP3   OH230982   1.507   2.131  16.820 -0.1724 -0.0868 -0.3117
 3164TIP3    H130983   1.511   2.069  16.893  0.7714 -0.2813 -0.5270
 3164TIP3    H230984   1.487   2.215  16.862  2.1975  0.1630  0.4169
 3165TIP3   OH230985   3.550   5.295   3.428 -0.0304 -0.1063 -0.4429
 3165TIP3    H130986   3.606   5.369   3.452 -0.3470  0.4720 -1.4606
 3165TIP3    H230987   3.611   5.222   3.414  0.2187 -0.3014  1.4410
 3166TIP3   OH230988   0.879   6.294   0.225  0.5922 -0.2111  1.2278
 3166TIP3    H130989   0.864   6.254   0.139  1.4595 -0.2871  1.1069
 3166TIP3    H230990   0.825   6.242   0.285 -0.2827  0.0611  0.6819
 3167TIP3   OH230991   2.746   0.791   1.449 -0.0817  0.0109 -0.2510
 3167TIP3    H130992   2.832   0.752   1.466  0.2347  1.1519  0.8249
 3167TIP3    H230993   2.766   0.878   1.416 -0.8294  0.3064  0.0703
 3168TIP3   OH230994   1.670   0.495   3.856  0.3281 -0.1708 -0.2428
 3168TIP3    H130995   1.731   0.466   3.788 -1.6280 -1.8227 -1.3521
 3168TIP3    H230996   1.724   0.499   3.936  2.0332 -0.9185 -1.3219
 3169TIP3   OH230997   5.013   4.287   4.872 -0.2422  0.1861 -0.1560
 3169TIP3    H130998   5.012   4.306   4.778  0.1776 -1.9220 -0.5999
 3169TIP3    H230999   4.926   4.315   4.902 -0.8811 -0.3764 -1.4269
 3170TIP3   OH231000   5.014   2.279   4.475 -0.7460 -0.7558 -0.2683
 3170TIP3    H131001   5.034   2.248   4.563  0.6382 -1.0353 -0.6766
 3170TIP3    H231002   5.098   2.278   4.429 -1.4062 -0.3364 -1.5082
 3171TIP3   OH231003   3.873   0.973  14.290 -0.3108  0.3503 -0.1344
 3171TIP3    H131004   3.959   0.992  14.328  0.0100 -0.9361 -0.2003
 3171TIP3    H231005   3.857   1.046  14.231  1.7211 -0.4441 -1.7347
 3172TIP3   OH231006   0.391   3.885   4.567  0.1331 -0.3031 -0.2985
 3172TIP3    H131007   0.329   3.940   4.519  1.1967  1.4111  0.2374
 3172TIP3    H231008   0.440   3.839   4.499  0.3083  0.6357 -0.8209
 3173TIP3   OH231009   1.805   6.132   4.497 -0.1461  0.4961 -0.0191
 3173TIP3    H131010   1.861   6.097   4.428 -0.6555 -0.3726  0.0040
 3173TIP3    H231011   1.752   6.199   4.454  1.0168  1.4450 -0.0044
 3174TIP3   OH231012   5.745   4.658  16.742 -0.5391 -0.0050  0.7181
 3174TIP3    H131013   5.799   4.594  16.790  0.0802 -1.4193 -1.7669
 3174TIP3    H231014   5.742   4.734  16.799  1.4177 -1.0860  2.3447
 3175TIP3   OH231015   3.255   5.906   3.372  0.2603 -0.3113 -0.0370
 3175TIP3    H131016   3.299   5.980   3.414  2.1120 -0.3254 -1.8846
 3175TIP3    H231017   3.234   5.847   3.444  0.6685  1.0266  1.2118
 3176TIP3   OH231018   1.426   1.084  15.365 -0.0242 -0.0113  0.5401
 3176TIP3    H131019   1.480   1.122  15.296 -2.2617  0.3302 -1.0766
 3176TIP3    H231020   1.383   1.159  15.407 -2.4479 -0.5064 -0.9583
 3177TIP3   OH231021   4.101   5.987  13.113 -0.1994  0.2119 -0.7547
 3177TIP3    H131022   4.117   5.908  13.061  0.1772  0.2448 -0.6924
 3177TIP3    H231023   4.139   6.058  13.061 -0.6092  0.3601 -0.8478
 3178TIP3   OH231024   5.309   6.140  10.936  0.2917 -0.8953 -0.5679
 3178TIP3    H131025   5.386   6.145  10.878 -0.7582 -1.6585 -2.0695
 3178TIP3    H231026   5.271   6.227  10.933  1.4068 -0.3386  0.6591
 3179TIP3   OH231027   6.089   4.427   2.776  0.4889  0.5134 -0.2252
 3179TIP3    H131028   6.173   4.467   2.801 -0.0855  2.0521 -0.6888
 3179TIP3    H231029   6.060   4.478   2.700 -1.0113  0.1767  0.1106
 3180TIP3   OH231030   5.443   5.954   3.406  0.3909 -0.5603 -0.0671
 3180TIP3    H131031   5.440   5.923   3.497  0.9077 -0.1220  0.1071
 3180TIP3    H231032   5.377   5.902   3.361 -0.8510  0.1922  0.8561
 3181TIP3   OH231033   2.619   1.083  15.694  0.1189 -0.2032  0.2182
 3181TIP3    H131034   2.656   1.035  15.620 -1.0575 -1.3801  0.3470
 3181TIP3    H231035   2.597   1.169  15.659 -0.8943 -0.9163 -0.9551
 3182TIP3   OH231036   2.354   2.568   5.543  0.4804 -0.9214  0.7350
 3182TIP3    H131037   2.271   2.580   5.497  0.8708  0.2520  0.3217
 3182TIP3    H231038   2.413   2.632   5.504  0.8021  0.1577  2.9395
 3183TIP3   OH231039   0.070   2.568   2.532  0.1419 -0.1406 -0.1841
 3183TIP3    H131040   0.121   2.487   2.525  0.4405 -0.2768  2.9680
 3183TIP3    H231041  -0.001   2.546   2.592 -0.8720  1.4431 -0.7720
 3184TIP3   OH231042   5.186   0.281  16.059  0.2716 -0.1780  0.5836
 3184TIP3    H131043   5.224   0.367  16.042 -0.7167  0.0721 -0.4354
 3184TIP3    H231044   5.227   0.224  15.994 -2.3318  0.4490 -1.6876
 3185TIP3   OH231045   0.355   2.451  15.535 -0.1336 -0.2403  0.5582
 3185TIP3    H131046   0.278   2.505  15.554 -0.5379 -1.4316  2.4652
 3185TIP3    H231047   0.332   2.364  15.569  1.6374 -0.8914  0.1399
 3186TIP3   OH231048   5.221   4.522   5.257 -0.1408 -0.0172 -0.4554
 3186TIP3    H131049   5.198   4.429   5.253  0.1910 -0.1496  0.7801
 3186TIP3    H231050   5.165   4.559   5.325 -1.7197  1.1210 -2.3184
 3187TIP3   OH231051   6.403   5.272   2.136  0.5344 -0.2239  0.6574
 3187TIP3    H131052   6.348   5.219   2.193 -0.7806 -1.2013 -1.4555
 3187TIP3    H231053   6.342   5.317   2.078  1.8599  0.0938 -0.5317
 3188TIP3   OH231054   5.265   6.683   2.819  0.1146  0.5380 -0.1490
 3188TIP3    H131055   5.333   6.638   2.770  0.8967  1.6828 -0.1391
 3188TIP3    H231056   5.294   6.678   2.910  0.7167  1.8955 -0.2507
 3189TIP3   OH231057   3.171   5.098  13.164 -0.3095 -0.0315  0.2985
 3189TIP3    H131058   3.082   5.132  13.168 -0.4964 -0.6731  1.8017
 3189TIP3    H231059   3.215   5.153  13.099 -1.7952  0.2906 -0.4537
 3190TIP3   OH231060   0.843   1.240   4.403 -0.2622 -0.4547 -0.0675
 3190TIP3    H131061   0.897   1.162   4.395  0.1303 -0.3307  1.2105
 3190TIP3    H231062   0.788   1.240   4.325 -0.2019 -1.9545 -0.1221
 3191TIP3   OH231063   0.985   5.055   6.197 -0.6064  0.1890  0.3150
 3191TIP3    H131064   0.926   4.982   6.180  0.4806 -1.4577  3.3224
 3191TIP3    H231065   1.071   5.014   6.210  0.6656  2.2871 -1.1074
 3192TIP3   OH231066   2.464   6.013  12.236 -0.0561 -0.4391  0.1067
 3192TIP3    H131067   2.488   5.966  12.316  0.5251  0.4325  0.4476
 3192TIP3    H231068   2.369   6.027  12.244 -0.1637 -1.1846  0.1933
 3193TIP3   OH231069   4.861   4.635  15.106 -0.2340  0.6123 -0.2625
 3193TIP3    H131070   4.942   4.686  15.106  0.1536 -0.0106 -0.3637
 3193TIP3    H231071   4.841   4.620  15.014  0.0411 -0.0495 -0.2122
 3194TIP3   OH231072   2.385   1.680  11.626  0.0287 -0.5517  0.2197
 3194TIP3    H131073   2.470   1.670  11.584  0.0779  0.1068  0.1454
 3194TIP3    H231074   2.400   1.650  11.716  0.5979  0.4269  0.4716
 3195TIP3   OH231075   0.863   4.709   2.084  0.3953  0.0046  0.6204
 3195TIP3    H131076   0.813   4.790   2.069  0.0076 -0.3248  0.1128
 3195TIP3    H231077   0.840   4.683   2.173 -1.7067 -1.0792 -0.2106
 3196TIP3   OH231078   5.880   2.967   5.787  0.2855  0.2474  0.3428
 3196TIP3    H131079   5.825   2.959   5.865 -1.1393  1.8106 -0.4707
 3196TIP3    H231080   5.833   3.027   5.730  1.7385 -0.1796 -1.3686
 3197TIP3   OH231081   2.680   4.488  12.063 -0.1342 -0.4194  0.0940
 3197TIP3    H131082   2.622   4.415  12.082 -0.2252 -0.0222  1.3593
 3197TIP3    H231083   2.654   4.557  12.123 -0.3713  0.8474 -1.4195
 3198TIP3   OH231084   3.408   0.066  11.851  0.2008  0.4312  0.3738
 3198TIP3    H131085   3.475   0.096  11.913  1.5912  2.7670 -2.1777
 3198TIP3    H231086   3.331   0.120  11.870  0.0419 -0.0546  1.1624
 3199TIP3   OH231087   6.227   6.199  11.997  0.0597  0.3232  0.4948
 3199TIP3    H131088   6.182   6.169  12.076 -0.5372 -0.0757  0.0114
 3199TIP3    H231089   6.199   6.290  11.987  1.8506  1.0372  1.9442
 3200TIP3   OH231090   1.402   0.276   3.582 -0.0459  0.2309 -0.1408
 3200TIP3    H131091   1.350   0.196   3.575  0.5389 -0.2323  0.8334
 3200TIP3    H231092   1.340   0.346   3.561 -1.0324 -0.3301  0.8791
 3201TIP3   OH231093   5.024   3.004   5.572  0.1566  0.3835  0.0544
 3201TIP3    H131094   4.970   2.945   5.624 -0.0600  0.7785  0.2718
 3201TIP3    H231095   5.060   2.948   5.503  1.3004 -0.3907  1.2328
 3202TIP3   OH231096   3.431   6.020   0.293  0.4638 -0.1215 -0.2861
 3202TIP3    H131097   3.402   5.948   0.349  2.0305  0.4111  1.2483
 3202TIP3    H231098   3.356   6.037   0.235 -1.0917 -0.8658  1.4540
 3203TIP3   OH231099   4.905   0.832   1.715 -0.2180 -0.5709  0.1412
 3203TIP3    H131100   4.952   0.886   1.651 -0.4134  0.2852  0.7182
 3203TIP3    H231101   4.859   0.767   1.662  0.5349 -0.5806 -0.5139
 3204TIP3   OH231102   0.536   4.866  17.164 -0.5439  0.1671  0.3432
 3204TIP3    H131103   0.577   4.803  17.105  0.0944 -0.4249  1.3916
 3204TIP3    H231104   0.443   4.857  17.147 -0.2483  1.7879 -2.3297
 3205TIP3   OH231105   2.152   5.431   0.212  0.2642  0.2004 -0.4448
 3205TIP3    H131106   2.154   5.424   0.117 -0.1308 -1.7072 -0.3334
 3205TIP3    H231107   2.168   5.524   0.230  3.5500  0.0397 -2.2542
 3206TIP3   OH231108   5.761   5.130  14.682 -0.2628  0.2414  0.0964
 3206TIP3    H131109   5.856   5.126  14.665 -0.3477  2.1186 -0.9130
 3206TIP3    H231110   5.752   5.192  14.754 -0.9265  2.4248 -1.8032
 3207TIP3   OH231111   3.396   1.690   1.597  0.6449  0.6383  0.2013
 3207TIP3    H131112   3.427   1.601   1.612  3.0078  1.6150  1.2695
 3207TIP3    H231113   3.343   1.684   1.517  1.6751 -1.5084 -0.3417
 3208TIP3   OH231114   3.796   6.702  16.091 -0.4663 -0.6272  0.6379
 3208TIP3    H131115   3.753   6.640  16.151  0.6844 -1.2204  0.8565
 3208TIP3    H231116   3.847   6.647  16.032  0.2568  0.0934  0.5875
 3209TIP3   OH231117   3.773   1.920  17.175  0.0652  0.0214 -0.0877
 3209TIP3    H131118   3.866   1.945  17.172  0.7459 -2.1747  1.2332
 3209TIP3    H231119   3.726   2.001  17.156  2.2389  1.3839  0.1008
 3210TIP3   OH231120   3.783   5.430  13.160  0.0074  0.2334 -0.0356
 3210TIP3    H131121   3.793   5.412  13.067  1.0367  0.4469  0.0173
 3210TIP3    H231122   3.807   5.348  13.203 -0.6188  0.0886  0.0279
 3211TIP3   OH231123   4.293   2.420   5.709 -0.6812  0.2269 -0.1199
 3211TIP3    H131124   4.317   2.386   5.796  0.3028 -3.5887 -1.8012
 3211TIP3    H231125   4.198   2.406   5.704 -0.5203 -0.8694 -0.1980
 3212TIP3   OH231126   3.689   0.191   5.768  0.5844 -0.3839  0.0297
 3212TIP3    H131127   3.726   0.192   5.680  1.7165 -0.4507  0.4933
 3212TIP3    H231128   3.719   0.109   5.806  0.2707 -0.2592  0.5540
 3213TIP3   OH231129   1.670   3.551  15.134  0.0267 -0.3273  0.0918
 3213TIP3    H131130   1.629   3.638  15.136 -0.5699 -0.6299  1.6846
 3213TIP3    H231131   1.764   3.569  15.133 -0.0885  0.3472 -1.8754
 3214TIP3   OH231132   4.887   6.516  11.560 -0.5068  0.6240 -0.0317
 3214TIP3    H131133   4.955   6.467  11.606  0.1108  2.0047  0.5447
 3214TIP3    H231134   4.894   6.605  11.594 -3.8878  0.3719  1.5489
 3215TIP3   OH231135   3.353   5.567   5.286 -0.1870 -1.2239  0.0322
 3215TIP3    H131136   3.445   5.563   5.261 -0.6103 -0.0593 -1.8571
 3215TIP3    H231137   3.353   5.562   5.381  2.0065  1.5423  0.2124
 3216TIP3   OH231138   6.583   0.725  15.122  0.1512 -0.1680 -0.0449
 3216TIP3    H131139   6.566   0.698  15.212  0.4562  0.7029  0.2789
 3216TIP3    H231140   6.497   0.730  15.081 -0.0459  0.0908  0.3920
 3217TIP3   OH231141   4.268   5.163  15.834 -0.0936 -0.0302 -0.3409
 3217TIP3    H131142   4.250   5.194  15.745 -1.1630 -0.8791 -0.4277
 3217TIP3    H231143   4.214   5.219  15.890  2.1836  1.9175 -0.0258
 3218TIP3   OH231144   6.395   6.000   3.309  0.4143 -0.0832 -0.1506
 3218TIP3    H131145   6.407   5.913   3.347 -1.3975  0.2609  1.2623
 3218TIP3    H231146   6.475   6.047   3.332  1.0371 -1.0858 -0.1959
 3219TIP3   OH231147   1.421   0.054  10.895  0.1620 -0.5900  0.9019
 3219TIP3    H131148   1.505   0.058  10.849  1.1952 -2.2001  2.5771
 3219TIP3    H231149   1.375  -0.020  10.855 -0.0370 -0.3464  0.6789
 3220TIP3   OH231150   4.485   5.744   2.162  0.2652 -0.1179  0.6878
 3220TIP3    H131151   4.572   5.734   2.200  0.4456  1.0897  0.5995
 3220TIP3    H231152   4.442   5.808   2.219 -0.0754  0.3519 -0.1058
 3221TIP3   OH231153   5.209   5.976  11.412 -0.0803  0.3499 -0.4877
 3221TIP3    H131154   5.140   6.040  11.398  0.3879  1.5198  2.2728
 3221TIP3    H231155   5.269   5.988  11.338 -1.7438  0.7244 -1.7943
 3222TIP3   OH231156   1.637   0.190  14.872 -0.9491 -0.5467  0.2594
 3222TIP3    H131157   1.629   0.175  14.966 -0.3432 -0.8330  0.2620
 3222TIP3    H231158   1.716   0.243  14.863 -1.6430  0.4565  0.0159
 3223TIP3   OH231159   2.584   2.736  15.572  0.0726 -0.3971  0.7823
 3223TIP3    H131160   2.589   2.663  15.511  1.1319  1.2440 -1.1418
 3223TIP3    H231161   2.491   2.740  15.597 -0.3333 -1.2198 -0.5468
 3224TIP3   OH231162   5.263   2.262   1.528 -0.1242  0.1926 -0.0263
 3224TIP3    H131163   5.215   2.296   1.603 -1.4693 -0.2047 -0.6949
 3224TIP3    H231164   5.335   2.324   1.515 -1.1739  1.4790  0.2065
 3225TIP3   OH231165   1.451   4.949  11.012 -0.2160 -0.3048 -0.1399
 3225TIP3    H131166   1.396   4.977  11.085  0.8915  0.1789  0.5374
 3225TIP3    H231167   1.486   5.030  10.975  1.0186 -0.6440  0.2374
 3226TIP3   OH231168   5.031   1.885  13.295 -0.1413  0.2690  0.0032
 3226TIP3    H131169   4.966   1.954  13.305 -0.3795  0.0248  0.1557
 3226TIP3    H231170   5.113   1.924  13.324 -0.6768 -0.1887  2.2169
 3227TIP3   OH231171   4.897   3.314   6.045  0.1807  0.1648  0.4189
 3227TIP3    H131172   4.833   3.382   6.021  0.1369 -0.1349 -0.3277
 3227TIP3    H231173   4.900   3.256   5.969  0.4872 -0.4722  0.9134
 3228TIP3   OH231174   5.450   4.824   1.526  0.1619  0.3257  0.3777
 3228TIP3    H131175   5.367   4.823   1.479  0.0431 -0.9558  0.6096
 3228TIP3    H231176   5.516   4.818   1.457  0.0499  0.7434  0.2320
 3229TIP3   OH231177   1.266   1.277   2.356  0.0747 -0.0048 -0.6148
 3229TIP3    H131178   1.331   1.241   2.296  0.3724  1.7893 -1.4178
 3229TIP3    H231179   1.193   1.302   2.299 -0.2621  0.3247 -0.0397
 3230TIP3   OH231180   4.576   0.301   5.896 -0.2251  0.5508  0.7491
 3230TIP3    H131181   4.492   0.272   5.932 -0.2531 -1.1305 -0.6029
 3230TIP3    H231182   4.590   0.245   5.819  2.0202  0.9626  0.8120
 3231TIP3   OH231183   4.951   2.496   5.939 -0.0014 -0.0595  0.3543
 3231TIP3    H131184   5.036   2.523   5.906  0.2294 -1.1187  0.0449
 3231TIP3    H231185   4.894   2.495   5.862  0.2601 -1.4476  0.1572
 3232TIP3   OH231186   2.414   6.390   2.314 -0.1935  0.6259  0.3592
 3232TIP3    H131187   2.417   6.485   2.318 -0.1584  0.5520  2.5644
 3232TIP3    H231188   2.447   6.361   2.399 -0.0524 -1.3654 -0.3399
 3233TIP3   OH231189   4.279   4.067  11.875 -0.4259  0.6500 -0.1465
 3233TIP3    H131190   4.333   4.145  11.857  1.2925 -0.3354  0.6373
 3233TIP3    H231191   4.324   4.023  11.946 -2.2793 -0.2425  0.4964
 3234TIP3   OH231192   0.708   2.452   0.671  0.1466  0.3769 -0.1387
 3234TIP3    H131193   0.664   2.532   0.644  0.2949  0.9301  1.2081
 3234TIP3    H231194   0.773   2.436   0.603 -1.3251  0.1933 -1.5324
 3235TIP3   OH231195   2.286   6.610  13.750 -0.3554  0.1221 -0.1200
 3235TIP3    H131196   2.240   6.586  13.670 -0.8067 -1.3742  0.5700
 3235TIP3    H231197   2.219   6.610  13.818  0.6319 -2.2074  0.9144
 3236TIP3   OH231198   0.695   4.261   3.716 -1.3601  0.5872  0.1912
 3236TIP3    H131199   0.721   4.197   3.650 -0.9978  0.2510  0.6656
 3236TIP3    H231200   0.758   4.332   3.706 -0.2599 -0.2265  1.3380
 3237TIP3   OH231201   1.584   6.591  16.050 -0.2341  0.0769 -0.3367
 3237TIP3    H131202   1.607   6.502  16.075  0.4865  0.4721  0.4450
 3237TIP3    H231203   1.605   6.644  16.127  1.1417  1.1949 -1.4492
 3238TIP3   OH231204   4.222   1.455  12.993  0.3771 -0.6418  0.4482
 3238TIP3    H131205   4.253   1.494  12.911  0.2983 -0.4374  0.5148
 3238TIP3    H231206   4.302   1.423  13.036  0.8556  2.3155  1.9014
 3239TIP3   OH231207   1.531   1.415   2.690 -0.3777 -0.0336  0.1879
 3239TIP3    H131208   1.613   1.378   2.722  0.0518 -0.9419 -1.9008
 3239TIP3    H231209   1.549   1.509   2.680  0.2564 -0.1561  0.1724
 3240TIP3   OH231210   4.438   1.365   4.423 -0.1428  0.1789 -0.1952
 3240TIP3    H131211   4.408   1.406   4.504  1.8235  1.9188 -0.3185
 3240TIP3    H231212   4.372   1.390   4.358  0.2387  1.9210  0.0655
 3241TIP3   OH231213   0.738   1.870  11.070  0.3740  0.5462 -0.6328
 3241TIP3    H131214   0.724   1.796  11.010 -0.1566 -0.8489  1.1528
 3241TIP3    H231215   0.681   1.850  11.145  2.3749  1.3238  1.1162
 3242TIP3   OH231216   1.888   5.226   2.405  0.1064  0.2308  0.0919
 3242TIP3    H131217   1.927   5.232   2.318 -0.6960  0.5927 -0.2400
 3242TIP3    H231218   1.835   5.305   2.414  0.1265  0.1614  0.8805
 3243TIP3   OH231219   2.685   4.856  11.387  0.2052  0.0990 -0.1790
 3243TIP3    H131220   2.613   4.862  11.324  0.5755  1.0087 -0.5380
 3243TIP3    H231221   2.711   4.947  11.401  1.5325 -0.2523 -0.3393
 3244TIP3   OH231222   3.029   4.283  12.689  0.2038 -0.3876  0.7829
 3244TIP3    H131223   3.102   4.277  12.627 -0.2418 -1.4897  0.3471
 3244TIP3    H231224   2.951   4.274  12.634 -0.2084 -0.7850  1.4342
 3245TIP3   OH231225   4.506   0.269   1.669 -0.2512  0.3945 -0.8280
 3245TIP3    H131226   4.512   0.202   1.601 -2.2601 -2.1011  1.3477
 3245TIP3    H231227   4.423   0.314   1.652 -0.5003  0.1240 -0.3269
 3246TIP3   OH231228   0.513   3.038   3.946  0.4301 -0.1597  0.7874
 3246TIP3    H131229   0.462   2.958   3.934 -0.3256  0.5441 -0.8492
 3246TIP3    H231230   0.599   3.018   3.909  0.3873 -0.3712  0.8028
 3247TIP3   OH231231   3.601   5.408  11.973 -0.1277  0.0744  0.3081
 3247TIP3    H131232   3.650   5.385  11.893 -1.5625  2.4164 -1.3022
 3247TIP3    H231233   3.659   5.468  12.020 -1.1806  2.5339 -1.4046
 3248TIP3   OH231234   6.319   0.177  13.900  0.1862 -0.5413 -0.6192
 3248TIP3    H131235   6.321   0.190  13.805 -1.0844 -0.3259 -0.6341
 3248TIP3    H231236   6.352   0.089  13.913  3.2174  0.4770 -1.0116
 3249TIP3   OH231237   5.505   2.249  13.471  0.6218 -0.0205 -0.0764
 3249TIP3    H131238   5.415   2.263  13.500  0.5980 -0.1567 -0.0839
 3249TIP3    H231239   5.537   2.178  13.526  0.6766 -0.0711 -0.1734
 3250TIP3   OH231240   0.823   0.358   6.057  0.3050  0.0795  0.0211
 3250TIP3    H131241   0.814   0.263   6.055  0.9439  0.0206 -2.8411
 3250TIP3    H231242   0.736   0.391   6.081  0.4491 -1.2220  2.4824
 3251TIP3   OH231243   3.542   5.324  15.209  0.2396 -0.1693 -0.4587
 3251TIP3    H131244   3.545   5.310  15.303 -2.0093  0.3058 -0.2681
 3251TIP3    H231245   3.478   5.260  15.177  1.8675 -1.1441 -1.8479
 3252TIP3   OH231246   1.527   1.738  16.060 -0.7370  0.2308  0.4280
 3252TIP3    H131247   1.461   1.679  16.095 -0.8886  0.3567  0.3537
 3252TIP3    H231248   1.606   1.719  16.111 -0.3824 -1.0765 -0.5674
 3253TIP3   OH231249   6.604   5.573  11.165  0.3401 -0.4109 -0.1161
 3253TIP3    H131250   6.627   5.649  11.112 -1.6129 -1.3838 -2.4703
 3253TIP3    H231251   6.542   5.607  11.230  0.9486  0.3472  0.0738
 3254TIP3   OH231252   5.737   2.892   1.925 -0.2276 -0.2785  0.2746
 3254TIP3    H131253   5.707   2.802   1.910  0.4497 -1.0060  2.9681
 3254TIP3    H231254   5.660   2.938   1.958 -0.2263 -0.2368  0.2192
 3255TIP3   OH231255   0.329   2.231   3.214 -0.3712  0.7070  0.1353
 3255TIP3    H131256   0.351   2.316   3.175 -1.0985  0.8356 -0.0119
 3255TIP3    H231257   0.275   2.188   3.148  2.3259 -1.0751 -0.9945
 3256TIP3   OH231258   6.312   2.401  15.354  0.2596 -0.0083 -0.1551
 3256TIP3    H131259   6.305   2.470  15.420  0.2666  0.3932 -0.5764
 3256TIP3    H231260   6.372   2.337  15.392  1.9502  1.2507 -0.6770
 3257TIP3   OH231261   2.544   2.796  11.691 -0.2017 -0.3399 -0.1157
 3257TIP3    H131262   2.500   2.842  11.763 -1.4558 -1.4067 -0.1969
 3257TIP3    H231263   2.616   2.854  11.667 -1.9008  1.7251 -0.3694
 3258TIP3   OH231264   1.758   4.086   5.416  0.5149 -0.1054 -0.3149
 3258TIP3    H131265   1.707   4.018   5.371 -0.3011  0.2648  0.0406
 3258TIP3    H231266   1.822   4.114   5.351 -0.8047  0.5915 -1.3442
 3259TIP3   OH231267   4.095   2.725   0.191 -0.5111  0.2040 -0.5372
 3259TIP3    H131268   4.170   2.752   0.138  0.5510 -2.2161 -0.3398
 3259TIP3    H231269   4.059   2.807   0.225  2.1968  1.4335 -0.4414
 3260TIP3   OH231270   4.044   4.588   4.709  0.4020  0.0291  0.1272
 3260TIP3    H131271   4.101   4.511   4.720 -0.8790 -1.0373 -0.4765
 3260TIP3    H231272   4.086   4.640   4.641 -0.0806 -1.4757 -1.3600
 3261TIP3   OH231273   1.492   4.028   4.352  1.2129 -0.2291 -0.4338
 3261TIP3    H131274   1.491   3.987   4.265  0.3513 -1.2958  0.0719
 3261TIP3    H231275   1.505   3.955   4.413  2.9384  0.6438  0.2839
 3262TIP3   OH231276   4.384   4.813   6.005  0.1316 -0.0798 -0.2813
 3262TIP3    H131277   4.438   4.739   5.978  1.5161  0.4566  1.0037
 3262TIP3    H231278   4.296   4.791   5.973  0.1225 -3.1370  1.6660
 3263TIP3   OH231279   3.011   0.982  15.902  0.3237 -0.2652  0.0038
 3263TIP3    H131280   3.005   1.034  15.982  0.5017  0.5971 -0.5396
 3263TIP3    H231281   2.920   0.956  15.884  0.5580 -2.3737  1.7238
 3264TIP3   OH231282   5.448   2.609   4.304  0.0890 -0.7150  0.1699
 3264TIP3    H131283   5.515   2.675   4.324 -0.1537 -0.9504  1.8429
 3264TIP3    H231284   5.375   2.659   4.269  0.5847 -0.3004 -0.2940
 3265TIP3   OH231285   6.353   3.368   3.770 -0.2834 -0.1356  0.2288
 3265TIP3    H131286   6.262   3.350   3.791 -0.0153 -0.8470  0.7762
 3265TIP3    H231287   6.364   3.461   3.789 -1.2223  0.2563 -1.0367
 3266TIP3   OH231288   6.604   4.669   3.722  0.1248 -0.4065  0.0581
 3266TIP3    H131289   6.621   4.638   3.811 -0.8424  0.6182  0.6074
 3266TIP3    H231290   6.565   4.756   3.734 -0.4690 -0.4757 -1.3432
 3267TIP3   OH231291   1.535   1.511  12.541 -0.1612  0.8190 -0.0843
 3267TIP3    H131292   1.590   1.547  12.471  1.5928 -1.4295  0.0985
 3267TIP3    H231293   1.449   1.500  12.500  0.0132  2.4983 -0.9469
 3268TIP3   OH231294   0.938   3.749  13.447 -0.1699 -0.0269  0.0190
 3268TIP3    H131295   0.923   3.689  13.520  0.1638 -1.6554 -1.2259
 3268TIP3    H231296   1.015   3.799  13.474 -0.9412  0.4446  1.4289
 3269TIP3   OH231297   3.898   2.669   2.135 -0.2219 -0.2107 -0.0788
 3269TIP3    H131298   3.857   2.713   2.060 -0.9011 -2.7140 -1.2486
 3269TIP3    H231299   3.888   2.576   2.116  1.5671 -0.8893  2.0951
 3270TIP3   OH231300   3.236   1.806  16.460  0.6116  0.4973 -0.3503
 3270TIP3    H131301   3.303   1.860  16.503  1.1251  1.0010 -1.7353
 3270TIP3    H231302   3.285   1.756  16.394 -0.2779  0.3833 -0.9326
 3271TIP3   OH231303   4.778   2.688  12.620  0.0569 -0.2136  0.6003
 3271TIP3    H131304   4.786   2.750  12.547 -3.0588  0.0870  0.4567
 3271TIP3    H231305   4.823   2.609  12.590 -0.4864  0.1844 -1.2974
 3272TIP3   OH231306   1.804   6.305  17.029  0.0169  0.5424  0.2654
 3272TIP3    H131307   1.710   6.321  17.024  0.2345  2.8279  2.1632
 3272TIP3    H231308   1.844   6.381  16.987  1.0129 -0.6129 -0.8965
 3273TIP3   OH231309   4.177   0.836  12.274  0.0149 -0.6085 -0.0527
 3273TIP3    H131310   4.244   0.889  12.229 -0.6288  1.3806  1.2828
 3273TIP3    H231311   4.109   0.824  12.208  1.1240 -1.5817 -1.0357
 3274TIP3   OH231312   3.769   3.678  16.823  0.7660  0.8134  0.3796
 3274TIP3    H131313   3.752   3.605  16.882  0.5740  0.4801 -0.0805
 3274TIP3    H231314   3.792   3.751  16.880 -0.8074  0.8817  0.9427
 3275TIP3   OH231315   5.411   4.839  14.435  0.7213  0.8113 -0.1625
 3275TIP3    H131316   5.342   4.775  14.453  2.8580 -0.9871  1.8921
 3275TIP3    H231317   5.382   4.882  14.354 -3.1520  0.6466  1.0193
 3276TIP3   OH231318   4.675   1.507   0.639  0.3449  0.4558  0.6858
 3276TIP3    H131319   4.630   1.448   0.579 -0.7696 -0.1561  2.0997
 3276TIP3    H231320   4.675   1.461   0.723  2.1769  1.1588  1.0769
 3277TIP3   OH231321   5.496   4.224  15.816 -0.0106  0.1739  0.2239
 3277TIP3    H131322   5.474   4.254  15.728  0.0470  0.6339  0.3693
 3277TIP3    H231323   5.416   4.236  15.867  0.4989  1.6562  0.7016
 3278TIP3   OH231324   6.142   3.200  12.690  0.0719  0.0965  0.6518
 3278TIP3    H131325   6.151   3.224  12.598 -2.1528  0.6982  0.5628
 3278TIP3    H231326   6.138   3.104  12.689  0.6109  0.0716  0.2006
 3279TIP3   OH231327   4.896   3.432  12.911  0.1331  0.6054  0.5950
 3279TIP3    H131328   4.837   3.358  12.928  0.2261  0.6998  1.3346
 3279TIP3    H231329   4.920   3.422  12.819  0.7612 -0.7262  0.8921
 3280TIP3   OH231330   1.618   5.311   5.251  0.1190  0.0052  0.1608
 3280TIP3    H131331   1.585   5.393   5.289  1.0234  0.8639 -0.8400
 3280TIP3    H231332   1.544   5.275   5.202 -0.1508  0.4778  0.2181
 3281TIP3   OH231333   0.907   3.256   5.212 -0.3567 -0.0971 -0.6867
 3281TIP3    H131334   1.000   3.266   5.192 -0.3339  0.6943 -0.1857
 3281TIP3    H231335   0.869   3.343   5.198 -0.7338 -0.0418  0.5747
 3282TIP3   OH231336   3.427   5.853  15.774 -0.2912 -0.2110 -0.0647
 3282TIP3    H131337   3.508   5.816  15.808  0.0698  0.7178  0.0855
 3282TIP3    H231338   3.453   5.937  15.735 -0.9668 -0.4890 -1.1341
 3283TIP3   OH231339   5.591   4.017  14.958  0.4323 -0.1211 -0.4693
 3283TIP3    H131340   5.546   4.080  14.901 -0.2226 -0.5864 -0.4790
 3283TIP3    H231341   5.520   3.974  15.005  1.1105  3.5414  4.3085
 3284TIP3   OH231342   2.716   0.027  11.043 -0.2671  0.0240  0.0116
 3284TIP3    H131343   2.784   0.044  10.977  2.5424 -1.1110  2.5031
 3284TIP3    H231344   2.750  -0.045  11.095 -2.5655  0.6568  2.5154
 3285TIP3   OH231345   4.716   2.944   3.511  0.7164  0.1340 -0.2892
 3285TIP3    H131346   4.685   3.007   3.445  0.7192 -0.2066 -0.6208
 3285TIP3    H231347   4.660   2.958   3.586 -0.0979 -0.3252 -0.8062
 3286TIP3   OH231348   3.817   4.900  11.144 -0.0288  0.1848  0.2672
 3286TIP3    H131349   3.806   4.853  11.062  1.4490 -2.5737  1.5560
 3286TIP3    H231350   3.833   4.991  11.119  1.0522 -0.7262 -2.5025
 3287TIP3   OH231351   2.010   2.638   1.158 -0.4074  0.5287 -0.3056
 3287TIP3    H131352   1.938   2.576   1.170  1.7440 -2.0293 -0.2548
 3287TIP3    H231353   2.019   2.645   1.063  0.1991 -0.2502 -0.3055
 3288TIP3   OH231354   4.028   1.417  13.468  0.0608 -0.5011  0.0937
 3288TIP3    H131355   4.121   1.439  13.463  0.1662 -0.9509 -0.0156
 3288TIP3    H231356   4.021   1.333  13.422 -0.4769 -0.2447 -0.2941
 3289TIP3   OH231357   0.410   4.459  10.800  0.8531 -0.0714 -0.2052
 3289TIP3    H131358   0.483   4.513  10.768  0.9457  0.8690  1.5549
 3289TIP3    H231359   0.345   4.523  10.831  0.9807 -0.9821  1.9532
 3290TIP3   OH231360   4.357   2.518   1.857  0.5072  0.6313 -0.0927
 3290TIP3    H131361   4.280   2.563   1.823 -0.7796 -1.7584 -0.5073
 3290TIP3    H231362   4.427   2.539   1.794 -0.0735  1.9133 -0.3227
 3291TIP3   OH231363   3.778   3.477  17.023  0.3939  0.5348  0.0406
 3291TIP3    H131364   3.785   3.466  17.118  0.7644  0.9811  0.0666
 3291TIP3    H231365   3.866   3.455  16.990  0.4217  0.9280 -0.1467
 3292TIP3   OH231366   3.984   1.498   1.264 -0.2197  0.3038 -0.3052
 3292TIP3    H131367   4.059   1.548   1.296  0.3898 -1.3107  0.8611
 3292TIP3    H231368   3.997   1.494   1.169  2.0092 -1.2320  0.0256
 3293TIP3   OH231369   5.209   0.174   2.619  0.0422 -0.5589  0.5688
 3293TIP3    H131370   5.256   0.142   2.542 -0.5769 -3.1245  1.2327
 3293TIP3    H231371   5.160   0.250   2.587  0.9615 -0.6710 -1.1950
 3294TIP3   OH231372   5.876   2.025  12.626  0.0849 -0.5076  0.2316
 3294TIP3    H131373   5.840   2.067  12.548  0.4545 -0.5193  0.0506
 3294TIP3    H231374   5.961   1.992  12.597  0.4975  0.0418  0.8155
 3295TIP3   OH231375   0.897   0.824  12.324 -0.1653 -0.2134 -0.3730
 3295TIP3    H131376   0.916   0.904  12.373 -1.3659  0.5789 -1.1907
 3295TIP3    H231377   0.828   0.780  12.374 -0.3852 -0.1159 -0.5893
 3296TIP3   OH231378   5.045   6.175  11.369  0.0859  0.4728  0.1301
 3296TIP3    H131379   4.977   6.170  11.302  1.4716 -2.6402 -1.1289
 3296TIP3    H231380   5.107   6.240  11.336 -0.8438  1.3071 -0.0181
 3297TIP3   OH231381   3.728   4.296   4.466  0.5450  0.0788  0.0868
 3297TIP3    H131382   3.711   4.211   4.506  0.7092  0.2332  0.4897
 3297TIP3    H231383   3.653   4.350   4.490 -0.8564 -0.6990 -2.3576
 3298TIP3   OH231384   2.287   3.755   0.632  0.1931 -0.1332  0.1022
 3298TIP3    H131385   2.307   3.846   0.612  1.0828  0.1601  2.1567
 3298TIP3    H231386   2.367   3.721   0.673 -0.6356 -1.3947  0.7275
 3299TIP3   OH231387   4.630   1.806  15.103 -0.1408 -0.1788  0.5588
 3299TIP3    H131388   4.597   1.893  15.127  0.2294 -0.0797  0.7224
 3299TIP3    H231389   4.552   1.755  15.083 -0.3779  0.1118  0.7408
 3300TIP3   OH231390   5.657   6.299  13.361  0.1721 -0.0201  0.2980
 3300TIP3    H131391   5.567   6.273  13.343  0.5399 -0.3667 -1.0361
 3300TIP3    H231392   5.648   6.382  13.409 -0.8422  0.1596 -0.1850
 3301TIP3   OH231393   4.254   0.172   4.988  0.7491 -0.2035  0.4034
 3301TIP3    H131394   4.340   0.194   5.023  1.8773  2.5182 -3.8272
 3301TIP3    H231395   4.204   0.253   4.991  0.0293 -0.5307 -1.8725
 3302TIP3   OH231396   4.422   6.316   2.009  0.6348 -0.5324  0.0315
 3302TIP3    H131397   4.386   6.257   1.942  0.2111 -1.3959  1.0093
 3302TIP3    H231398   4.487   6.263   2.054 -0.8482 -0.7682  1.9480
 3303TIP3   OH231399   4.883   5.531  14.573 -0.3222 -0.0328  0.0268
 3303TIP3    H131400   4.889   5.620  14.538  1.3971  0.0910  0.6316
 3303TIP3    H231401   4.933   5.533  14.654 -2.2015 -0.9768  1.2395
 3304TIP3   OH231402   3.784   1.269  12.484 -0.6867  0.1114  0.3981
 3304TIP3    H131403   3.720   1.206  12.450  0.8002 -3.3012  3.6686
 3304TIP3    H231404   3.865   1.247  12.438 -0.5878  0.9465  0.1637
 3305TIP3   OH231405   6.191   5.963  13.209 -0.3939 -0.3270 -0.4718
 3305TIP3    H131406   6.150   5.921  13.285 -0.9693  1.3588  0.1563
 3305TIP3    H231407   6.119   5.978  13.148 -0.6024  1.8831  0.2872
 3306TIP3   OH231408   1.991   3.251  15.190  0.2900 -0.7296 -0.4848
 3306TIP3    H131409   2.059   3.318  15.182 -1.4643  0.9480 -1.8610
 3306TIP3    H231410   2.001   3.197  15.111  1.2150 -1.6360  0.2452
 3307TIP3   OH231411   1.917   6.521  14.848 -0.1061  0.0947  0.1757
 3307TIP3    H131412   1.849   6.538  14.913 -0.2813  0.3982 -0.0877
 3307TIP3    H231413   1.975   6.597  14.853 -1.0610  0.9357 -1.2147
 3308TIP3   OH231414   6.690   6.681  12.382  0.2462 -0.1564 -0.5738
 3308TIP3    H131415   6.665   6.773  12.368 -0.1827 -0.0417  0.8932
 3308TIP3    H231416   6.708   6.648  12.294  0.9460  1.4911 -1.0786
 3309TIP3   OH231417   5.404   0.586  13.996  0.1338  0.2310  0.0991
 3309TIP3    H131418   5.478   0.647  13.989  0.6882 -0.4790 -0.3085
 3309TIP3    H231419   5.368   0.584  13.907 -1.7638  2.2848  0.7880
 3310TIP3   OH231420   5.034   3.509  14.238  0.8156 -0.5007 -0.4711
 3310TIP3    H131421   5.069   3.585  14.190  0.5059 -0.2325 -0.2768
 3310TIP3    H231422   5.000   3.451  14.170 -0.6669  0.4004 -0.5304
 3311TIP3   OH231423   0.915   2.136  10.882 -0.2282  0.1642 -0.1412
 3311TIP3    H131424   0.968   2.174  10.811  2.1235 -1.3827  0.7044
 3311TIP3    H231425   0.865   2.066  10.840 -0.6714  0.8169 -0.7145
 3312TIP3   OH231426   2.787   1.145   3.274 -0.7418  0.2561 -0.4232
 3312TIP3    H131427   2.731   1.095   3.214 -0.2726  0.4760 -1.0488
 3312TIP3    H231428   2.813   1.222   3.224 -0.4353  0.4999  0.1076
 3313TIP3   OH231429   1.252   5.933  15.946 -0.3712  0.1444 -0.6462
 3313TIP3    H131430   1.291   5.982  16.018 -2.8139 -0.4733  1.1672
 3313TIP3    H231431   1.313   5.861  15.930  0.4240  0.5532  0.4794
 3314TIP3   OH231432   0.862   0.756  12.770 -0.7292 -0.0608  0.6266
 3314TIP3    H131433   0.849   0.815  12.695  0.5368 -1.7454 -0.9726
 3314TIP3    H231434   0.793   0.691  12.761  0.6088 -1.4026 -0.2606
 3315TIP3   OH231435   2.501   5.093   2.829  0.3788 -0.4693  0.1321
 3315TIP3    H131436   2.568   5.026   2.810  0.1983 -0.7025  0.3132
 3315TIP3    H231437   2.548   5.160   2.878  0.5140 -0.5702  0.1421
 3316TIP3   OH231438   6.238   1.797  13.364  0.1723 -0.1590 -0.1113
 3316TIP3    H131439   6.256   1.877  13.316 -1.6074 -0.4229 -1.2672
 3316TIP3    H231440   6.273   1.727  13.308 -0.1198 -0.3336 -0.0768
 3317TIP3   OH231441   3.357   0.461   1.878  0.1121 -0.4434 -0.0846
 3317TIP3    H131442   3.385   0.374   1.908  2.7905 -0.0221 -1.2224
 3317TIP3    H231443   3.434   0.497   1.834 -2.2115  0.8865 -3.2078
 3318TIP3   OH231444   4.175   4.433  11.914 -0.4417 -0.6710  0.1460
 3318TIP3    H131445   4.124   4.384  11.850  0.3369  0.4836 -1.3947
 3318TIP3    H231446   4.119   4.507  11.938 -0.0102 -0.0647 -0.6515
 3319TIP3   OH231447   6.466   0.860  16.886 -0.3740 -0.5479 -0.5509
 3319TIP3    H131448   6.419   0.851  16.803  0.3049 -0.3852 -0.9639
 3319TIP3    H231449   6.418   0.928  16.933 -0.4834 -0.2979 -1.0157
 3320TIP3   OH231450   4.921   1.100  12.114  0.1001 -0.6429 -0.3142
 3320TIP3    H131451   5.010   1.130  12.094  0.7487 -2.3893 -0.2227
 3320TIP3    H231452   4.881   1.086  12.029  0.4333 -1.2436 -0.3824
 3321TIP3   OH231453   1.857   5.601  14.811  0.2707  0.2468 -0.0677
 3321TIP3    H131454   1.840   5.674  14.871 -0.1972 -0.1846  0.3314
 3321TIP3    H231455   1.848   5.523  14.865 -0.3022 -0.1519 -0.7352
 3322TIP3   OH231456   5.191   0.208   2.247 -0.0270 -0.1538 -0.3896
 3322TIP3    H131457   5.161   0.287   2.293  0.1323 -0.4928  0.2985
 3322TIP3    H231458   5.143   0.210   2.164 -1.2779 -0.2053  0.3226
 3323TIP3   OH231459   1.719   5.574  15.670 -0.1140  0.0827  0.3540
 3323TIP3    H131460   1.686   5.546  15.755  1.3301 -2.5669  0.1231
 3323TIP3    H231461   1.711   5.496  15.615  0.2237  1.3628 -1.5377
 3324TIP3   OH231462   2.133   3.780  13.750 -0.2493 -0.3145 -0.3979
 3324TIP3    H131463   2.066   3.818  13.693 -0.1101 -2.4796 -2.0731
 3324TIP3    H231464   2.205   3.758  13.691  0.9209 -0.3080  1.0089
 3325TIP3   OH231465   5.719   5.628   4.246  0.2808 -0.0399  0.2282
 3325TIP3    H131466   5.703   5.714   4.208 -0.4897 -0.3720 -0.2182
 3325TIP3    H231467   5.648   5.616   4.309  0.7218 -0.1058  0.7135
 3326TIP3   OH231468   0.143   6.511   1.751 -0.2097 -0.2268 -0.1485
 3326TIP3    H131469   0.061   6.535   1.708  0.3913  0.8847 -0.6710
 3326TIP3    H231470   0.192   6.462   1.684 -0.1061 -0.1971 -0.0942
 3327TIP3   OH231471   4.085   0.707   5.393  0.1318 -0.0145 -0.2262
 3327TIP3    H131472   4.006   0.720   5.340 -0.6217 -2.2679  0.2662
 3327TIP3    H231473   4.072   0.621   5.434  1.9428  0.4863  1.4578
 3328TIP3   OH231474   0.554   3.955  13.474 -0.9939 -0.6054 -0.5639
 3328TIP3    H131475   0.538   3.922  13.562 -1.7485 -0.9647 -0.8280
 3328TIP3    H231476   0.606   3.886  13.432  0.8502  0.3292  0.1281
 3329TIP3   OH231477   6.818   2.330   2.211 -0.1781 -0.2539 -0.0787
 3329TIP3    H131478   6.809   2.317   2.116 -0.6376  0.8023 -0.1815
 3329TIP3    H231479   6.912   2.340   2.225 -0.1143 -0.3593 -0.4246
 3330TIP3   OH231480   0.592   6.031   1.489  0.1761  0.3754  0.0141
 3330TIP3    H131481   0.679   6.033   1.448 -0.1329  0.2155 -0.6446
 3330TIP3    H231482   0.559   5.943   1.469 -0.9023  1.0755 -1.3068
 3331TIP3   OH231483   4.025   2.658  17.104  0.8609 -0.9084  0.0042
 3331TIP3    H131484   4.065   2.614  17.179  0.0928 -0.6707  0.5515
 3331TIP3    H231485   3.995   2.742  17.138 -0.9481 -1.4610 -0.1641
 3332TIP3   OH231486   3.455   2.523  16.925  0.1464  0.0166 -0.1582
 3332TIP3    H131487   3.449   2.539  17.019 -0.5139  0.5483 -0.2928
 3332TIP3    H231488   3.371   2.484  16.901  0.9726 -1.8213 -0.2014
 3333TIP3   OH231489   6.521   0.656  11.472  0.2212 -0.1164  0.5005
 3333TIP3    H131490   6.583   0.592  11.508  0.9254  0.5206  0.4384
 3333TIP3    H231491   6.574   0.712  11.415 -0.0514  1.5006  1.7782
 3334TIP3   OH231492   3.731   2.672  11.343 -0.0424 -0.2411 -0.4173
 3334TIP3    H131493   3.706   2.626  11.263  0.8871  1.0047 -1.4374
 3334TIP3    H231494   3.803   2.729  11.316  0.9255 -0.5253  1.5213
 3335TIP3   OH231495   4.808   3.583  15.573 -0.3054  0.1251  0.2995
 3335TIP3    H131496   4.771   3.656  15.523  1.8079  1.5923  0.7964
 3335TIP3    H231497   4.810   3.615  15.663 -1.3273 -1.3682  0.8585
 3336TIP3   OH231498   0.253   4.161  14.573 -0.0011  0.5622 -0.0420
 3336TIP3    H131499   0.340   4.155  14.611 -0.1506  2.8929  0.7041
 3336TIP3    H231500   0.194   4.137  14.645 -0.0221 -0.3397 -0.3541
 3337TIP3   OH231501   2.902   1.403   1.224 -0.6976  0.0242  0.2373
 3337TIP3    H131502   2.972   1.353   1.183  0.4404  1.2372  0.6631
 3337TIP3    H231503   2.840   1.419   1.153 -0.9108 -1.6617  0.0219
 3338TIP3   OH231504   5.340   5.609  11.881  0.4158 -0.0938  0.3429
 3338TIP3    H131505   5.378   5.541  11.825  2.3682  0.3297  1.1270
 3338TIP3    H231506   5.397   5.613  11.958 -0.5579  1.3564  1.0278
 3339TIP3   OH231507   5.550   2.117   4.632  0.1532 -0.1068  0.0744
 3339TIP3    H131508   5.476   2.085   4.685 -0.2510  0.6354 -0.0264
 3339TIP3    H231509   5.510   2.180   4.572  0.7190 -0.4376 -0.6573
 3340TIP3   OH231510   4.837   4.598  13.680 -0.3065  0.2063 -0.5624
 3340TIP3    H131511   4.780   4.585  13.755  0.5969 -0.3585  0.0323
 3340TIP3    H231512   4.860   4.691  13.683  2.2385 -0.4327  1.7067
 3341TIP3   OH231513   0.290   2.611   1.917  0.7674 -0.2251 -0.3824
 3341TIP3    H131514   0.360   2.548   1.933  2.2515  1.6527  0.8571
 3341TIP3    H231515   0.329   2.675   1.857 -0.6372 -0.3458 -1.4534
 3342TIP3   OH231516   2.850   0.872   3.062  0.1012  0.3710 -0.0892
 3342TIP3    H131517   2.780   0.921   3.104  1.8998  2.6116  0.4351
 3342TIP3    H231518   2.914   0.939   3.036  2.8845 -1.7248  1.1018
 3343TIP3   OH231519   4.480   6.503   6.181 -0.1493  0.2508 -0.3868
 3343TIP3    H131520   4.531   6.460   6.250 -3.3968 -2.2078  0.6039
 3343TIP3    H231521   4.507   6.459   6.100  0.1933 -0.1935 -0.0329
 3344TIP3   OH231522   4.768   3.263  12.282 -0.0156 -0.0016 -0.4325
 3344TIP3    H131523   4.857   3.235  12.307 -0.4616 -0.5862  0.5230
 3344TIP3    H231524   4.778   3.294  12.192  1.4690  1.3779  0.1712
 3345TIP3   OH231525   3.332   5.474   1.246 -0.0743  0.2862  0.0747
 3345TIP3    H131526   3.401   5.409   1.238 -1.0526 -0.6914 -0.5394
 3345TIP3    H231527   3.374   5.557   1.223  1.0707 -0.1908  0.4369
 3346TIP3   OH231528   2.288   6.399  12.595  0.5490  0.2162 -0.6506
 3346TIP3    H131529   2.316   6.471  12.651  1.9124 -0.2368 -0.7449
 3346TIP3    H231530   2.353   6.330  12.608 -0.0292 -0.5218 -1.5346
 3347TIP3   OH231531   4.431   4.912   1.378  0.3591  0.3786 -0.1346
 3347TIP3    H131532   4.515   4.865   1.382 -0.6993 -1.5530 -0.1428
 3347TIP3    H231533   4.412   4.935   1.469  0.1448 -0.5230  0.0473
 3348TIP3   OH231534   2.609   1.301  12.042  0.3018  0.0487  0.2468
 3348TIP3    H131535   2.697   1.335  12.059 -0.1062  0.8387  0.7907
 3348TIP3    H231536   2.552   1.378  12.046 -0.3569 -0.3957 -0.5390
 3349TIP3   OH231537   5.700   6.541   1.755 -0.3202  0.1158  0.0302
 3349TIP3    H131538   5.779   6.538   1.700 -0.0149 -3.0867  0.5308
 3349TIP3    H231539   5.733   6.564   1.842 -0.3688  1.8184 -0.3803
 3350TIP3   OH231540   1.995   1.185   1.946  0.4428 -0.1958 -0.6644
 3350TIP3    H131541   1.985   1.096   1.914  3.4664 -0.4686 -1.0519
 3350TIP3    H231542   1.988   1.240   1.868  0.8872 -0.3005 -0.7809
 3351TIP3   OH231543   1.517   5.234  14.212  0.1146 -0.0339  0.6959
 3351TIP3    H131544   1.597   5.208  14.165  0.4385 -0.2146  1.3474
 3351TIP3    H231545   1.548   5.283  14.288 -0.4716  1.5269 -0.0575
 3352TIP3   OH231546   6.423   4.453   1.202 -0.1701 -0.9775 -0.1061
 3352TIP3    H131547   6.384   4.525   1.153 -0.9200 -1.4812 -0.2698
 3352TIP3    H231548   6.517   4.461   1.186 -0.1926  0.3052  0.3564
 3353TIP3   OH231549   2.155   4.753  15.845  0.3584  0.3722  0.1794
 3353TIP3    H131550   2.132   4.803  15.923 -0.1096  2.8574 -1.4997
 3353TIP3    H231551   2.087   4.774  15.781  2.3051  0.7146 -1.8699
 3354TIP3   OH231552   1.168   2.671   3.928  0.5049  0.3184  0.4420
 3354TIP3    H131553   1.075   2.690   3.934  0.7204  1.7831 -0.4376
 3354TIP3    H231554   1.183   2.602   3.991 -1.0779  0.4676  0.9968
 3355TIP3   OH231555   0.485   3.593  12.928 -0.3946  0.3084 -0.0614
 3355TIP3    H131556   0.504   3.658  12.861 -0.0640  0.8250  0.5205
 3355TIP3    H231557   0.525   3.513  12.896 -0.1879  0.5684 -0.4518
 3356TIP3   OH231558   5.272   4.668   1.053  0.0289  0.1347 -0.3356
 3356TIP3    H131559   5.224   4.721   0.990 -0.9194 -1.5248 -1.0592
 3356TIP3    H231560   5.229   4.583   1.050  2.3320 -1.0843 -0.1928
 3357TIP3   OH231561   4.975   0.563   1.778 -0.5609  0.4140 -0.5306
 3357TIP3    H131562   4.919   0.516   1.839 -0.4113  0.8637 -0.0405
 3357TIP3    H231563   4.947   0.655   1.786 -0.5088  0.4811 -1.0996
 3358TIP3   OH231564   3.857   0.972  17.004  0.1161 -0.3404  0.0155
 3358TIP3    H131565   3.807   0.983  16.923  1.0380 -2.4518 -0.8760
 3358TIP3    H231566   3.802   1.011  17.072 -2.0634 -1.2363 -1.1807
 3359TIP3   OH231567   4.636   0.658  13.951 -0.2570  0.4704 -0.5621
 3359TIP3    H131568   4.712   0.703  13.989 -0.1512  0.1366 -0.3777
 3359TIP3    H231569   4.566   0.723  13.953 -0.5992  0.0924  1.3426
 3360TIP3   OH231570   4.182   3.279   5.188 -0.2902 -0.3648  0.3064
 3360TIP3    H131571   4.097   3.278   5.145 -1.5257 -0.9296  2.7174
 3360TIP3    H231572   4.232   3.211   5.142 -1.3738 -0.5412 -0.6405
 3361TIP3   OH231573   1.669   1.609  11.520 -0.1205 -0.5163  0.5800
 3361TIP3    H131574   1.597   1.550  11.541 -0.8067  0.0579 -0.1160
 3361TIP3    H231575   1.668   1.616  11.425 -2.0163  2.9936  0.7691
 3362TIP3   OH231576   6.160   3.454   4.505 -0.1927  0.4288  0.0288
 3362TIP3    H131577   6.155   3.529   4.564 -1.0708  0.7084 -0.3891
 3362TIP3    H231578   6.102   3.476   4.432  2.5283  1.0117 -2.0275
 3363TIP3   OH231579   6.176   6.331  12.256 -0.0710  0.3122 -0.4790
 3363TIP3    H131580   6.257   6.299  12.297 -0.5937 -0.6607 -0.1808
 3363TIP3    H231581   6.186   6.426  12.253  1.1781  0.1865 -0.6336
 3364TIP3   OH231582   5.730   0.243  14.137  0.8019 -0.4502  0.1483
 3364TIP3    H131583   5.698   0.250  14.227  1.4001 -1.2000  0.4309
 3364TIP3    H231584   5.727   0.332  14.103  1.5960  0.0261  1.2767
 3365TIP3   OH231585   0.568   1.644  12.171 -0.2986 -0.5546  0.4043
 3365TIP3    H131586   0.490   1.596  12.200 -1.9954  3.0258  2.0376
 3365TIP3    H231587   0.638   1.615  12.230 -0.9343 -2.0106  0.4666
 3366TIP3   OH231588   4.960   2.896  12.099 -0.0800 -0.3662  0.2436
 3366TIP3    H131589   4.959   2.876  12.006 -1.8069  1.5791 -0.2004
 3366TIP3    H231590   4.869   2.888  12.127  0.2775 -0.0490  1.5602
 3367TIP3   OH231591   4.925   1.061  11.346  0.2900 -0.5106 -0.2751
 3367TIP3    H131592   4.861   1.011  11.396  2.5881 -0.6817  2.6244
 3367TIP3    H231593   4.908   1.152  11.369 -0.8114 -0.2877 -1.8645
 3368TIP3   OH231594   3.205   3.451  14.130 -0.2055  0.2783 -0.1226
 3368TIP3    H131595   3.134   3.388  14.143 -0.5876  0.7681  0.1445
 3368TIP3    H231596   3.277   3.415  14.182 -0.3417 -0.0740 -0.1743
 3369TIP3   OH231597   0.729   2.686   0.080 -0.2685  0.1700 -0.3014
 3369TIP3    H131598   0.720   2.611   0.022 -1.6400 -0.0725  0.2059
 3369TIP3    H231599   0.651   2.682   0.136 -0.5869  2.2372 -0.5773
 3370TIP3   OH231600   4.839   1.933   0.235 -0.1563  0.0173  0.0153
 3370TIP3    H131601   4.831   1.966   0.325 -0.5346  0.2390 -0.0966
 3370TIP3    H231602   4.797   1.847   0.237 -0.6458  0.2542 -0.0738
 3371TIP3   OH231603   4.364   1.317   1.542 -0.1969 -0.0927 -0.4041
 3371TIP3    H131604   4.430   1.380   1.513  0.1711 -0.0405  0.5401
 3371TIP3    H231605   4.317   1.293   1.462  0.3512  0.5803 -0.9315
 3372TIP3   OH231606   5.842   2.374   4.695  0.3936  0.0796 -0.1564
 3372TIP3    H131607   5.899   2.347   4.767 -1.7118 -0.0647  1.5224
 3372TIP3    H231608   5.889   2.349   4.616  2.5501 -0.1930  1.1724
 3373TIP3   OH231609   2.481   4.466  16.413  0.2318  0.0807 -0.0490
 3373TIP3    H131610   2.521   4.400  16.469  0.1254 -0.1459 -0.2407
 3373TIP3    H231611   2.447   4.532  16.474 -1.8265 -1.2417  0.2930
 3374TIP3   OH231612   4.292   1.503  14.065 -0.5155  0.2717  0.1474
 3374TIP3    H131613   4.258   1.488  13.977  1.4280  0.0214 -0.5910
 3374TIP3    H231614   4.294   1.417  14.105  0.8420  0.0280 -0.4200
 3375TIP3   OH231615   5.202   3.136   6.230 -0.1304 -0.1310 -0.2664
 3375TIP3    H131616   5.272   3.200   6.247  0.6586 -1.0886  0.1333
 3375TIP3    H231617   5.146   3.141   6.307  1.9572 -2.5367  1.4741
 3376TIP3   OH231618   5.563   4.026   4.390  0.0270 -0.1161 -0.0072
 3376TIP3    H131619   5.551   4.041   4.296  0.7805  2.6389  0.2972
 3376TIP3    H231620   5.477   4.000   4.421 -1.1568  2.6531 -0.8328
 3377TIP3   OH231621   6.547   1.245  12.353  0.5557  0.5574 -0.0389
 3377TIP3    H131622   6.623   1.261  12.409  0.7583  1.7331 -0.6437
 3377TIP3    H231623   6.584   1.213  12.271  0.4516  1.7449 -0.5613
 3378TIP3   OH231624   1.690   2.810  11.655  0.3730 -0.2178 -0.6703
 3378TIP3    H131625   1.746   2.737  11.682  0.6146  0.1741 -0.0894
 3378TIP3    H231626   1.741   2.857  11.590  0.6376  0.0330 -0.2792
 3379TIP3   OH231627   6.566   1.934   0.486  0.0318 -0.4894 -0.0652
 3379TIP3    H131628   6.553   1.853   0.436  2.4396 -0.9535 -0.0261
 3379TIP3    H231629   6.528   1.916   0.572 -0.5330 -1.1372 -0.4474
 3380TIP3   OH231630   5.802   3.757  16.004  0.4155  0.0978  0.6849
 3380TIP3    H131631   5.725   3.766  15.948  0.4969  1.1094  0.7204
 3380TIP3    H231632   5.873   3.795  15.953  0.8605 -0.6600  0.7318
 3381TIP3   OH231633   0.940   3.622  11.231  0.5545  0.1249  0.5069
 3381TIP3    H131634   1.024   3.590  11.266  0.7395 -0.8102 -0.7550
 3381TIP3    H231635   0.897   3.662  11.307  0.7219 -2.2977  1.9508
 3382TIP3   OH231636   1.324   1.921  12.565 -0.2331  0.7913  0.0812
 3382TIP3    H131637   1.311   1.827  12.554  0.6462  0.5025  1.4297
 3382TIP3    H231638   1.389   1.944  12.500 -0.8511  0.5742 -0.6201
 3383TIP3   OH231639   0.975   2.148   5.820  0.2278 -0.3029 -0.0283
 3383TIP3    H131640   1.028   2.183   5.891 -2.1625  0.2959  1.5143
 3383TIP3    H231641   0.922   2.080   5.860 -1.0717 -0.0316 -1.2492
 3384TIP3   OH231642   0.207   1.756  17.248  0.2841  0.3114  0.2903
 3384TIP3    H131643   0.267   1.801  17.307 -0.7957  0.0241  1.6315
 3384TIP3    H231644   0.121   1.766  17.289 -0.5019  0.1822 -1.2736
 3385TIP3   OH231645   5.080   1.769   0.926 -0.2087 -0.4074  0.4796
 3385TIP3    H131646   5.109   1.687   0.887 -0.4825 -0.0137 -0.5745
 3385TIP3    H231647   5.124   1.837   0.875  0.6861  0.1052  1.8781
 3386TIP3   OH231648   1.903   0.254   3.244 -0.0318  0.7248 -0.1770
 3386TIP3    H131649   1.952   0.337   3.239  1.1298  0.0875  0.5114
 3386TIP3    H231650   1.947   0.197   3.182 -1.7504  1.0677 -1.7479
 3387TIP3   OH231651   0.273   2.002   2.053  0.0368 -0.4189 -0.4876
 3387TIP3    H131652   0.183   1.970   2.046  0.5612 -1.6875 -1.8567
 3387TIP3    H231653   0.326   1.923   2.057  0.9682  0.3086  2.6035
 3388TIP3   OH231654   4.502   0.772  14.201 -0.0655 -0.3915 -0.1859
 3388TIP3    H131655   4.501   0.863  14.231  0.0918 -0.2920 -0.4861
 3388TIP3    H231656   4.469   0.776  14.111  1.8607 -0.3807 -0.9080
 3389TIP3   OH231657   2.341   1.963  16.206  0.1411 -0.3806  0.3728
 3389TIP3    H131658   2.426   1.920  16.194  0.1119  0.2756 -2.5321
 3389TIP3    H231659   2.277   1.893  16.195  0.0939  0.2874 -4.3530
 3390TIP3   OH231660   4.583   3.383   3.051 -0.0650  0.0519  0.7747
 3390TIP3    H131661   4.658   3.325   3.037  0.7931  1.6267 -1.4316
 3390TIP3    H231662   4.582   3.399   3.145  1.0878 -1.6589  1.1010
 3391TIP3   OH231663   2.919   0.791   0.567 -0.0254 -0.4221  0.5452
 3391TIP3    H131664   3.000   0.804   0.616  0.4038  2.4765 -0.8437
 3391TIP3    H231665   2.946   0.787   0.476 -1.2771 -1.3581  0.1955
 3392TIP3   OH231666   1.115   2.436   6.581 -0.3177  0.5411  0.3908
 3392TIP3    H131667   1.174   2.493   6.632 -0.8318  0.9824  0.4953
 3392TIP3    H231668   1.123   2.468   6.491  1.1008 -0.6660  0.0621
 3393TIP3   OH231669   1.579   1.219   0.732  0.1942  0.2721 -0.0142
 3393TIP3    H131670   1.593   1.309   0.761  1.6369 -0.2885  1.0870
 3393TIP3    H231671   1.550   1.173   0.810  1.6348 -0.6960 -0.0319
 3394TIP3   OH231672   2.250   5.832   5.675 -0.3875 -0.6162 -0.0853
 3394TIP3    H131673   2.254   5.769   5.603  1.3242 -0.6841  0.0356
 3394TIP3    H231674   2.315   5.800   5.738 -0.4412  0.5428  0.5738
 3395TIP3   OH231675   4.555   0.964  12.913  0.1968 -0.5638  0.0043
 3395TIP3    H131676   4.506   0.972  12.995  0.2145  0.1536 -0.0479
 3395TIP3    H231677   4.571   0.870  12.903  0.9584 -0.5770  1.2738
 3396TIP3   OH231678   5.736   4.650   0.107  0.1739  1.1474 -0.5646
 3396TIP3    H131679   5.685   4.694   0.039  0.4534  1.5105 -0.5363
 3396TIP3    H231680   5.678   4.649   0.183 -0.0797  0.8810 -0.7584
 3397TIP3   OH231681   3.627   2.359   5.187 -0.0418  0.4811 -0.4251
 3397TIP3    H131682   3.597   2.269   5.172 -1.1513  0.9643 -1.1173
 3397TIP3    H231683   3.564   2.395   5.249  1.9982 -0.0891  2.1190
 3398TIP3   OH231684   5.591   4.828  11.852 -0.4527  0.1142 -0.0549
 3398TIP3    H131685   5.546   4.748  11.823 -1.4433  0.7880 -0.4131
 3398TIP3    H231686   5.584   4.825  11.948 -1.0770  0.1010 -0.0972
 3399TIP3   OH231687   6.593   3.393   4.582  0.3864  0.6016 -0.1775
 3399TIP3    H131688   6.561   3.404   4.492  0.3229  0.9280 -0.1148
 3399TIP3    H231689   6.684   3.424   4.578  0.5570  0.1013 -0.2526
 3400TIP3   OH231690   4.176   0.405   0.507  0.1629  0.1033 -0.2182
 3400TIP3    H131691   4.258   0.388   0.553  0.3406 -0.5806 -0.7819
 3400TIP3    H231692   4.194   0.382   0.416 -0.8961 -0.8186 -0.2062
 3401TIP3   OH231693   3.304   3.275   6.448 -0.0503 -0.1510  0.0237
 3401TIP3    H131694   3.325   3.239   6.362  2.1117 -0.1631  0.5278
 3401TIP3    H231695   3.357   3.223   6.509  1.4722  2.4251  0.9656
 3402TIP3   OH231696   2.691   2.968   3.766 -0.4064  0.0077 -0.3868
 3402TIP3    H131697   2.761   2.957   3.702  0.7413  0.9280  0.6773
 3402TIP3    H231698   2.612   2.940   3.720  0.7803 -1.9954 -1.2944
 3403TIP3   OH231699   2.230   0.142   3.676 -0.5024 -0.1657  0.3077
 3403TIP3    H131700   2.267   0.192   3.749 -1.2570  0.9271 -0.0464
 3403TIP3    H231701   2.285   0.064   3.671  0.2814  0.3006  1.3033
 3404TIP3   OH231702   4.107   3.393  14.708 -0.0976 -0.3898  0.0954
 3404TIP3    H131703   4.019   3.383  14.745 -0.6234  0.9132 -0.7515
 3404TIP3    H231704   4.097   3.461  14.642  1.9216  1.0303  1.1976
 3405TIP3   OH231705   1.623   0.568   3.465  0.1281 -0.6346  0.6410
 3405TIP3    H131706   1.602   0.478   3.491 -0.3505 -0.9580 -0.8281
 3405TIP3    H231707   1.677   0.558   3.387  2.5081  0.2927  2.1169
 3406TIP3   OH231708   5.715   0.691  13.778 -0.5053 -0.6816 -0.0412
 3406TIP3    H131709   5.781   0.726  13.838  1.0749 -0.5096 -1.8112
 3406TIP3    H231710   5.727   0.596  13.783 -0.5930 -0.6830  0.1527
 3407TIP3   OH231711   3.611   0.160  11.711  0.2621  0.4384  0.0486
 3407TIP3    H131712   3.604   0.194  11.622 -0.1680  0.0316 -0.0811
 3407TIP3    H231713   3.527   0.115  11.725 -0.8045  2.8239  1.6376
 3408TIP3   OH231714   0.394   5.775   1.725 -0.2739 -0.1193 -0.1110
 3408TIP3    H131715   0.447   5.763   1.646 -0.5906 -0.4250 -0.2809
 3408TIP3    H231716   0.390   5.869   1.738 -0.9121 -0.0332 -0.9311
 3409TIP3   OH231717   3.161   4.332  11.778 -0.1841 -0.1218 -0.0919
 3409TIP3    H131718   3.206   4.405  11.820 -0.6658  0.7967 -1.1324
 3409TIP3    H231719   3.068   4.353  11.788 -0.3842 -1.6758  1.4730
 3410TIP3   OH231720   3.685   1.140   4.674  0.5143 -0.1058 -0.5022
 3410TIP3    H131721   3.595   1.170   4.688 -0.4667 -3.0793 -0.0112
 3410TIP3    H231722   3.707   1.170   4.586 -0.1104  2.6131  0.2382
 3411TIP3   OH231723   2.016   6.139  17.112 -0.0997 -0.1951 -0.7375
 3411TIP3    H131724   2.071   6.136  17.034  0.7987  2.0558 -0.2211
 3411TIP3    H231725   1.937   6.186  17.084  0.0112  0.1788 -0.4250
 3412TIP3   OH231726   5.627   6.020  16.311  0.1090  0.4137 -0.2818
 3412TIP3    H131727   5.615   5.946  16.371  0.5535  2.1764  2.0411
 3412TIP3    H231728   5.635   6.096  16.368  2.0555  1.9708 -2.5275
 3413TIP3   OH231729   2.573   6.733  15.143 -0.0891  0.3523  0.0689
 3413TIP3    H131730   2.605   6.731  15.053  0.0611  0.0630  0.1282
 3413TIP3    H231731   2.613   6.657  15.185 -1.7728 -0.6942 -0.1772
 3414TIP3   OH231732   0.931   6.172  15.393  0.1341  0.1187  0.7945
 3414TIP3    H131733   0.884   6.218  15.324 -0.1867 -0.4530  0.6299
 3414TIP3    H231734   0.869   6.168  15.466 -0.8193 -2.3879 -0.1001
 3415TIP3   OH231735   1.807   5.402  15.009 -0.1328 -0.1645 -0.0334
 3415TIP3    H131736   1.857   5.321  15.007  0.2181  0.0442  0.1351
 3415TIP3    H231737   1.829   5.442  15.093  0.1839  0.4008 -0.3757
 3416TIP3   OH231738   6.495   4.220   5.121  0.3523  0.2685 -0.2671
 3416TIP3    H131739   6.474   4.138   5.167  0.4875  1.2909  1.6896
 3416TIP3    H231740   6.586   4.237   5.146 -0.2322  1.9286  0.7767
 3417TIP3   OH231741   4.842   1.533   5.679 -0.0898 -0.5221 -0.2570
 3417TIP3    H131742   4.926   1.558   5.719 -0.5763  0.7064  0.0338
 3417TIP3    H231743   4.867   1.488   5.599  0.8997 -2.5505  1.1277
 3418TIP3   OH231744   2.248   2.606   4.729  0.3797 -0.2139 -0.5262
 3418TIP3    H131745   2.286   2.675   4.674 -2.1063  1.3436 -0.3807
 3418TIP3    H231746   2.233   2.533   4.669 -0.3447  0.7134 -1.4973
 3419TIP3   OH231747   2.113   1.998   1.121 -0.0929 -0.6559  0.0349
 3419TIP3    H131748   2.020   1.987   1.138 -0.2519 -0.3491 -0.6523
 3419TIP3    H231749   2.120   2.080   1.072  0.3482 -1.5981 -1.5061
 3420TIP3   OH231750   2.755   6.673   5.043  0.4901 -0.1587 -0.3410
 3420TIP3    H131751   2.679   6.701   4.991 -1.7125  0.4298  2.9813
 3420TIP3    H231752   2.748   6.578   5.047 -2.2656  0.0583  2.8421
 3421TIP3   OH231753   6.502   3.324  16.608 -0.1613 -0.7484  0.1889
 3421TIP3    H131754   6.546   3.349  16.690  0.4609 -1.8265  0.1934
 3421TIP3    H231755   6.515   3.399  16.550 -1.0026  0.2145  1.2222
 3422TIP3   OH231756   2.285   1.020   3.964 -0.2195 -0.1476  0.2907
 3422TIP3    H131757   2.365   1.044   3.917 -0.2955 -1.8802 -0.7785
 3422TIP3    H231758   2.214   1.052   3.908 -0.2982 -1.5415 -0.4414
 3423TIP3   OH231759   4.557   2.571  11.944 -0.1069  0.0732  0.2301
 3423TIP3    H131760   4.544   2.588  12.037 -0.7092  0.7632  0.0236
 3423TIP3    H231761   4.615   2.494  11.941 -0.3761 -0.1672  1.1645
 3424TIP3   OH231762   5.479   1.821  12.007 -0.1243  0.1833 -0.3885
 3424TIP3    H131763   5.448   1.851  12.092 -0.6550 -0.8788 -0.1925
 3424TIP3    H231764   5.558   1.771  12.026 -0.0227  0.2757 -0.5646
 3425TIP3   OH231765   6.709   4.666  12.660  0.0256  0.9511  0.0994
 3425TIP3    H131766   6.623   4.658  12.700  0.1446 -0.7283  0.0884
 3425TIP3    H231767   6.769   4.678  12.734  0.0773 -0.6644  0.3410
 3426TIP3   OH231768   5.576   4.325   2.790 -0.3518 -0.8658 -0.3316
 3426TIP3    H131769   5.550   4.365   2.873 -0.7657 -1.6895 -0.0581
 3426TIP3    H231770   5.494   4.314   2.741  0.0087  0.5389 -1.2682
 3427TIP3   OH231771   1.569   0.384   1.703  0.0866  0.5528 -0.4618
 3427TIP3    H131772   1.518   0.304   1.699  1.2043 -0.1423 -1.0488
 3427TIP3    H231773   1.550   0.421   1.789 -0.6658 -0.1858 -0.3073
 3428TIP3   OH231774   2.732   6.158  12.361 -0.2176 -0.2190 -0.6611
 3428TIP3    H131775   2.749   6.068  12.332 -0.1176  0.6365 -3.4269
 3428TIP3    H231776   2.818   6.192  12.384 -0.2008 -0.6950 -0.0094
 3429TIP3   OH231777   2.183   1.183   2.516  0.0852 -0.6997 -0.3173
 3429TIP3    H131778   2.133   1.264   2.504  1.9317  0.9277  2.4614
 3429TIP3    H231779   2.152   1.125   2.446 -2.6641  1.7047 -1.1902
 3430TIP3   OH231780   2.340   1.650   2.927 -0.3033 -0.1742 -0.0186
 3430TIP3    H131781   2.354   1.556   2.917  1.6361  0.0106  0.6395
 3430TIP3    H231782   2.427   1.688   2.917 -1.1470  1.6081 -0.7807
 3431TIP3   OH231783   4.883   0.195  15.417  0.3802  0.0429 -0.2070
 3431TIP3    H131784   4.941   0.270  15.429 -3.7660  3.2264  0.9129
 3431TIP3    H231785   4.823   0.198  15.492 -1.0072 -3.3781 -1.0447
 3432TIP3   OH231786   2.473   4.914   5.184  0.0871  0.6497 -0.2300
 3432TIP3    H131787   2.409   4.952   5.244  0.2353  0.2955  0.1584
 3432TIP3    H231788   2.547   4.975   5.186 -0.1623  0.9618 -0.5360
 3433TIP3   OH231789   3.368   5.813   0.455 -0.1414  0.1427  0.9276
 3433TIP3    H131790   3.354   5.817   0.549 -1.2264  0.3590  0.7595
 3433TIP3    H231791   3.288   5.772   0.420  0.7727 -1.0930  0.2286
 3434TIP3   OH231792   0.893   1.834   2.400 -0.0563 -0.4279 -0.5862
 3434TIP3    H131793   0.824   1.885   2.443  2.1054  0.1117  2.3822
 3434TIP3    H231794   0.973   1.856   2.448  1.8624 -2.5834 -2.6535
 3435TIP3   OH231795   1.809   2.103   2.675 -0.1877 -0.4457  0.3988
 3435TIP3    H131796   1.807   2.195   2.649 -0.5984 -0.8996 -1.2430
 3435TIP3    H231797   1.898   2.088   2.705 -0.1025  0.4820  0.6006
 3436TIP3   OH231798   4.811   0.536   6.191 -0.0145  0.6848 -0.1533
 3436TIP3    H131799   4.733   0.499   6.232  0.6369  0.0132  0.4965
 3436TIP3    H231800   4.874   0.544   6.263  1.5305 -1.5250 -1.2213
 3437TIP3   OH231801   3.915   5.918   3.959 -0.2221  0.2457 -0.0828
 3437TIP3    H131802   3.824   5.943   3.976 -0.4997 -0.0370 -1.1011
 3437TIP3    H231803   3.913   5.881   3.870  0.0870 -3.7688  1.4652
 3438TIP3   OH231804   3.721   1.127  13.359  0.2121 -0.5272 -0.2620
 3438TIP3    H131805   3.641   1.181  13.362  0.7775  0.5252 -2.8192
 3438TIP3    H231806   3.781   1.171  13.420 -0.5622 -0.3066  0.3497
 3439TIP3   OH231807   2.692   3.137  12.153 -0.3271 -0.0169 -0.2498
 3439TIP3    H131808   2.603   3.173  12.146 -0.3478 -0.3473 -2.0447
 3439TIP3    H231809   2.749   3.209  12.123  0.0048  0.1618  0.8028
 3440TIP3   OH231810   6.346   2.577   0.549  0.5983 -0.8196  0.4519
 3440TIP3    H131811   6.279   2.510   0.536  0.2727 -0.3447 -0.3738
 3440TIP3    H231812   6.310   2.635   0.616 -0.6083  0.4316 -1.2358
 3441TIP3   OH231813   4.270   2.140  12.876 -0.8955 -0.1222  0.2316
 3441TIP3    H131814   4.177   2.155  12.864 -1.0039 -0.6667  0.3870
 3441TIP3    H231815   4.309   2.157  12.790 -1.1208  0.2130  0.1987
 3442TIP3   OH231816   2.184   2.717  13.672  0.1821 -0.1465  0.3276
 3442TIP3    H131817   2.254   2.780  13.688  0.8348 -0.6000 -0.6645
 3442TIP3    H231818   2.208   2.641  13.725  0.3486 -0.2345  0.1267
 3443TIP3   OH231819   2.852   4.288   4.394  0.3759  0.1893 -0.3530
 3443TIP3    H131820   2.809   4.211   4.357  2.2015 -0.4444 -1.2015
 3443TIP3    H231821   2.782   4.353   4.401 -1.2654 -1.6580  0.7438
 3444TIP3   OH231822   4.311   6.371   5.963 -0.1030  0.1390  0.4271
 3444TIP3    H131823   4.327   6.353   6.056  1.0617  1.2131  0.4557
 3444TIP3    H231824   4.217   6.386   5.958 -0.2801 -0.6176  1.3093
 3445TIP3   OH231825   6.791   2.163  15.328  0.0200 -0.0668 -0.3635
 3445TIP3    H131826   6.748   2.101  15.388  1.2719 -0.8900 -0.2903
 3445TIP3    H231827   6.720   2.220  15.298 -1.0181 -1.0294  0.1954
 3446TIP3   OH231828   2.504   0.424  13.428 -0.5369  0.7026 -0.4048
 3446TIP3    H131829   2.515   0.519  13.433  0.3836  0.4857  2.3144
 3446TIP3    H231830   2.456   0.401  13.507  1.2927 -1.3571  0.1726
 3447TIP3   OH231831   6.053   0.262   2.975 -0.6643 -0.1620 -0.1035
 3447TIP3    H131832   6.075   0.174   2.944 -3.1192 -0.4820 -0.9949
 3447TIP3    H231833   6.120   0.318   2.935 -0.5377 -1.3088 -1.5421
 3448TIP3   OH231834   6.734   0.018   5.429  0.0000  0.7404 -0.0434
 3448TIP3    H131835   6.784   0.007   5.510  0.1036 -1.3272 -0.3393
 3448TIP3    H231836   6.791   0.069   5.372  1.6742 -1.2329 -0.2184
 3449TIP3   OH231837   5.532   2.450   2.613  0.1350 -0.2959 -0.0523
 3449TIP3    H131838   5.495   2.390   2.548 -1.6543  0.6570  0.0670
 3449TIP3    H231839   5.515   2.537   2.578  0.8472  0.1903  0.7965
 3450TIP3   OH231840   2.642   0.850   2.381 -0.7097 -0.8724 -0.1458
 3450TIP3    H131841   2.571   0.894   2.428 -1.3639  1.5973 -3.2695
 3450TIP3    H231842   2.719   0.904   2.398 -0.8247 -0.3026 -1.4299
 3451TIP3   OH231843   0.641   1.530  13.246 -0.7036 -0.9373  0.1653
 3451TIP3    H131844   0.607   1.498  13.162  0.2344 -1.3909 -0.0480
 3451TIP3    H231845   0.734   1.508  13.245 -0.8422 -1.6940  1.6780
 3452TIP3   OH231846   6.164   4.506   0.796 -0.0045 -0.5329  0.5362
 3452TIP3    H131847   6.121   4.527   0.879 -1.5564 -1.6492  0.0513
 3452TIP3    H231848   6.169   4.589   0.749  2.2123  0.3895  2.3103
 3453TIP3   OH231849   0.685   3.231   0.839  0.1271  0.2020  0.1040
 3453TIP3    H131850   0.665   3.307   0.893 -2.4050  0.2885 -0.8903
 3453TIP3    H231851   0.663   3.258   0.750  0.9552 -1.0928 -0.5108
 3454TIP3   OH231852   6.629   0.000   6.034  0.3132  0.0707  0.0111
 3454TIP3    H131853   6.614  -0.079   5.983  0.5285 -0.6396  1.0305
 3454TIP3    H231854   6.561  -0.001   6.101 -0.5393  1.4755 -0.8063
 3455TIP3   OH231855   0.864   5.517   1.761 -0.0516  0.9837 -0.1992
 3455TIP3    H131856   0.834   5.510   1.851  0.8267 -0.4719  0.0018
 3455TIP3    H231857   0.959   5.524   1.767  0.4151 -3.0996 -1.0935
 3456TIP3   OH231858   6.723   1.268  14.046  0.0411 -0.0965 -0.1602
 3456TIP3    H131859   6.704   1.201  14.112  0.6476  0.3535  0.4774
 3456TIP3    H231860   6.642   1.319  14.040  0.4846  0.8278  1.3834
 3457TIP3   OH231861   6.544   6.089   0.848  0.0606  0.1096 -0.2570
 3457TIP3    H131862   6.489   6.060   0.774 -1.8242  0.6426  0.9108
 3457TIP3    H231863   6.503   6.169   0.879  0.4133 -0.4899  1.8356
 3458TIP3   OH231864   0.853   0.370  12.244 -0.1379  0.1737 -0.1946
 3458TIP3    H131865   0.898   0.360  12.160  2.6833 -0.6461  1.3478
 3458TIP3    H231866   0.904   0.436  12.291 -1.5447  0.4683  0.9762
 3459TIP3   OH231867   0.014   5.023  11.925  0.1037  0.0320  0.0467
 3459TIP3    H131868   0.098   4.980  11.943 -0.0443 -0.3351 -0.1375
 3459TIP3    H231869  -0.010   5.064  12.007 -0.1545 -0.9212  0.4501
 3460TIP3   OH231870   2.690   3.273  11.876 -0.1328 -0.5264  0.0688
 3460TIP3    H131871   2.777   3.291  11.911 -0.2670 -1.3168  0.8261
 3460TIP3    H231872   2.691   3.180  11.856 -0.5875 -0.4028 -0.5637
 3461TIP3   OH231873   0.117   2.138   3.050  0.1021  0.4799  0.1968
 3461TIP3    H131874   0.082   2.093   3.127  1.3023 -0.5331  0.1671
 3461TIP3    H231875   0.057   2.115   2.980 -0.4552  0.6155  0.6241
 3462TIP3   OH231876   1.951   3.305  15.464  0.0752  0.6726  0.1105
 3462TIP3    H131877   1.898   3.382  15.444 -0.2112  0.1867 -1.0423
 3462TIP3    H231878   1.979   3.273  15.378 -0.0967 -0.7063  0.5606
 3463TIP3   OH231879   0.969   2.782   1.856  0.1899 -0.2413  0.6582
 3463TIP3    H131880   1.011   2.866   1.836  0.4581 -0.4698  0.2653
 3463TIP3    H231881   1.039   2.728   1.891  0.3607 -0.8171 -0.5497
 3464TIP3   OH231882   0.554   0.939   5.420  0.9952 -0.3385  0.2717
 3464TIP3    H131883   0.499   0.957   5.344 -1.5647  1.3914  2.4256
 3464TIP3    H231884   0.514   0.862   5.461  0.5678  0.4895  1.4477
 3465TIP3   OH231885   0.233   5.431  12.226  0.0362  0.2091 -0.3484
 3465TIP3    H131886   0.196   5.401  12.309 -0.3000 -2.2419 -1.3201
 3465TIP3    H231887   0.303   5.491  12.250  0.0872 -0.6423  1.7127
 3466TIP3   OH231888   1.746   4.158  13.159  0.4373 -0.0269  0.8890
 3466TIP3    H131889   1.669   4.114  13.122 -0.0031  0.5151  1.1490
 3466TIP3    H231890   1.729   4.251  13.144  0.7434  0.1327  1.5290
 3467TIP3   OH231891   5.432   3.764   2.402 -0.6385 -0.0105  0.3066
 3467TIP3    H131892   5.505   3.703   2.390  0.9913  1.9475 -0.0355
 3467TIP3    H231893   5.389   3.765   2.316  1.0408  1.4287 -0.5549
 3468TIP3   OH231894   2.708   0.080  10.539 -0.4503 -0.0868 -0.4367
 3468TIP3    H131895   2.629   0.038  10.504 -1.5067 -0.2983  2.1311
 3468TIP3    H231896   2.777   0.014  10.527 -1.4435 -1.3476  0.6195
 3469TIP3   OH231897   2.264   6.644   2.056 -0.3135 -0.3758  0.0702
 3469TIP3    H131898   2.346   6.623   2.012  0.5828  2.0651  0.4581
 3469TIP3    H231899   2.256   6.739   2.047 -2.1107 -0.3349  1.7442
 3470TIP3   OH231900   3.733   2.231   4.397 -0.5661  0.0356  0.3793
 3470TIP3    H131901   3.823   2.209   4.420 -0.4710 -0.8092 -0.7371
 3470TIP3    H231902   3.733   2.325   4.384 -0.1062  0.2013  1.4904
 3471TIP3   OH231903   0.756   0.289   2.253 -0.6267  0.4403  0.0498
 3471TIP3    H131904   0.735   0.209   2.302  0.3096  0.4115  0.3994
 3471TIP3    H231905   0.766   0.260   2.162 -2.2345  0.4738 -0.1669
 3472TIP3   OH231906   5.173   0.563  12.103  0.1698 -0.6562 -0.8888
 3472TIP3    H131907   5.254   0.553  12.153 -0.8603 -1.6297  0.6673
 3472TIP3    H231908   5.165   0.657  12.088 -0.7961  0.0242  3.1372
 3473TIP3   OH231909   2.481   0.049   0.111 -0.1565 -0.2774 -0.3114
 3473TIP3    H131910   2.466   0.090   0.025  0.1645 -1.4143 -0.9181
 3473TIP3    H231911   2.530   0.115   0.160  0.4460  0.0389 -1.3055
 3474TIP3   OH231912   4.580   2.775  13.876  0.0221 -1.1489 -0.5663
 3474TIP3    H131913   4.643   2.843  13.901 -0.7761 -0.6900  0.2507
 3474TIP3    H231914   4.527   2.816  13.808 -2.3868  0.1550  1.9903
 3475TIP3   OH231915   0.403   1.212  12.554  0.0053 -0.3582  0.7913
 3475TIP3    H131916   0.428   1.186  12.643 -2.1124 -0.6429  1.3299
 3475TIP3    H231917   0.332   1.276  12.566 -0.5857 -0.7065 -0.6798
 3476TIP3   OH231918   0.856   5.695   4.609 -0.6384 -0.5650 -0.3725
 3476TIP3    H131919   0.810   5.613   4.589 -0.5482 -0.9719  1.0868
 3476TIP3    H231920   0.795   5.743   4.665 -0.8728  0.5623 -1.5747
 3477TIP3   OH231921   1.724   5.014  12.890  0.5880 -0.8267 -0.0310
 3477TIP3    H131922   1.679   5.097  12.877  1.4632 -0.0588  1.7446
 3477TIP3    H231923   1.654   4.948  12.887 -0.1553 -0.0039 -1.0615
 3478TIP3   OH231924   2.575   5.252  14.151  0.4904 -0.1224  0.7277
 3478TIP3    H131925   2.648   5.222  14.205  2.0248 -0.2484 -1.3723
 3478TIP3    H231926   2.543   5.173  14.107 -2.0421 -0.3753  2.8883
 3479TIP3   OH231927   5.278   5.437  16.438  0.6225 -0.0018 -0.0283
 3479TIP3    H131928   5.323   5.398  16.363 -0.4448 -2.6560  0.6320
 3479TIP3    H231929   5.257   5.526  16.410  1.0654 -0.6473 -2.5370
 3480TIP3   OH231930   4.448   3.334   4.780 -0.2281 -0.2913 -0.1167
 3480TIP3    H131931   4.369   3.342   4.727 -1.0767 -2.8554  0.7149
 3480TIP3    H231932   4.442   3.406   4.843 -2.1426 -0.7322  0.2306
 3481TIP3   OH231933   6.071   4.524   1.217 -0.1893 -0.1851 -0.2147
 3481TIP3    H131934   6.051   4.437   1.185 -1.1046  0.3231 -1.0283
 3481TIP3    H231935   6.079   4.578   1.138 -2.3302  1.0432  0.3823
 3482TIP3   OH231936   1.470   0.009   5.979 -0.2588  0.1976 -0.5635
 3482TIP3    H131937   1.482  -0.069   5.924 -0.5612  0.0714 -0.4464
 3482TIP3    H231938   1.549   0.062   5.962  0.3365 -0.5088 -0.0175
 3483TIP3   OH231939   3.930   3.843  14.116 -0.3188 -0.5169 -1.0844
 3483TIP3    H131940   4.024   3.848  14.130 -0.2122 -1.7805 -1.2838
 3483TIP3    H231941   3.914   3.900  14.041  0.0033  1.2222  0.1438
 3484TIP3   OH231942   3.678   0.151   4.218  0.6289  0.1875 -0.9700
 3484TIP3    H131943   3.598   0.133   4.169  0.4480  0.8747 -0.9348
 3484TIP3    H231944   3.726   0.069   4.217  0.4561  0.0950 -1.9890
 3485TIP3   OH231945   1.395   1.108  14.976  0.6247 -0.0533  0.2112
 3485TIP3    H131946   1.463   1.153  15.027  0.4910  1.3291 -0.7969
 3485TIP3    H231947   1.436   1.092  14.891  0.4782 -1.3605  0.3757
 3486TIP3   OH231948   4.441   6.232   1.139 -0.1117  0.4676  0.4269
 3486TIP3    H131949   4.502   6.159   1.128 -2.9482 -1.9253  0.0060
 3486TIP3    H231950   4.451   6.259   1.230  0.0322 -1.3123  0.9533
 3487TIP3   OH231951   1.205   5.124   2.458 -0.1452 -0.7697  0.0995
 3487TIP3    H131952   1.170   5.212   2.441  0.9436  0.2291  2.7559
 3487TIP3    H231953   1.129   5.074   2.487 -0.3981 -0.1713  0.4711
 3488TIP3   OH231954   6.224   5.534  14.075 -0.4705 -0.1247 -0.3645
 3488TIP3    H131955   6.173   5.594  14.021  0.1448 -0.1865 -1.0205
 3488TIP3    H231956   6.159   5.479  14.119 -1.0475  1.1465  0.3939
 3489TIP3   OH231957   3.188   2.108   2.880  0.1252 -0.1137 -0.6922
 3489TIP3    H131958   3.195   2.101   2.785 -1.9699 -0.8697 -0.8072
 3489TIP3    H231959   3.097   2.134   2.896  0.7580  1.1247  1.0618
 3490TIP3   OH231960   5.191   2.747  12.951 -0.2417  0.3014  0.2789
 3490TIP3    H131961   5.285   2.753  12.934 -0.5238  0.4816 -1.3002
 3490TIP3    H231962   5.150   2.790  12.876 -1.6071 -0.3435  0.6340
 3491TIP3   OH231963   0.462   4.064   6.647  0.4333 -0.3843 -0.3438
 3491TIP3    H131964   0.446   3.985   6.698  1.2172  0.0522  0.5943
 3491TIP3    H231965   0.388   4.122   6.669 -1.7371 -1.8859 -3.2333
 3492TIP3   OH231966   6.628   1.568  13.962  0.3738  0.3771 -0.5407
 3492TIP3    H131967   6.535   1.550  13.945  0.3168  0.8454 -0.7056
 3492TIP3    H231968   6.669   1.573  13.876  0.4848  0.5417 -0.4796
 3493TIP3   OH231969   2.298   4.119  14.897  0.5143 -0.3184  1.0014
 3493TIP3    H131970   2.219   4.167  14.872  0.9987 -0.7256 -1.4036
 3493TIP3    H231971   2.361   4.137  14.827  2.0339 -1.2618  2.0929
 3494TIP3   OH231972   6.669   1.069  13.197 -0.7489  0.3766  0.3005
 3494TIP3    H131973   6.696   1.118  13.119  2.5560  1.1075  1.8525
 3494TIP3    H231974   6.592   1.116  13.230 -0.4287  1.7507 -0.8708
 3495TIP3   OH231975   5.661   6.060  14.284  0.4883  0.3110 -0.2551
 3495TIP3    H131976   5.601   6.134  14.270  0.6404  0.8992  1.9267
 3495TIP3    H231977   5.722   6.064  14.211 -0.6602  1.1993 -1.1872
 3496TIP3   OH231978   2.385   6.307  15.402 -0.0753  0.1760 -0.2611
 3496TIP3    H131979   2.380   6.212  15.413 -0.8814  0.0036 -1.8998
 3496TIP3    H231980   2.458   6.321  15.341 -0.7687  0.5010 -1.0307
 3497TIP3   OH231981   2.816   2.697  15.360 -0.4190  0.3913  0.6737
 3497TIP3    H131982   2.881   2.680  15.427 -0.5790 -1.1172  0.4799
 3497TIP3    H231983   2.866   2.724  15.283 -0.0548 -0.2601  0.6804
 3498TIP3   OH231984   3.870   0.711  15.557  0.1278  0.0168 -0.5217
 3498TIP3    H131985   3.794   0.661  15.586 -1.5883  0.9405 -3.2911
 3498TIP3    H231986   3.841   0.802  15.558  1.4603  0.4568 -0.8568
 3499TIP3   OH231987   2.349   2.708  16.245  0.3900  0.0959  0.2833
 3499TIP3    H131988   2.368   2.681  16.155 -1.1307  0.0612 -0.0471
 3499TIP3    H231989   2.390   2.794  16.253 -1.9519  1.4538 -1.4434
 3500TIP3   OH231990   3.991   4.690   1.324  0.2581 -0.9018  0.4903
 3500TIP3    H131991   3.905   4.684   1.281  0.5654 -1.2521 -0.0723
 3500TIP3    H231992   3.976   4.653   1.411  0.0998 -1.9955  0.0126
 3501TIP3   OH231993   2.485   2.695   2.604 -0.5157 -0.1657 -0.0682
 3501TIP3    H131994   2.410   2.706   2.663 -0.2818 -1.2352  0.4423
 3501TIP3    H231995   2.464   2.751   2.529 -0.8467  1.1575  0.9841
 3502TIP3   OH231996   1.784   4.376  12.359 -0.0145 -0.4048  0.1304
 3502TIP3    H131997   1.862   4.388  12.303  1.4205 -1.2937  1.8852
 3502TIP3    H231998   1.817   4.329  12.435 -2.2003 -0.3000  1.1595
 3503TIP3   OH231999   5.726   2.840   5.518 -0.5030  0.2932  0.0329
 3503TIP3    H132000   5.806   2.867   5.563 -0.2688 -0.2957 -0.0167
 3503TIP3    H232001   5.671   2.804   5.587  0.4380 -1.9426 -0.3427
 3504TIP3   OH232002   4.191   2.141   2.046 -0.1637 -0.4306  0.6907
 3504TIP3    H132003   4.220   2.227   2.075 -1.1219  0.1666 -0.0743
 3504TIP3    H232004   4.258   2.112   1.984  0.0528 -0.1397  0.7928
 3505TIP3   OH232005   5.971   2.413  16.766 -0.9835 -0.3836 -0.9033
 3505TIP3    H132006   6.035   2.360  16.719  0.7146 -0.4814  1.4728
 3505TIP3    H232007   5.944   2.360  16.840 -1.2666  1.0159  0.0256
 3506TIP3   OH232008   3.384   5.950  14.979 -0.5560  0.2347  0.9196
 3506TIP3    H132009   3.379   5.983  15.068 -2.2432  1.6654  0.3357
 3506TIP3    H232010   3.308   5.990  14.935  1.9909  2.1098 -1.9602
 3507TIP3   OH232011   6.288   0.865   1.715  0.2391  0.2010  0.2450
 3507TIP3    H132012   6.209   0.846   1.765 -0.1975 -0.6957 -0.7749
 3507TIP3    H232013   6.281   0.811   1.636  1.3866  0.8573 -0.3292
 3508TIP3   OH232014   2.531   1.556  10.766 -0.3690 -0.3863  0.4678
 3508TIP3    H132015   2.490   1.555  10.853  1.9563 -1.9384  1.6331
 3508TIP3    H232016   2.463   1.524  10.707 -1.6041 -0.5512  1.9408
 3509TIP3   OH232017   1.412   2.163   0.019  0.2035  0.1614 -0.3844
 3509TIP3    H132018   1.425   2.255  -0.003  2.6132  0.2445  1.1871
 3509TIP3    H232019   1.433   2.158   0.113 -3.0024 -1.4180  0.3361
 3510TIP3   OH232020   5.215   4.864   5.261  0.0159  0.1763 -0.0838
 3510TIP3    H132021   5.189   4.840   5.350  0.8431  0.3272  0.2059
 3510TIP3    H232022   5.196   4.958   5.255  1.0693  0.4233  0.3415
 3511TIP3   OH232023   0.695   1.019   0.625  0.0442 -0.0149 -0.4740
 3511TIP3    H132024   0.727   1.108   0.641 -0.0045  0.1911 -1.4742
 3511TIP3    H232025   0.753   0.963   0.675  0.9522  0.4780 -0.9657
 3512TIP3   OH232026   5.090   6.133   4.447 -0.0097  0.3746 -0.3879
 3512TIP3    H132027   5.093   6.078   4.369 -0.1993 -0.2385  0.0310
 3512TIP3    H232028   5.167   6.190   4.439  1.4234 -1.4224  0.2259
 3513TIP3   OH232029   5.848   4.700  11.316 -0.1546  0.0528  0.2785
 3513TIP3    H132030   5.940   4.690  11.293 -0.0938  2.9910 -0.8856
 3513TIP3    H232031   5.801   4.668  11.238 -0.1013 -0.2693  0.3775
 3514TIP3   OH232032   1.235   1.272   0.877  0.1102  0.4186 -0.2882
 3514TIP3    H132033   1.168   1.340   0.872 -0.0784  0.2899  0.4773
 3514TIP3    H232034   1.221   1.218   0.799 -1.2529 -0.1523  0.3383
 3515TIP3   OH232035   4.441   5.754  12.813 -0.0500 -0.1994 -0.2313
 3515TIP3    H132036   4.532   5.764  12.787 -0.2006  0.0802 -0.6560
 3515TIP3    H232037   4.418   5.665  12.785 -0.4359  0.3662 -1.7670
 3516TIP3   OH232038   0.426   5.393   2.765 -0.3609  0.0179 -0.0982
 3516TIP3    H132039   0.349   5.401   2.821 -1.1836 -0.5126 -1.1307
 3516TIP3    H232040   0.409   5.315   2.712  0.3130  0.6137 -1.2179
 3517TIP3   OH232041   3.168   4.685   2.889 -0.5680  0.7600  0.0425
 3517TIP3    H132042   3.246   4.740   2.898  0.0716 -0.2152  0.6609
 3517TIP3    H232043   3.200   4.605   2.848 -0.8492 -0.4358  2.0692
 3518TIP3   OH232044   1.629   3.967   2.094 -0.1820  0.0871  0.2646
 3518TIP3    H132045   1.556   3.974   2.032 -0.4892 -0.2694  0.5823
 3518TIP3    H232046   1.654   3.875   2.091  0.4773  0.2732 -0.0866
 3519TIP3   OH232047   0.533   6.709  12.004  0.1685  0.3242 -0.1215
 3519TIP3    H132048   0.490   6.772  11.946 -0.7433  1.6547  1.9394
 3519TIP3    H232049   0.464   6.646  12.026  0.1471  0.5909  0.5813
 3520TIP3   OH232050   6.043   2.302   5.337 -1.0577 -0.0555 -0.0277
 3520TIP3    H132051   5.966   2.265   5.380 -0.1025 -2.5263 -0.3633
 3520TIP3    H232052   6.087   2.227   5.298  1.6088  1.3010  0.2587
 3521TIP3   OH232053   6.651   5.255  14.465 -0.2678  0.7918  0.3687
 3521TIP3    H132054   6.716   5.302  14.412  0.9611 -0.0096  1.1489
 3521TIP3    H232055   6.623   5.320  14.530  0.5850  0.8246  0.7214
 3522TIP3   OH232056   3.503   1.763   4.261  0.0782 -0.1414  0.0643
 3522TIP3    H132057   3.564   1.834   4.278  1.3755 -0.8780 -1.4094
 3522TIP3    H232058   3.421   1.790   4.304  0.0950  2.9007 -1.7447
 3523TIP3   OH232059   1.241   4.755   2.437 -0.2380  1.0293 -0.4490
 3523TIP3    H132060   1.326   4.796   2.454  0.0519  0.6940 -1.0829
 3523TIP3    H232061   1.250   4.715   2.351 -0.7748  0.2911 -0.1677
 3524TIP3   OH232062   0.808   3.972   6.473 -0.5803  0.3237 -0.3295
 3524TIP3    H132063   0.831   3.896   6.525 -0.8588  0.8977  0.6386
 3524TIP3    H232064   0.867   3.968   6.398  0.0806 -0.3058  0.2189
 3525TIP3   OH232065   4.136   5.475  15.058 -0.2268 -0.4272  0.2207
 3525TIP3    H132066   4.172   5.557  15.092  3.3627 -1.4968 -0.7549
 3525TIP3    H232067   4.125   5.491  14.964  0.2949 -0.9990  0.0638
 3526TIP3   OH232068   4.645   2.788   2.135 -0.3253 -0.4032  0.3320
 3526TIP3    H132069   4.555   2.820   2.141  0.3764  1.8422 -0.4968
 3526TIP3    H232070   4.639   2.705   2.087 -1.9154 -0.1748  0.1276
 3527TIP3   OH232071   2.399   3.631  14.718  0.0995 -0.5857 -0.8052
 3527TIP3    H132072   2.342   3.556  14.701  0.8559 -1.8557  1.9428
 3527TIP3    H232073   2.488   3.597  14.705  0.4168  0.0298 -0.2741
 3528TIP3   OH232074   5.667   2.551  13.706  0.1633  0.2371  1.0313
 3528TIP3    H132075   5.695   2.642  13.704  0.6208  0.0938  0.8291
 3528TIP3    H232076   5.571   2.555  13.700  0.2986  0.6222 -1.1709
 3529TIP3   OH232077   1.994   3.155  17.047  0.3002 -0.1475 -0.0115
 3529TIP3    H132078   2.042   3.154  17.130  0.5843  2.2408 -0.0974
 3529TIP3    H232079   1.975   3.063  17.029  1.6729 -0.8376  1.8647
 3530TIP3   OH232080   0.582   3.068  16.941  0.4035 -0.0503 -0.3748
 3530TIP3    H132081   0.662   3.120  16.934 -0.6430  1.6092 -0.0909
 3530TIP3    H232082   0.555   3.053  16.850  2.5232 -2.9896 -0.5775
 3531TIP3   OH232083   3.813   5.110   0.484 -0.1467 -0.2119 -0.1610
 3531TIP3    H132084   3.901   5.139   0.461 -0.3395  1.6056  1.2415
 3531TIP3    H232085   3.826   5.042   0.551  0.1966  0.1829  0.1772
 3532TIP3   OH232086   2.369   3.911  11.123  0.2788 -0.0197  0.5051
 3532TIP3    H132087   2.391   3.915  11.030  0.7021  0.7232  0.6341
 3532TIP3    H232088   2.434   3.852  11.161  0.5325  0.2282  0.4530
 3533TIP3   OH232089   1.048   0.813  17.002  0.0875  0.1318  0.0822
 3533TIP3    H132090   1.018   0.902  16.984 -1.0333 -0.3799 -0.6812
 3533TIP3    H232091   0.989   0.758  16.950  1.6485 -0.9746 -0.5409
 3534TIP3   OH232092   6.502   5.315   3.431  0.0265 -0.2331 -0.0638
 3534TIP3    H132093   6.508   5.238   3.374 -0.4870 -0.6353  0.4164
 3534TIP3    H232094   6.409   5.339   3.429  0.1655  0.2959 -0.1091
 3535TIP3   OH232095   0.513   3.709  15.290 -0.0363 -0.4037  0.3575
 3535TIP3    H132096   0.500   3.775  15.223 -2.5181 -0.6539  0.5133
 3535TIP3    H232097   0.450   3.640  15.268  1.1530 -1.8321  1.2896
 3536TIP3   OH232098   3.278   0.804  13.355 -0.0328 -0.1108  0.5290
 3536TIP3    H132099   3.194   0.760  13.348  0.0696 -0.3124  0.5571
 3536TIP3    H232100   3.343   0.734  13.347  0.1395  0.0889  0.1265
 3537TIP3   OH232101   0.717   1.937  10.742 -0.6249 -0.1791  0.2482
 3537TIP3    H132102   0.647   1.925  10.806  0.1702  3.1766  1.8454
 3537TIP3    H232103   0.685   2.006  10.683 -0.9954 -2.6310 -2.5664
 3538TIP3   OH232104   2.091   2.037   1.422  0.9390 -0.3045  0.0147
 3538TIP3    H132105   2.101   1.954   1.468 -1.6760 -1.2335 -0.9713
 3538TIP3    H232106   2.040   2.015   1.343 -0.4082  2.3069  0.0896
 3539TIP3   OH232107   0.791   0.583   5.399  0.3033 -0.1338 -0.1588
 3539TIP3    H132108   0.818   0.616   5.314 -0.4254  1.6733  0.2969
 3539TIP3    H232109   0.835   0.641   5.462 -2.3852  1.0990  0.6289
 3540TIP3   OH232110   5.471   6.344   5.572 -0.4784  0.0964 -0.1097
 3540TIP3    H132111   5.563   6.319   5.569 -0.1671  1.3562 -1.4173
 3540TIP3    H232112   5.423   6.261   5.569  0.6231 -0.7777  3.9766
 3541TIP3   OH232113   1.287   2.897   5.633  0.1516 -0.3563  0.5893
 3541TIP3    H132114   1.372   2.887   5.677  0.2420 -1.1741  0.2360
 3541TIP3    H232115   1.308   2.903   5.540 -0.2005 -0.9226  0.4706
 3542TIP3   OH232116   0.432   5.140  14.897 -0.2616  0.4418  0.7405
 3542TIP3    H132117   0.449   5.235  14.895  0.8115  0.2746  1.4114
 3542TIP3    H232118   0.497   5.104  14.837 -0.8994  0.1632  0.2206
 3543TIP3   OH232119   4.896   3.099  14.975  0.6895  0.3676 -0.9792
 3543TIP3    H132120   4.952   3.037  15.021  0.5623 -0.1071 -1.4690
 3543TIP3    H232121   4.807   3.074  15.000  0.6689  0.9553 -0.4157
 3544TIP3   OH232122   3.568   0.420   3.319  0.1282 -0.1519  0.0049
 3544TIP3    H132123   3.622   0.484   3.272 -0.1035  1.3165  1.7078
 3544TIP3    H232124   3.502   0.393   3.254  0.5014  0.9878 -0.8647
 3545TIP3   OH232125   0.301   5.359   5.660 -0.3584  0.3734  0.2530
 3545TIP3    H132126   0.349   5.356   5.577  0.4169  1.7031  0.6475
 3545TIP3    H232127   0.233   5.292   5.651  1.9120 -1.9627 -0.1139
 3546TIP3   OH232128   2.819   3.671   5.523 -0.3811 -0.4599 -0.8502
 3546TIP3    H132129   2.879   3.603   5.554 -1.9255 -1.0526  0.8956
 3546TIP3    H232130   2.736   3.652   5.566 -0.5213  3.3406  0.7640
 3547TIP3   OH232131   2.509   5.931   2.988  0.0793 -0.5730  0.0200
 3547TIP3    H132132   2.566   6.008   2.989 -0.5495 -0.1163  0.4830
 3547TIP3    H232133   2.541   5.880   2.913  1.6600 -0.7440  0.7768
 3548TIP3   OH232134   5.407   3.596   2.731 -0.4775  0.3559  0.3035
 3548TIP3    H132135   5.328   3.608   2.785 -1.3164  0.3746 -0.9135
 3548TIP3    H232136   5.400   3.507   2.698  0.1514  0.2708  0.3945
 3549TIP3   OH232137   3.581   4.143  16.230  0.1128  0.1670 -0.7081
 3549TIP3    H132138   3.611   4.054  16.249 -0.2505  0.5099  1.5762
 3549TIP3    H232139   3.485   4.136  16.225 -0.0776  0.8106  1.6920
 3550TIP3   OH232140   5.643   2.041  14.163  0.6865  0.0375  0.2575
 3550TIP3    H132141   5.552   2.012  14.173  0.6566  0.2620  0.6166
 3550TIP3    H232142   5.639   2.136  14.164  0.7606  0.0706 -1.1924
 3551TIP3   OH232143   1.209   5.435   3.494  0.2462 -0.0958 -0.4562
 3551TIP3    H132144   1.126   5.444   3.447  1.1539 -1.1703 -2.3013
 3551TIP3    H232145   1.190   5.375   3.566 -0.5634 -0.3086 -0.8453
 3552TIP3   OH232146   4.078   3.406  12.840 -0.4388  0.3990  0.4203
 3552TIP3    H132147   3.990   3.414  12.876 -0.3719 -0.6269  0.8514
 3552TIP3    H232148   4.136   3.422  12.915 -0.2694  0.6257  0.2407
 3553TIP3   OH232149   2.386   1.565   4.687  0.0207  0.0693  0.2688
 3553TIP3    H132150   2.444   1.612   4.628  3.1401 -1.3314  2.1125
 3553TIP3    H232151   2.401   1.472   4.669  0.5112 -0.3722  2.7248
 3554TIP3   OH232152   4.069   2.134  13.089 -0.1553 -0.1845  0.8518
 3554TIP3    H132153   3.998   2.085  13.130 -0.4213 -0.0034  0.6074
 3554TIP3    H232154   4.033   2.164  13.005 -0.2249  0.9999  1.2871
 3555TIP3   OH232155   6.399   6.101   2.906  0.3164  0.7687  0.2450
 3555TIP3    H132156   6.313   6.092   2.864  1.1598  1.8092 -1.7753
 3555TIP3    H232157   6.460   6.107   2.834  2.2210 -0.8294  1.6780
 3556TIP3   OH232158   6.094   5.466  16.717 -0.0138  0.4242 -0.1058
 3556TIP3    H132159   6.042   5.482  16.796 -0.6598 -1.0770 -0.2064
 3556TIP3    H232160   6.032   5.426  16.655  0.8522  0.1560 -0.8108
 3557TIP3   OH232161   4.122   2.120   3.341  0.0207 -0.1014  0.4171
 3557TIP3    H132162   4.165   2.205   3.348 -1.7832  0.8402  0.3341
 3557TIP3    H232163   4.068   2.126   3.263 -1.6084 -0.6145  1.4645
 3558TIP3   OH232164   5.189   4.714  13.347  0.2151  0.3723 -0.1018
 3558TIP3    H132165   5.166   4.724  13.439  0.9810  0.6593  0.0658
 3558TIP3    H232166   5.187   4.619  13.331  1.5343  0.2081  0.6062
 3559TIP3   OH232167   4.840   0.693  11.658  0.0320  0.0471  0.1195
 3559TIP3    H132168   4.902   0.648  11.600  0.6387 -0.2556  1.0006
 3559TIP3    H232169   4.805   0.764  11.604  1.7899  0.7668 -0.0972
 3560TIP3   OH232170   2.463   6.362   3.150  0.2791 -0.4085 -0.1585
 3560TIP3    H132171   2.496   6.277   3.180  1.8219  0.1126 -0.3051
 3560TIP3    H232172   2.542   6.409   3.121 -0.6642  0.7186 -0.9487
 3561TIP3   OH232173   2.943   6.058   1.084  0.5193 -0.2121  0.3792
 3561TIP3    H132174   2.863   6.073   1.034 -0.8971 -4.2802  1.1840
 3561TIP3    H232175   2.931   6.109   1.164 -0.4707  0.6243 -0.2896
 3562TIP3   OH232176   2.952   3.984  16.568  0.1950 -0.5226  0.3052
 3562TIP3    H132177   3.044   3.956  16.577  0.4668  0.6360  1.1171
 3562TIP3    H232178   2.913   3.966  16.653 -0.2809 -0.7732  0.0360
 3563TIP3   OH232179   5.770   0.943  12.040 -0.4946  0.0673  0.2804
 3563TIP3    H132180   5.693   0.934  11.984  0.6491 -2.2374 -1.0197
 3563TIP3    H232181   5.773   0.862  12.090  0.9734  0.1993  0.4323
 3564TIP3   OH232182   5.415   4.276   2.273 -0.7196  0.2758 -0.4809
 3564TIP3    H132183   5.500   4.251   2.235 -0.5670  0.4305 -0.2411
 3564TIP3    H232184   5.410   4.226   2.355 -0.2695  1.2675  0.1621
 3565TIP3   OH232185   0.388   0.128   2.028  0.4252 -0.0305  0.0188
 3565TIP3    H132186   0.452   0.121   2.099 -0.2402  0.9574  0.7300
 3565TIP3    H232187   0.308   0.090   2.064 -0.1675  1.2966  0.1165
 3566TIP3   OH232188   2.990   0.849  12.215 -0.0729  0.8751 -0.0293
 3566TIP3    H132189   3.012   0.757  12.205 -1.3314  0.6068 -0.4756
 3566TIP3    H232190   2.967   0.859  12.307  0.8423  0.9232  0.1960
 3567TIP3   OH232191   2.028   1.432  12.000 -0.2483  0.3751  0.0077
 3567TIP3    H132192   1.935   1.411  12.000 -0.6486  2.0765  0.2399
 3567TIP3    H232193   2.061   1.395  12.082 -0.7512 -0.0791  0.0035
 3568TIP3   OH232194   4.135   0.107   2.949  0.3221 -0.4083 -0.1225
 3568TIP3    H132195   4.078   0.108   2.872  2.2436  0.5704 -1.5986
 3568TIP3    H232196   4.139   0.198   2.977  0.4575 -0.6059  0.5015
 3569TIP3   OH232197   4.089   0.665  11.074  0.3834 -0.2096 -0.4534
 3569TIP3    H132198   4.062   0.574  11.061 -0.5566  0.1098 -0.7665
 3569TIP3    H232199   4.113   0.671  11.166  2.7548 -1.3746 -0.9508
 3570TIP3   OH232200   1.432   1.806   0.142 -0.1340 -0.1477  0.4981
 3570TIP3    H132201   1.494   1.736   0.163 -0.3763 -0.2287  0.9501
 3570TIP3    H232202   1.351   1.760   0.121  0.2502 -0.1050 -1.2171
 3571TIP3   OH232203   0.240   0.539  13.276 -0.5210 -0.0655  0.1284
 3571TIP3    H132204   0.157   0.577  13.305  0.9597  0.5689  3.8892
 3571TIP3    H232205   0.263   0.477  13.346  1.1094 -1.8444 -1.9117
 3572TIP3   OH232206   3.890   4.713  17.223 -0.0354 -0.8079 -0.0928
 3572TIP3    H132207   3.962   4.650  17.228 -0.2166 -1.0498 -0.5085
 3572TIP3    H232208   3.871   4.720  17.129 -2.1197 -2.5055  0.1702
 3573TIP3   OH232209   0.732   0.393  14.187  0.3132  0.5202 -0.0533
 3573TIP3    H132210   0.742   0.338  14.110 -1.5620  0.3361 -0.1908
 3573TIP3    H232211   0.778   0.474  14.165  0.9364 -0.0376 -0.8286
 3574TIP3   OH232212   5.933   4.508  16.517 -0.6358 -0.3604  0.5388
 3574TIP3    H132213   5.850   4.548  16.489  0.5339  1.8628  0.0661
 3574TIP3    H232214   5.975   4.576  16.571  0.5529 -1.7283  1.3766
 3575TIP3   OH232215   3.987   5.428   2.771  0.1733  0.2290  0.6822
 3575TIP3    H132216   3.977   5.418   2.865  0.8968 -1.4347  0.5970
 3575TIP3    H232217   4.058   5.368   2.747 -0.0231  0.6013 -0.9138
 3576TIP3   OH232218   3.765   5.429   5.417  0.0703 -0.2552 -0.4780
 3576TIP3    H132219   3.739   5.473   5.498  0.3998 -1.3045  0.2182
 3576TIP3    H232220   3.860   5.439   5.414 -0.0542  0.7273 -1.3076
 3577TIP3   OH232221   2.201   2.494  15.947  0.0566  0.3844  0.5218
 3577TIP3    H132222   2.295   2.506  15.964  0.2009 -0.0588  0.0372
 3577TIP3    H232223   2.166   2.583  15.944  0.6682  0.5981 -0.4727
 3578TIP3   OH232224   0.378   1.032   3.654  0.2497 -0.4794  0.1268
 3578TIP3    H132225   0.324   0.961   3.689  0.1131 -0.4147  0.0460
 3578TIP3    H232226   0.357   1.035   3.561 -0.5427  0.3654  0.3164
 3579TIP3   OH232227   4.391   3.264   3.517  0.4511  0.0774 -0.2257
 3579TIP3    H132228   4.321   3.297   3.462  2.4531  3.9939 -0.6144
 3579TIP3    H232229   4.459   3.235   3.456  1.8615  2.6098  0.0279
 3580TIP3   OH232230   6.446   4.502  13.069  0.3676  0.1447  0.1311
 3580TIP3    H132231   6.495   4.577  13.101  1.4001  0.4719 -2.1335
 3580TIP3    H232232   6.506   4.428  13.079  0.0736 -0.0469  0.5065
 3581TIP3   OH232233   1.308   6.599  13.086 -0.4845  0.5027  0.6644
 3581TIP3    H132234   1.245   6.586  13.157 -3.2157 -0.3748 -1.8022
 3581TIP3    H232235   1.337   6.511  13.063 -0.8189  0.6389 -0.3123
 3582TIP3   OH232236   2.175   6.341  17.238 -0.5276 -0.2084 -0.1092
 3582TIP3    H132237   2.130   6.260  17.215  1.2704 -1.6814  1.4004
 3582TIP3    H232238   2.223   6.366  17.160 -2.0261  0.0746 -0.9619
 3583TIP3   OH232239   6.559   2.317   6.539 -0.4589 -0.6042 -0.3754
 3583TIP3    H132240   6.621   2.247   6.517 -0.5468 -1.1059  0.9543
 3583TIP3    H232241   6.605   2.371   6.603 -0.7703 -0.0154 -0.6525
 3584TIP3   OH232242   5.857   2.756   3.738 -0.1298 -0.2776 -0.2223
 3584TIP3    H132243   5.832   2.819   3.671  0.7465  0.3237  0.0103
 3584TIP3    H232244   5.953   2.757   3.737 -0.0828  1.3086  2.5105
 3585TIP3   OH232245   0.467   3.091   6.377  0.2263 -0.2574  0.8035
 3585TIP3    H132246   0.494   3.148   6.449 -0.6255 -0.5334  1.3486
 3585TIP3    H232247   0.548   3.047   6.349  1.1339  2.1243 -0.4527
 3586TIP3   OH232248   3.663   0.079   4.876  0.3244 -0.4596  0.0021
 3586TIP3    H132249   3.699   0.140   4.940  1.6341 -0.5972 -0.5877
 3586TIP3    H232250   3.599   0.130   4.827 -1.1385 -0.5068  1.7981
 3587TIP3   OH232251   4.605   0.620  14.422 -0.4476  0.2385  0.2125
 3587TIP3    H132252   4.700   0.620  14.408 -0.6614 -0.7588 -1.4462
 3587TIP3    H232253   4.572   0.678  14.354 -0.8678  2.3622  2.2025
 3588TIP3   OH232254   3.477   0.182  15.142  0.4607  0.6321 -0.1704
 3588TIP3    H132255   3.561   0.144  15.171  0.0080  0.3889  0.8503
 3588TIP3    H232256   3.487   0.276  15.158 -0.1075  0.4082  1.6717
 3589TIP3   OH232257   3.110   3.515   2.624  0.3639  0.3202  0.3633
 3589TIP3    H132258   3.043   3.569   2.665  0.2631 -0.3527  1.0879
 3589TIP3    H232259   3.088   3.516   2.531  0.9416  2.3211  0.2384
 3590TIP3   OH232260   5.496   4.153   1.475 -0.2168 -0.0443  0.2462
 3590TIP3    H132261   5.552   4.224   1.506 -0.2231 -0.0188  0.2007
 3590TIP3    H232262   5.521   4.142   1.383  0.9632 -1.2067  0.6859
 3591TIP3   OH232263   5.686   3.900  15.527 -0.0181  0.2102 -0.8445
 3591TIP3    H132264   5.727   3.911  15.441 -0.2629  1.1575 -0.8489
 3591TIP3    H232265   5.668   3.806  15.534  0.8804 -0.0140 -1.4233
 3592TIP3   OH232266   0.498   0.211   4.142 -0.3119 -0.1238 -0.1393
 3592TIP3    H132267   0.575   0.233   4.090  0.8585 -2.1422  0.6870
 3592TIP3    H232268   0.423   0.237   4.087  0.9071 -0.7031 -2.0989
 3593TIP3   OH232269   1.235   5.170   3.380 -0.1308 -0.5377  0.2856
 3593TIP3    H132270   1.328   5.150   3.388  0.1510  1.1126  1.5258
 3593TIP3    H232271   1.205   5.118   3.306  1.4401 -2.2344  0.8192
 3594TIP3   OH232272   6.231   6.632   5.876 -0.1659 -0.0690  0.4353
 3594TIP3    H132273   6.241   6.626   5.972  1.5966 -1.0999  0.2199
 3594TIP3    H232274   6.227   6.541   5.848 -1.8166  0.2468 -0.3893
 3595TIP3   OH232275   4.814   5.877   3.161  0.7413 -0.0176  0.4104
 3595TIP3    H132276   4.774   5.791   3.148  1.7225 -0.5376  0.7687
 3595TIP3    H232277   4.779   5.931   3.091 -0.8767 -0.3604  0.9357
 3596TIP3   OH232278   1.665   2.631   1.124  0.2650  0.7207 -0.1976
 3596TIP3    H132279   1.707   2.545   1.128 -0.0611  0.5349 -0.7472
 3596TIP3    H232280   1.636   2.647   1.214  0.1644  0.1741 -0.1300
 3597TIP3   OH232281   1.930   1.487  16.452 -0.3320 -0.0338  0.2622
 3597TIP3    H132282   1.926   1.579  16.425  0.4678 -0.3216 -0.8795
 3597TIP3    H232283   2.023   1.467  16.454 -0.5272 -0.9537  0.0542
 3598TIP3   OH232284   0.323   3.994  11.799  0.3928  0.2739  0.0248
 3598TIP3    H132285   0.283   3.907  11.795 -0.4893  0.7833 -2.6664
 3598TIP3    H232286   0.397   3.989  11.738  2.0101  0.6236  1.8835
 3599TIP3   OH232287   1.572   5.113  11.278  0.2887  0.1595 -0.1532
 3599TIP3    H132288   1.579   5.156  11.193 -0.4182  0.7167  0.0674
 3599TIP3    H232289   1.496   5.056  11.270 -0.4968  1.1021  0.4887
 3600TIP3   OH232290   0.534   0.094  11.824  0.2724  0.6062  0.3744
 3600TIP3    H132291   0.591   0.024  11.791  0.4720  0.5101  0.9221
 3600TIP3    H232292   0.594   0.166  11.844  0.0438  1.0086 -0.3825
 3601TIP3   OH232293   1.611   4.841  13.676 -0.9108  0.0382 -0.2260
 3601TIP3    H132294   1.645   4.844  13.765 -1.2026  2.1363 -0.1654
 3601TIP3    H232295   1.687   4.818  13.622 -0.2697  0.7999  0.3379
 3602TIP3   OH232296   2.181   3.248   0.677 -0.0824 -0.1442  0.1809
 3602TIP3    H132297   2.273   3.256   0.651 -0.4587  0.2203 -1.1000
 3602TIP3    H232298   2.148   3.338   0.676 -1.3844 -0.5856 -2.9989
 3603TIP3   OH232299   4.052   0.972   0.254 -0.1643  0.4343 -0.2285
 3603TIP3    H132300   3.987   0.998   0.189 -0.0490 -0.3335 -0.6572
 3603TIP3    H232301   4.000   0.947   0.331 -0.5583 -2.6470 -1.4176
 3604TIP3   OH232302   2.481   4.842   2.512  0.5093  0.0983  0.5775
 3604TIP3    H132303   2.455   4.916   2.456  0.5154 -0.6787 -0.4488
 3604TIP3    H232304   2.564   4.870   2.551 -0.4524  1.4387  1.7101
 3605TIP3   OH232305   5.739   5.685  16.236 -0.3917 -0.5011  0.5738
 3605TIP3    H132306   5.770   5.658  16.150 -1.5640  1.7587 -0.6273
 3605TIP3    H232307   5.808   5.742  16.270 -0.1978 -0.9119  0.8715
 3606TIP3   OH232308   4.211   6.351  14.022 -0.0842 -0.5169 -0.1094
 3606TIP3    H132309   4.152   6.289  13.979  0.4256 -1.0713 -0.0082
 3606TIP3    H232310   4.284   6.360  13.961  0.9204 -1.7491  0.8964
 3607TIP3   OH232311   4.079   6.651   1.493  0.1005  0.3476 -0.2658
 3607TIP3    H132312   4.010   6.707   1.527 -0.9833 -1.0844 -0.0468
 3607TIP3    H232313   4.106   6.693   1.411 -0.8730  1.0438 -0.2377
 3608TIP3   OH232314   1.879   6.714  14.430  0.3103  0.3135 -0.6947
 3608TIP3    H132315   1.924   6.685  14.510 -0.0845  0.3985 -0.4386
 3608TIP3    H232316   1.947   6.760  14.380  0.3340  1.0888  0.0301
 3609TIP3   OH232317   0.819   3.694  17.049 -0.2705  0.4981  0.6242
 3609TIP3    H132318   0.750   3.757  17.070  0.6867  1.6187  0.4197
 3609TIP3    H232319   0.884   3.744  16.999  1.2319 -0.2775  1.7643
 3610TIP3   OH232320   3.817   5.790  10.311 -0.8202  0.3058 -0.2535
 3610TIP3    H132321   3.739   5.744  10.342  0.1084  0.1809  2.0232
 3610TIP3    H232322   3.873   5.720  10.277 -0.9827  0.1874 -0.2816
 3611TIP3   OH232323   4.398   6.641  11.138  0.1336 -0.6690  0.6295
 3611TIP3    H132324   4.395   6.720  11.083  0.7595 -2.9131 -2.7635
 3611TIP3    H232325   4.472   6.656  11.197  2.7656 -0.2932 -2.6083
 3612TIP3   OH232326   4.477   6.465  11.441  0.9775  0.4333  0.8756
 3612TIP3    H132327   4.458   6.547  11.487 -0.2824 -0.5759  2.1825
 3612TIP3    H232328   4.408   6.405  11.468  0.4500 -0.3510 -1.9952
 3613TIP3   OH232329   1.277   5.045   0.616 -0.5067  0.2420 -0.2284
 3613TIP3    H132330   1.233   5.125   0.589 -1.2949  0.3474  1.3126
 3613TIP3    H232331   1.323   5.068   0.696  1.4392 -0.1717 -1.1823
 3614TIP3   OH232332   1.347   5.383   2.492  0.5646 -0.1709 -0.3836
 3614TIP3    H132333   1.350   5.319   2.564  2.3496 -1.2104 -1.3428
 3614TIP3    H232334   1.398   5.457   2.524  1.2580 -0.5831 -0.5390
 3615TIP3   OH232335   3.700   2.516   0.971  0.2161 -0.3817  0.5806
 3615TIP3    H132336   3.676   2.579   1.039 -1.0722 -0.1758 -0.0449
 3615TIP3    H232337   3.680   2.430   1.009 -0.6015 -0.2612  0.4330
 3616TIP3   OH232338   0.899   0.035   6.615  0.3198 -0.4061  0.4758
 3616TIP3    H132339   0.917   0.115   6.565 -0.8388  0.6582  1.7669
 3616TIP3    H232340   0.834  -0.012   6.562  1.9102 -1.1260 -0.9075
 3617TIP3   OH232341   6.072   4.995  15.504  0.0149 -0.5344  0.6196
 3617TIP3    H132342   6.150   4.980  15.557  0.2941 -0.5842  0.1931
 3617TIP3    H232343   6.025   5.064  15.550  0.3719 -0.4176  0.8084
 3618TIP3   OH232344   5.974   6.352   3.206  1.0281  0.6239  0.5299
 3618TIP3    H132345   5.961   6.259   3.227  1.8676  0.6894  1.3520
 3618TIP3    H232346   6.055   6.354   3.156  0.2627  0.7559 -0.7328
 3619TIP3   OH232347   0.553   6.461  11.517 -0.0844  0.0738 -0.1760
 3619TIP3    H132348   0.597   6.426  11.594 -0.5197  0.6264  0.3276
 3619TIP3    H232349   0.504   6.387  11.481 -1.0823  0.1752  0.9458
 3620TIP3   OH232350   6.275   4.497   0.258 -0.0771  0.0654  0.1320
 3620TIP3    H132351   6.212   4.456   0.197 -0.0490 -0.6225  0.5575
 3620TIP3    H232352   6.360   4.486   0.215 -0.1786  0.5005 -0.1855
 3621TIP3   OH232353   6.566   2.350  12.432  0.5090  0.0495 -0.1028
 3621TIP3    H132354   6.503   2.422  12.438  0.0781 -0.0942 -2.3325
 3621TIP3    H232355   6.624   2.375  12.359  0.5214 -1.7258 -0.7222
 3622TIP3   OH232356   6.556   1.197   5.349  0.4199  1.0234 -0.0323
 3622TIP3    H132357   6.474   1.160   5.315  0.2731  0.3720  0.9835
 3622TIP3    H232358   6.584   1.259   5.282 -1.8407  2.5908  0.4109
 3623TIP3   OH232359   1.943   3.687   0.149  0.5298  0.2510 -0.0601
 3623TIP3    H132360   2.020   3.686   0.206 -0.7312  1.1962  1.7147
 3623TIP3    H232361   1.895   3.608   0.172  0.8674 -0.2450 -1.0385
 3624TIP3   OH232362   4.341   2.506  12.886 -0.8121 -0.1208  0.6537
 3624TIP3    H132363   4.413   2.478  12.830 -0.7719  1.1888  0.0173
 3624TIP3    H232364   4.375   2.582  12.933 -1.4302 -0.1450  1.1459
 3625TIP3   OH232365   5.000   5.322   2.814 -0.0081 -0.1355 -0.0418
 3625TIP3    H132366   5.064   5.256   2.786  1.6280  1.5109 -0.2818
 3625TIP3    H232367   5.049   5.381   2.870 -1.8044  0.1041  1.3146
 3626TIP3   OH232368   0.874   1.636  16.063  0.1849  0.1438  0.1987
 3626TIP3    H132369   0.872   1.658  16.156 -0.5365  2.3004 -0.2990
 3626TIP3    H232370   0.943   1.571  16.055  1.5738  1.3570  1.9429
 3627TIP3   OH232371   0.990   2.134  16.779  0.1626  0.5677  0.2504
 3627TIP3    H132372   1.083   2.119  16.798  0.0721 -0.1756  0.1191
 3627TIP3    H232373   0.944   2.075  16.838 -0.1400 -1.3401 -1.8478
 3628TIP3   OH232374   3.607   6.235  11.741  0.4387 -0.5209 -0.2182
 3628TIP3    H132375   3.540   6.275  11.795  0.6414 -0.3715 -0.0763
 3628TIP3    H232376   3.584   6.260  11.651  1.0167  0.5888 -0.0603
 3629TIP3   OH232377   4.474   5.495   0.632 -0.4008 -0.3234 -0.0980
 3629TIP3    H132378   4.541   5.563   0.637  0.6181 -0.8097 -4.6929
 3629TIP3    H232379   4.393   5.541   0.613 -0.0762 -0.2169 -1.2549
 3630TIP3   OH232380   0.132   4.152   4.791 -0.7920 -0.7066  0.3302
 3630TIP3    H132381   0.116   4.241   4.822 -1.5694 -0.0012 -2.0188
 3630TIP3    H232382   0.051   4.105   4.810  0.5161 -1.6305  3.9076
 3631TIP3   OH232383   1.965   2.171  11.516 -0.0360 -0.2855  0.2723
 3631TIP3    H132384   1.978   2.265  11.527  0.9498 -0.3774 -0.0701
 3631TIP3    H232385   1.976   2.156  11.422 -2.8330 -0.3497 -0.0875
 3632TIP3   OH232386   3.035   2.218   0.808 -0.1789  0.0060 -0.8604
 3632TIP3    H132387   3.079   2.166   0.875 -0.5600 -1.9892 -2.1282
 3632TIP3    H232388   3.096   2.290   0.790  0.7451 -0.4780  0.2675
 3633TIP3   OH232389   3.432   3.870   6.502 -0.3181 -0.4174 -0.2662
 3633TIP3    H132390   3.381   3.950   6.514 -0.3789 -0.3206 -1.1599
 3633TIP3    H232391   3.523   3.900   6.498 -0.4457 -0.2334 -2.0529
 3634TIP3   OH232392   5.381   5.236  11.336  0.4781  0.5442 -0.2056
 3634TIP3    H132393   5.472   5.209  11.331  0.4868  0.5388 -0.0324
 3634TIP3    H232394   5.371   5.301  11.267  0.7660  0.9932  0.1715
 3635TIP3   OH232395   2.298   3.604   2.213 -0.1449 -0.4406  0.1245
 3635TIP3    H132396   2.237   3.604   2.140  0.9442  1.8485 -0.8484
 3635TIP3    H232397   2.242   3.609   2.291 -1.2935 -2.4215 -0.5231
 3636TIP3   OH232398   2.347   1.905   4.599 -0.1973 -0.3668  0.5443
 3636TIP3    H132399   2.264   1.862   4.617  0.6990 -2.3255  0.1702
 3636TIP3    H232400   2.404   1.834   4.568  2.0279  0.6763  2.1454
 3637TIP3   OH232401   4.986   3.578   5.785 -0.0652 -0.3021 -0.1244
 3637TIP3    H132402   4.975   3.576   5.880 -1.0901  3.4334 -0.0687
 3637TIP3    H232403   5.007   3.670   5.766 -1.1347 -0.7292 -3.6234
 3638TIP3   OH232404   5.824   1.305   5.737 -0.2804 -0.0623  0.3940
 3638TIP3    H132405   5.809   1.370   5.806  1.4975 -0.0317  0.7685
 3638TIP3    H232406   5.870   1.354   5.669 -2.3352 -0.0053 -0.9893
 3639TIP3   OH232407   2.686   0.433   0.078  0.0087 -0.4509  0.2182
 3639TIP3    H132408   2.727   0.501   0.131  0.7509 -1.5538  1.0805
 3639TIP3    H232409   2.620   0.479   0.027  0.3660  0.8834  0.9370
 3640TIP3   OH232410   4.287   4.787   0.266  0.2285  0.2860  0.1593
 3640TIP3    H132411   4.360   4.764   0.208  1.1609  1.7207  0.7505
 3640TIP3    H232412   4.232   4.708   0.268  0.8471 -0.2060 -1.6609
 3641TIP3   OH232413   2.529   6.372   6.424 -0.1886 -0.0282 -0.4450
 3641TIP3    H132414   2.503   6.327   6.504 -1.0267 -0.9410 -1.2247
 3641TIP3    H232415   2.625   6.376   6.429 -0.2316 -0.1651  0.5436
 3642TIP3   OH232416   6.500   4.003   1.872 -0.1618 -0.4534  0.0951
 3642TIP3    H132417   6.556   4.079   1.890  1.2167 -1.0205 -1.5833
 3642TIP3    H232418   6.508   3.948   1.949 -0.3638  0.6360  0.9039
 3643TIP3   OH232419   4.084   5.190   0.684 -0.3770 -0.3743  1.0664
 3643TIP3    H132420   4.111   5.120   0.744  0.8785  1.5465  2.7952
 3643TIP3    H232421   4.164   5.213   0.637 -0.1070  1.8084  2.5251
 3644TIP3   OH232422   4.151   6.015   4.140  0.0709  0.4359  0.2641
 3644TIP3    H132423   4.198   5.982   4.216 -1.9720 -1.9879  0.5578
 3644TIP3    H232424   4.058   6.001   4.161 -0.7678  3.5791 -0.9437
 3645TIP3   OH232425   4.879   6.461  15.192  0.4855  0.2858 -0.7183
 3645TIP3    H132426   4.965   6.420  15.181  0.7871  0.4112  0.9657
 3645TIP3    H232427   4.898   6.547  15.231 -0.4466 -0.0930  0.6103
 3646TIP3   OH232428   3.899   6.815   0.331  0.6239  0.0653  0.1644
 3646TIP3    H132429   3.842   6.742   0.353  0.4369  0.3711  0.7080
 3646TIP3    H232430   3.851   6.893   0.360  1.9679  0.2269  2.0460
 3647TIP3   OH232431   3.062   2.377   4.386 -0.5052 -0.0925 -0.1758
 3647TIP3    H132432   2.978   2.336   4.404  0.0483 -1.9840 -1.7645
 3647TIP3    H232433   3.048   2.429   4.307 -0.0245 -0.9674 -0.8482
 3648TIP3   OH232434   1.219   0.284   4.842  0.6728 -0.5690 -0.2507
 3648TIP3    H132435   1.199   0.323   4.757 -1.6554 -2.4553 -0.6088
 3648TIP3    H232436   1.287   0.220   4.824  2.5003  1.2685 -0.1135
 3649TIP3   OH232437   1.038   3.956   4.778 -0.4001 -0.1149 -0.4781
 3649TIP3    H132438   1.044   3.893   4.850 -1.4624  0.4508  0.1194
 3649TIP3    H232439   1.031   3.902   4.699 -0.1459 -0.7367 -0.0802
 3650TIP3   OH232440   0.384   5.763   0.833 -0.1777 -0.1943  0.6852
 3650TIP3    H132441   0.419   5.824   0.768 -1.5646 -0.3894 -0.2669
 3650TIP3    H232442   0.447   5.690   0.834 -0.2398 -0.2786 -0.5903
 3651TIP3   OH232443   0.040   4.916  11.660 -0.1071 -0.4522  0.5471
 3651TIP3    H132444   0.106   4.970  11.616 -0.0098 -1.1155 -0.1322
 3651TIP3    H232445   0.020   4.963  11.740 -0.8339  1.1754 -0.5562
 3652TIP3   OH232446   3.550   1.268   5.908 -0.1606 -0.0821  0.0750
 3652TIP3    H132447   3.491   1.332   5.869 -0.9114  0.0035  1.3084
 3652TIP3    H232448   3.577   1.308   5.991 -0.2867 -1.1641  0.6422
 3653TIP3   OH232449   4.958   6.777   5.942  0.0787 -0.9049  0.0472
 3653TIP3    H132450   5.042   6.807   5.976 -0.1093 -0.9262  0.5299
 3653TIP3    H232451   4.972   6.769   5.848  0.0881  0.8312 -0.1164
 3654TIP3   OH232452   6.355   5.691  16.095 -0.9032  0.2693  0.0859
 3654TIP3    H132453   6.427   5.633  16.070 -0.1011  1.1451  0.3313
 3654TIP3    H232454   6.312   5.714  16.012 -1.8605 -1.4660  0.0785
 3655TIP3   OH232455   2.652   1.084   0.230  0.4137 -0.0369 -0.2474
 3655TIP3    H132456   2.695   1.111   0.148  0.6510  1.5181  0.3696
 3655TIP3    H232457   2.587   1.152   0.246  0.2868 -0.4064  0.7947
 3656TIP3   OH232458   6.095   3.538   3.234 -0.7318  0.0007  1.2206
 3656TIP3    H132459   6.169   3.479   3.220 -1.2194 -0.3673  0.1155
 3656TIP3    H232460   6.020   3.480   3.247 -1.7713  0.3026 -2.8503
 3657TIP3   OH232461   0.289   5.622  11.504  0.0715  0.1082 -0.0466
 3657TIP3    H132462   0.365   5.672  11.536  0.1418 -0.2961  0.4208
 3657TIP3    H232463   0.232   5.688  11.465  0.8108  0.3739 -0.6879
 3658TIP3   OH232464   1.763   4.669   4.767  0.1930 -0.0275  0.1920
 3658TIP3    H132465   1.730   4.737   4.708 -0.5316 -0.5794 -0.0593
 3658TIP3    H232466   1.685   4.641   4.816 -0.0087 -2.2979 -1.3502
 3659TIP3   OH232467   6.653   4.252   4.751  0.8310  0.0823 -0.6922
 3659TIP3    H132468   6.706   4.323   4.786 -0.5548  0.9807 -0.4008
 3659TIP3    H232469   6.660   4.182   4.816 -1.7545  1.7390  1.4914
 3660TIP3   OH232470   1.446   4.468   3.672 -0.3156 -0.2260  0.8822
 3660TIP3    H132471   1.454   4.541   3.609 -1.4938  0.0432  1.0368
 3660TIP3    H232472   1.421   4.393   3.618 -2.0174  0.1609  1.0941
 3661TIP3   OH232473   1.076   3.363  13.823  0.4904 -0.4724  0.2731
 3661TIP3    H132474   1.141   3.388  13.757  1.0632 -2.0143  0.2297
 3661TIP3    H232475   0.993   3.357  13.775  0.4775  0.6398  0.1506
 3662TIP3   OH232476   5.579   5.310  16.902 -0.1076  0.0896 -0.0282
 3662TIP3    H132477   5.586   5.406  16.903  0.5806  0.0565 -0.7540
 3662TIP3    H232478   5.598   5.286  16.812  1.2603 -0.8350  0.4894
 3663TIP3   OH232479   6.588   2.150  11.267  0.0099  0.2226 -0.0077
 3663TIP3    H132480   6.657   2.152  11.333 -0.1505 -0.5488  0.1854
 3663TIP3    H232481   6.581   2.058  11.242 -1.5246  0.1463  0.6113
 3664TIP3   OH232482   1.324   2.151  12.308 -0.0796  0.8017  0.1175
 3664TIP3    H132483   1.371   2.179  12.230  0.3535  1.0827  0.4785
 3664TIP3    H232484   1.391   2.142  12.376 -0.0072 -2.3290 -0.2763
 3665TIP3   OH232485   3.309   4.411  14.623  0.1952  0.0580 -0.0368
 3665TIP3    H132486   3.286   4.404  14.530 -1.0823  1.9253  0.0973
 3665TIP3    H232487   3.234   4.456  14.663  0.7222 -0.7443  1.9091
 3666TIP3   OH232488   6.069   0.309  11.104  0.5616 -0.0957 -0.9607
 3666TIP3    H132489   6.071   0.272  11.016 -2.3590 -3.1061  0.1101
 3666TIP3    H232490   6.111   0.242  11.159  0.0196  0.5648  0.2892
 3667TIP3   OH232491   4.610   0.380   3.628 -0.2335 -0.0964  0.4446
 3667TIP3    H132492   4.659   0.457   3.659  0.0212 -0.5866  1.2785
 3667TIP3    H232493   4.678   0.316   3.607 -0.4195  0.1277 -0.8711
 3668TIP3   OH232494   1.378   3.663  14.491 -0.1572 -0.0704 -0.0310
 3668TIP3    H132495   1.364   3.757  14.481  2.9228  0.4476  0.0130
 3668TIP3    H232496   1.450   3.657  14.554 -2.1306 -2.5714  2.1168
 3669TIP3   OH232497   0.826   4.845   0.503 -0.2392 -0.3462 -0.1556
 3669TIP3    H132498   0.816   4.791   0.581 -0.6024  0.7117  0.5432
 3669TIP3    H232499   0.790   4.792   0.432  0.4239 -1.4596  0.3367
 3670TIP3   OH232500   6.044   0.346   4.589  0.4139  0.1386 -0.2764
 3670TIP3    H132501   6.100   0.423   4.582 -0.1363  0.4312 -1.8517
 3670TIP3    H232502   6.009   0.334   4.500 -1.1454 -0.6825  0.4219
 3671TIP3   OH232503   5.861   0.213  13.826  0.5207  0.1175  0.1499
 3671TIP3    H132504   5.797   0.150  13.858  1.7081 -1.1643  0.0590
 3671TIP3    H232505   5.929   0.214  13.894  0.3228  1.5889  0.3383
 3672TIP3   OH232506   4.488   6.474  16.087 -0.4525 -0.7937  0.1969
 3672TIP3    H132507   4.468   6.499  15.997  2.7143 -0.6438 -0.5483
 3672TIP3    H232508   4.433   6.530  16.140  0.0569  1.5017 -1.6200
 3673TIP3   OH232509   5.982   6.204   6.076  0.6449 -0.5669  0.3944
 3673TIP3    H132510   5.992   6.291   6.113 -0.7946 -0.6501  1.0159
 3673TIP3    H232511   5.892   6.202   6.045  0.8858 -1.5950 -0.2481
 3674TIP3   OH232512   2.335   5.818  16.390  0.2149  0.4748  1.0057
 3674TIP3    H132513   2.249   5.858  16.382 -1.1416 -1.9392  2.9898
 3674TIP3    H232514   2.339   5.789  16.481  1.5970 -2.8577 -0.0585
 3675TIP3   OH232515   3.357   1.606   4.913 -0.8086  0.1613 -0.4762
 3675TIP3    H132516   3.318   1.568   4.992 -1.6388 -0.0825 -1.0020
 3675TIP3    H232517   3.449   1.619   4.936 -1.0209 -0.0076  0.4980
 3676TIP3   OH232518   5.968   4.543  13.161  0.5169 -0.2985 -1.0987
 3676TIP3    H132519   5.985   4.567  13.252  1.0082 -0.3922 -1.1650
 3676TIP3    H232520   5.950   4.626  13.117 -2.1338 -0.4607 -0.4258
 3677TIP3   OH232521   3.991   6.143  12.595 -0.3112 -0.2065 -0.2999
 3677TIP3    H132522   4.037   6.103  12.521 -0.3709 -2.0518  0.6516
 3677TIP3    H232523   4.053   6.138  12.667 -1.3534 -1.0705  0.5356
 3678TIP3   OH232524   4.865   1.562  12.884 -0.0853 -0.2758  0.1503
 3678TIP3    H132525   4.859   1.468  12.897 -0.1926 -0.2655  0.1786
 3678TIP3    H232526   4.870   1.599  12.972  1.5781 -0.3548  0.1043
 3679TIP3   OH232527   1.421   2.114  15.210 -0.1842  0.1355  0.1108
 3679TIP3    H132528   1.381   2.096  15.295  0.8364 -0.7765  0.4196
 3679TIP3    H232529   1.449   2.028  15.179 -1.6098  0.2941 -1.7087
 3680TIP3   OH232530   4.837   2.649   1.860 -0.3788 -0.6439 -0.1007
 3680TIP3    H132531   4.918   2.662   1.910 -0.4686 -2.6519  0.6331
 3680TIP3    H232532   4.782   2.597   1.918 -1.8445 -0.0792 -0.9693
 3681TIP3   OH232533   2.556   4.381   2.068  0.9123 -0.5673 -0.2595
 3681TIP3    H132534   2.467   4.394   2.103  1.5203  3.9051 -0.0037
 3681TIP3    H232535   2.551   4.298   2.020 -3.5848 -0.1387 -0.8140
 3682TIP3   OH232536   1.257   1.933  16.693  0.0159 -0.0362  0.0503
 3682TIP3    H132537   1.301   2.001  16.641 -1.4843  0.3186 -0.7683
 3682TIP3    H232538   1.255   1.969  16.781 -0.9460  1.0800 -0.4162
 3683TIP3   OH232539   5.618   2.344  17.076 -0.2793  0.1268  0.2008
 3683TIP3    H132540   5.533   2.388  17.070 -0.6414 -0.5109  0.7364
 3683TIP3    H232541   5.675   2.408  17.120 -0.3137  0.7908 -0.6996
 3684TIP3   OH232542   1.963   1.034   0.202 -0.5173 -0.1159 -0.0925
 3684TIP3    H132543   1.903   1.091   0.250 -1.5338 -0.8150 -0.5231
 3684TIP3    H232544   1.927   0.946   0.213 -1.3710 -0.1766 -2.9911
 3685TIP3   OH232545   6.323   4.976  17.289 -0.4056  0.7713 -0.0746
 3685TIP3    H132546   6.360   4.916  17.224  0.7671  2.0949 -0.6671
 3685TIP3    H232547   6.392   4.984  17.356 -1.0371  0.5382  0.6105
 3686TIP3   OH232548   5.230   1.865  16.481  0.3832 -0.3813  0.5969
 3686TIP3    H132549   5.147   1.818  16.492  0.6949 -1.2754 -0.7546
 3686TIP3    H232550   5.209   1.956  16.501 -0.5994 -0.8362  1.6575
 3687TIP3   OH232551   0.337   3.441  11.974 -0.1430 -0.1750  0.1604
 3687TIP3    H132552   0.414   3.390  11.999 -0.2080  0.7457  2.3682
 3687TIP3    H232553   0.265   3.378  11.979  0.2155 -0.6041 -0.1036
 3688TIP3   OH232554   1.014   3.080   1.704  0.0693 -0.3165  0.4662
 3688TIP3    H132555   1.037   3.127   1.624 -0.0771  0.2205  0.7393
 3688TIP3    H232556   1.095   3.076   1.754  0.1531 -0.6247  0.3129
 3689TIP3   OH232557   2.270   0.361   1.460 -0.6153 -0.0442 -0.3838
 3689TIP3    H132558   2.194   0.303   1.449 -1.5476  1.3619 -1.4793
 3689TIP3    H232559   2.338   0.320   1.406 -0.0707 -2.1690  1.8331
 3690TIP3   OH232560   1.774   0.296   1.995 -0.6107 -0.0690  0.0637
 3690TIP3    H132561   1.817   0.337   1.920 -0.8821  0.6415  0.2903
 3690TIP3    H232562   1.736   0.370   2.044 -0.6849 -0.5513  0.7370
 3691TIP3   OH232563   0.911   0.028   3.085 -0.1305 -0.5540  0.0973
 3691TIP3    H132564   0.997   0.057   3.115  0.0002 -1.5305  0.7092
 3691TIP3    H232565   0.886  -0.040   3.148 -0.7580 -1.2034 -0.8422
 3692TIP3   OH232566   0.706   1.391  14.434  0.5465 -0.4780 -0.2025
 3692TIP3    H132567   0.685   1.413  14.524  0.4553 -0.1443 -0.3038
 3692TIP3    H232568   0.750   1.306  14.439 -1.3886 -1.4967 -0.0529
 3693TIP3   OH232569   3.502   5.177  13.146 -0.5196 -0.2063 -0.2526
 3693TIP3    H132570   3.508   5.216  13.233  0.4600  1.0606 -0.8734
 3693TIP3    H232571   3.464   5.246  13.091 -1.9931 -1.2992 -0.6540
 3694TIP3   OH232572   5.586   2.764  14.389 -0.3507  0.6221 -0.1172
 3694TIP3    H132573   5.617   2.852  14.365 -0.2071  0.1996 -1.5433
 3694TIP3    H232574   5.560   2.725  14.306 -0.8222 -0.5404  0.5686
 3695TIP3   OH232575   3.128   2.413  16.427 -0.0004  0.0149  0.0677
 3695TIP3    H132576   3.088   2.500  16.422 -0.3727 -0.1474  0.1930
 3695TIP3    H232577   3.136   2.385  16.336 -1.7089 -0.6487  0.1047
 3696TIP3   OH232578   4.861   0.977   0.345 -0.3547 -0.5990 -0.3320
 3696TIP3    H132579   4.951   0.947   0.358  0.0798  0.6661 -0.3438
 3696TIP3    H232580   4.870   1.062   0.303 -1.4855  0.6231  1.8269
 3697TIP3   OH232581   5.793   4.148  15.526 -0.1587  0.4788  0.1173
 3697TIP3    H132582   5.728   4.192  15.471  1.2533  0.1689 -1.8575
 3697TIP3    H232583   5.760   4.059  15.536 -1.3030  1.0304  1.2350
 3698TIP3   OH232584   1.964   3.374  11.421 -0.0313  0.3970  0.4642
 3698TIP3    H132585   2.025   3.433  11.466 -0.7908  1.6057 -0.0919
 3698TIP3    H232586   1.921   3.326  11.492  2.3873 -1.3441  0.8526
 3699TIP3   OH232587   5.692   6.241  12.204 -0.0311 -0.2022  0.5775
 3699TIP3    H132588   5.596   6.236  12.199 -0.1590 -0.4398  2.8282
 3699TIP3    H232589   5.721   6.224  12.115 -2.0190 -2.1189  0.2344
 3700TIP3   OH232590   2.900   5.184   1.332  0.0058 -0.0411  0.0354
 3700TIP3    H132591   2.812   5.196   1.366  0.5877 -0.1362  1.6588
 3700TIP3    H232592   2.937   5.272   1.328 -0.0765 -0.0262 -0.3890
 3701TIP3   OH232593   5.543   6.381  16.781  0.5036  0.5051  0.3316
 3701TIP3    H132594   5.494   6.398  16.701  2.3819  2.5739 -0.4090
 3701TIP3    H232595   5.518   6.292  16.806  0.3315 -0.3669 -2.8428
 3702TIP3   OH232596   0.752   0.734   4.851 -0.3845  0.0036 -0.2511
 3702TIP3    H132597   0.715   0.669   4.910  1.2283  0.9755  1.8824
 3702TIP3    H232598   0.843   0.706   4.838  0.7157  2.4786  1.7175
 3703TIP3   OH232599   4.974   6.786   0.178  0.0955 -0.2350  0.1283
 3703TIP3    H132600   5.030   6.721   0.137  0.3128 -0.4276  0.7247
 3703TIP3    H232601   5.032   6.861   0.194 -0.1066  0.0358 -0.3717
 3704TIP3   OH232602   3.538   4.743   1.380 -0.3395 -0.7584  0.2595
 3704TIP3    H132603   3.467   4.801   1.405 -0.8984 -0.6423 -1.5176
 3704TIP3    H232604   3.547   4.682   1.453 -1.0942  0.3022  1.2476
 3705TIP3   OH232605   3.625   0.170  11.016  0.4634  0.0135  0.2765
 3705TIP3    H132606   3.654   0.094  10.966  1.3974 -0.9711  2.2735
 3705TIP3    H232607   3.686   0.239  10.993  0.6189 -0.3106 -0.2869
 3706TIP3   OH232608   4.623   4.372  11.571 -0.2061  0.3142 -0.0156
 3706TIP3    H132609   4.536   4.405  11.593 -0.4532 -0.5979  0.3701
 3706TIP3    H232610   4.619   4.279  11.591  0.4438  0.0152 -1.2552
 3707TIP3   OH232611   1.137   3.225   1.484 -0.0489 -0.7668 -0.0992
 3707TIP3    H132612   1.081   3.188   1.415 -1.6097  1.7437 -0.2428
 3707TIP3    H232613   1.149   3.316   1.458 -1.2467  0.4431  3.2875
 3708TIP3   OH232614   2.240   5.054  13.744 -0.7632  0.1560  0.1038
 3708TIP3    H132615   2.154   5.047  13.702 -0.5871 -4.6071  0.3323
 3708TIP3    H232616   2.230   5.011  13.828  2.0092 -1.2247 -0.2089
 3709TIP3   OH232617   0.930   0.382   5.558 -0.2882  0.0988  0.2796
 3709TIP3    H132618   0.873   0.459   5.561  0.5391  0.7114  0.3917
 3709TIP3    H232619   0.947   0.368   5.465  0.2273  0.5497  0.3043
 3710TIP3   OH232620   3.093   4.677  15.882 -0.5775 -0.3147 -0.8497
 3710TIP3    H132621   3.116   4.590  15.915 -2.5464 -0.5943 -0.0928
 3710TIP3    H232622   3.007   4.664  15.841 -1.6879  1.6078  0.7949
 3711TIP3   OH232623   4.426   3.316  11.568  0.4131  0.7164  0.3341
 3711TIP3    H132624   4.366   3.320  11.643  1.7578 -0.2903  1.4875
 3711TIP3    H232625   4.404   3.234  11.524 -1.6177  2.1621 -1.4924
 3712TIP3   OH232626   5.040   2.754   4.974  0.7430  0.3769  0.1389
 3712TIP3    H132627   4.985   2.813   4.923 -1.8606  0.6128  3.0895
 3712TIP3    H232628   5.089   2.811   5.033 -0.7131 -0.2365  2.0018
 3713TIP3   OH232629   0.221   4.795  14.893 -0.5384 -0.3307 -0.2658
 3713TIP3    H132630   0.294   4.800  14.956 -0.8991  0.0760  0.1226
 3713TIP3    H232631   0.187   4.884  14.889 -1.1791 -0.5764 -0.2536
 3714TIP3   OH232632   6.240   1.017  15.414 -0.0217  0.1299 -0.0647
 3714TIP3    H132633   6.275   1.032  15.502  0.2615  1.0881 -0.3243
 3714TIP3    H232634   6.274   1.091  15.363 -0.2756 -0.3590 -0.9479
 3715TIP3   OH232635   5.096   2.257   3.091 -0.1678 -0.5648 -0.5978
 3715TIP3    H132636   5.030   2.189   3.105 -0.1353 -0.5739 -0.4857
 3715TIP3    H232637   5.133   2.237   3.006  0.1031 -0.9111 -0.4001
 3716TIP3   OH232638   6.109   5.282   5.284 -0.3182  0.1065  0.1115
 3716TIP3    H132639   6.083   5.190   5.273 -0.6173  0.2198 -0.1275
 3716TIP3    H232640   6.193   5.289   5.240 -1.4168  0.5132 -1.9893
 3717TIP3   OH232641   6.365   1.127   0.246 -0.7535  0.4302  0.5619
 3717TIP3    H132642   6.360   1.070   0.322  0.8068 -0.8979 -0.3070
 3717TIP3    H232643   6.430   1.086   0.189 -0.9020  2.1269 -0.8773
 3718TIP3   OH232644   3.944   6.578  14.716  0.1410  0.1469  0.3369
 3718TIP3    H132645   3.968   6.558  14.626  0.0828 -0.6714  0.4969
 3718TIP3    H232646   4.028   6.586  14.762  0.1557 -0.5685  0.4446
 3719TIP3   OH232647   4.611   0.695  16.543 -0.8269  0.6725 -0.3923
 3719TIP3    H132648   4.674   0.749  16.497 -2.8548  1.7085 -2.0413
 3719TIP3    H232649   4.590   0.624  16.483 -4.7962  2.9830 -1.9629
 3720TIP3   OH232650   4.259   3.321   1.463  0.5142 -0.1383 -0.2350
 3720TIP3    H132651   4.292   3.346   1.549 -0.6829  1.0556 -0.1049
 3720TIP3    H232652   4.337   3.324   1.407  0.6435  3.0463 -0.0215
 3721TIP3   OH232653   0.020   5.383   4.968 -0.7965  0.1170 -0.7510
 3721TIP3    H132654  -0.023   5.368   4.884 -0.4760 -0.0270 -0.8920
 3721TIP3    H232655  -0.018   5.317   5.026 -0.0452 -0.6770 -1.1339
 3722TIP3   OH232656   4.069   1.060  13.014  0.3039  0.3711  0.2536
 3722TIP3    H132657   3.997   1.099  12.964  0.5307 -1.6668 -1.7378
 3722TIP3    H232658   4.045   0.968  13.022  3.2162 -0.5920 -1.4551
 3723TIP3   OH232659   6.623   6.202   3.418  0.1103 -0.0457 -0.3895
 3723TIP3    H132660   6.592   6.285   3.454  1.0482 -0.8493  2.4506
 3723TIP3    H232661   6.669   6.226   3.338 -0.6426  2.0349 -0.2308
 3724TIP3   OH232662   4.042   0.128   4.188  0.0281 -0.4901 -0.5314
 3724TIP3    H132663   3.972   0.066   4.170  0.3543 -0.7496 -0.9217
 3724TIP3    H232664   4.115   0.074   4.218 -0.2864 -0.1230  0.9074
 3725TIP3   OH232665   6.789   3.059  15.565 -0.4805 -0.0367  0.2191
 3725TIP3    H132666   6.779   3.123  15.495 -0.7727 -1.7079 -1.2656
 3725TIP3    H232667   6.844   3.104  15.630 -1.7769  2.1948 -0.1818
 3726TIP3   OH232668   1.903   3.020  15.383  0.1406  0.6881 -0.1939
 3726TIP3    H132669   1.965   2.965  15.335 -0.6525 -0.0329 -0.4241
 3726TIP3    H232670   1.894   3.099  15.330  1.4869  1.1640  0.2646
 3727TIP3   OH232671   2.046   0.003   5.177  0.0364  0.5823 -0.0950
 3727TIP3    H132672   1.958  -0.026   5.151  0.8564 -2.3420  0.2366
 3727TIP3    H232673   2.068   0.071   5.114 -1.7017 -0.0210 -1.4045
 3728TIP3   OH232674   5.552   5.669  17.125 -0.0438  0.1253 -0.0040
 3728TIP3    H132675   5.481   5.610  17.102  0.3603 -0.3302 -0.1013
 3728TIP3    H232676   5.600   5.624  17.194  2.6557 -1.5157 -2.8579
 3729TIP3   OH232677   1.762   1.307   2.784 -0.3143  0.5387  0.5261
 3729TIP3    H132678   1.830   1.320   2.717 -0.9519 -0.4594 -0.3391
 3729TIP3    H232679   1.793   1.232   2.835 -1.7468 -1.2832 -1.1977
 3730TIP3   OH232680   4.660   4.931  16.645 -0.1460  0.2058  0.3361
 3730TIP3    H132681   4.714   4.853  16.645 -0.3393  0.0698  0.6090
 3730TIP3    H232682   4.663   4.963  16.555 -0.0449 -0.0967  0.2347
 3731TIP3   OH232683   4.295   6.438  15.669  0.1109 -0.0167  0.0551
 3731TIP3    H132684   4.358   6.403  15.606 -0.7038  0.9216 -1.2978
 3731TIP3    H232685   4.348   6.465  15.744  1.1975 -0.1697 -0.6520
 3732TIP3   OH232686   2.667   2.006  13.492  0.0997 -0.2934 -0.5922
 3732TIP3    H132687   2.757   2.006  13.457  0.6242 -2.3847  0.7058
 3732TIP3    H232688   2.643   2.099  13.494  1.7004  0.2001 -2.2718
 3733TIP3   OH232689   1.511   6.275  12.657  0.0326  0.4096 -1.2204
 3733TIP3    H132690   1.430   6.313  12.621  0.0325  1.1034 -0.5026
 3733TIP3    H232691   1.567   6.263  12.580 -0.3157  1.0180 -1.5795
 3734TIP3   OH232692   5.095   2.304  10.989 -0.5665  0.0655 -0.3987
 3734TIP3    H132693   5.053   2.310  10.903 -0.8202 -0.5990 -0.3237
 3734TIP3    H232694   5.136   2.390  11.001 -0.6410  0.2122 -1.1228
 3735TIP3   OH232695   5.936   3.089  17.218 -0.4964 -0.4817  0.0126
 3735TIP3    H132696   5.971   3.002  17.237  0.2349 -0.1081  0.3888
 3735TIP3    H232697   6.013   3.144  17.207 -0.9496  0.0255 -0.6749
 3736TIP3   OH232698   6.418   2.690   6.443  0.1183  0.0374  0.1359
 3736TIP3    H132699   6.426   2.647   6.528  0.3673  1.2451  0.7392
 3736TIP3    H232700   6.395   2.780   6.464  0.5231  0.4284 -1.0695
 3737TIP3   OH232701   6.463   6.792  14.189  0.2949  0.2970  0.1832
 3737TIP3    H132702   6.483   6.701  14.210  2.2587  1.2536  2.7647
 3737TIP3    H232703   6.368   6.794  14.176  0.1183 -1.9392  0.9333
 3738TIP3   OH232704   0.163   3.549   3.877  0.3142  0.0230 -0.9570
 3738TIP3    H132705   0.102   3.537   3.949  0.8271 -0.8744 -0.6651
 3738TIP3    H232706   0.179   3.644   3.875 -0.3178  0.1501 -0.4157
 3739TIP3   OH232707   2.574   5.706  13.250  0.0907 -0.0605  1.0356
 3739TIP3    H132708   2.530   5.652  13.184 -1.1673  0.6889  1.2268
 3739TIP3    H232709   2.644   5.651  13.284  0.8449 -0.4073 -1.0096
 3740TIP3   OH232710   5.689   3.597   2.654 -0.4864  0.0870 -0.1844
 3740TIP3    H132711   5.595   3.615   2.661 -0.9264 -1.5618 -1.5619
 3740TIP3    H232712   5.698   3.505   2.678  1.0350  0.7138  1.7449
 3741TIP3   OH232713   0.656   0.657   1.544  0.0333  0.2379  0.3666
 3741TIP3    H132714   0.670   0.642   1.450 -0.4418 -0.1268  0.3510
 3741TIP3    H232715   0.584   0.720   1.547  0.1316  0.3433  0.4846
 3742TIP3   OH232716   5.607   6.817   4.776  0.6152 -0.1435 -0.0782
 3742TIP3    H132717   5.550   6.894   4.771 -0.3401 -0.8212  0.4464
 3742TIP3    H232718   5.589   6.769   4.695  0.2234 -0.5055  0.2210
 3743TIP3   OH232719   4.033   3.350   4.265 -0.3337 -0.4389  0.1035
 3743TIP3    H132720   3.972   3.406   4.314 -0.7774 -0.6111 -0.2390
 3743TIP3    H232721   4.082   3.302   4.332  1.4936  1.8505  0.4461
 3744TIP3   OH232722   0.811   5.339   0.923  0.7543 -0.2207  0.5011
 3744TIP3    H132723   0.836   5.250   0.946  0.0199 -0.5613  0.0115
 3744TIP3    H232724   0.762   5.329   0.842  0.6815  0.6360  0.4385
 3745TIP3   OH232725   6.428   0.749  13.591  0.7732  0.0887  0.5122
 3745TIP3    H132726   6.436   0.743  13.686 -0.2918 -0.4798  0.5723
 3745TIP3    H232727   6.424   0.842  13.573 -1.9533  0.1619  1.2896
 3746TIP3   OH232728   2.564   4.270   5.624  0.0353 -0.5363 -0.4302
 3746TIP3    H132729   2.533   4.209   5.690  2.6802 -0.1738  1.2278
 3746TIP3    H232730   2.607   4.216   5.558 -0.2338 -0.6901 -0.4770
 3747TIP3   OH232731   5.594   5.908   1.657  0.6232  0.1300 -0.1329
 3747TIP3    H132732   5.514   5.914   1.605  1.1195 -0.1514 -0.9289
 3747TIP3    H232733   5.657   5.864   1.601  1.5636  0.9892  0.2161
 3748TIP3   OH232734   2.585   4.673   5.108  0.8615  0.7345  0.4047
 3748TIP3    H132735   2.553   4.613   5.176  1.6697  0.9336  0.9738
 3748TIP3    H232736   2.535   4.753   5.121  1.3757  0.9482  1.1023
 3749TIP3   OH232737   1.061   4.391  12.252 -0.4246 -0.3509  0.1659
 3749TIP3    H132738   1.023   4.314  12.294 -3.3835  1.4222  0.8448
 3749TIP3    H232739   1.087   4.447  12.325 -2.1803  1.1168 -0.3089
 3750TIP3   OH232740   4.371   6.097   0.727  0.0373  0.3090 -0.0135
 3750TIP3    H132741   4.320   6.095   0.646  1.0872 -0.8287 -0.6699
 3750TIP3    H232742   4.339   6.174   0.774 -2.4828 -0.5359 -0.2581
 3751TIP3   OH232743   5.810   4.964  11.261 -0.3093  0.1062  0.1069
 3751TIP3    H132744   5.844   4.881  11.295  0.1672  0.3741  0.2985
 3751TIP3    H232745   5.717   4.949  11.246  0.2765 -1.3057 -2.3996
 3752TIP3   OH232746   2.722   4.621  11.236  0.1615 -0.2792  0.6305
 3752TIP3    H132747   2.752   4.656  11.151  2.6949 -2.5792  0.5025
 3752TIP3    H232748   2.701   4.699  11.287  0.8674  1.2558 -1.3110
 3753TIP3   OH232749   3.133   1.450  15.846 -0.6618 -0.2603  0.2373
 3753TIP3    H132750   3.169   1.491  15.925  0.3246 -0.1224 -0.2800
 3753TIP3    H232751   3.038   1.448  15.861 -0.5062  0.0312  1.2980
 3754TIP3   OH232752   4.639   6.721  11.239  0.0949 -0.4201 -0.0072
 3754TIP3    H132753   4.723   6.705  11.197  1.3181  3.4144  0.8230
 3754TIP3    H232754   4.661   6.751  11.327 -2.0870  1.1573  0.0544
 3755TIP3   OH232755   0.963   4.139   1.371  0.4288 -0.5343  0.0448
 3755TIP3    H132756   0.908   4.139   1.292 -0.0117  1.9533  0.3010
 3755TIP3    H232757   0.914   4.191   1.434  1.9652 -0.3255  1.0894
 3756TIP3   OH232758   2.633   0.102  14.895 -0.0579  0.0753 -0.7735
 3756TIP3    H132759   2.583   0.126  14.973  1.7805  0.4266  0.3396
 3756TIP3    H232760   2.633   0.181  14.841  0.2823  0.4618 -0.2235
 3757TIP3   OH232761   3.771   4.313  16.119 -0.5480 -0.0175  0.8667
 3757TIP3    H132762   3.727   4.260  16.186 -2.6743 -0.3903 -0.7921
 3757TIP3    H232763   3.760   4.403  16.150 -0.1647 -0.2716  1.7841
 3758TIP3   OH232764   4.138   6.742  13.210 -0.2625  0.3392  0.6734
 3758TIP3    H132765   4.130   6.659  13.257  1.7981  0.2744  0.9408
 3758TIP3    H232766   4.167   6.805  13.276  1.9522  0.4071 -0.3323
 3759TIP3   OH232767   2.521   1.026   3.770 -0.2140 -0.3730  0.0858
 3759TIP3    H132768   2.589   0.985   3.823  0.6837 -0.0302 -0.7813
 3759TIP3    H232769   2.558   1.112   3.746 -0.5914 -0.5332 -1.1007
 3760TIP3   OH232770   5.646   1.637  16.109  0.2325  0.2248 -0.4447
 3760TIP3    H132771   5.663   1.591  16.026  1.4256 -1.5455  0.7390
 3760TIP3    H232772   5.554   1.619  16.128  1.1701 -3.4779  1.0164
 3761TIP3   OH232773   5.869   3.126   2.411 -0.0034  0.0512  0.5320
 3761TIP3    H132774   5.916   3.194   2.459  0.5068  0.0285  0.0646
 3761TIP3    H232775   5.938   3.074   2.369 -0.2909 -1.5987  1.9942
 3762TIP3   OH232776   3.240   3.964   3.702  0.3607 -0.0449  0.0933
 3762TIP3    H132777   3.261   3.878   3.739 -1.5702  0.4325  2.4228
 3762TIP3    H232778   3.268   4.027   3.768  2.1768  1.1789 -1.7952
 3763TIP3   OH232779   2.589   2.276  14.633  0.2006  0.0424 -0.1544
 3763TIP3    H132780   2.538   2.349  14.668  0.3736 -0.0899  0.3919
 3763TIP3    H232781   2.635   2.242  14.709 -1.3258 -1.8179 -0.0143
 3764TIP3   OH232782   1.922   2.093  14.958  0.4891  0.7578  0.2749
 3764TIP3    H132783   1.830   2.076  14.937  0.1341  0.6431  1.8518
 3764TIP3    H232784   1.971   2.034  14.901 -0.4276  0.6858 -0.4401
 3765TIP3   OH232785   1.768   1.820   4.036  0.6712 -0.6650 -0.1753
 3765TIP3    H132786   1.744   1.891   4.095 -1.2591  0.4397 -2.1952
 3765TIP3    H232787   1.848   1.783   4.074 -0.0263  0.5287  2.6272
 3766TIP3   OH232788   4.984   3.846  13.669 -0.2230  0.0322 -0.4233
 3766TIP3    H132789   4.944   3.927  13.637 -2.5675 -0.0198  2.2512
 3766TIP3    H232790   5.054   3.875  13.728  0.4643  0.0984 -1.2608
 3767TIP3   OH232791   0.012   3.972   1.019  0.5915  0.0498 -0.0292
 3767TIP3    H132792  -0.023   3.894   1.061 -1.1420  1.3108  0.9562
 3767TIP3    H232793  -0.051   4.041   1.040  0.0680  0.9196 -4.0106
 3768TIP3   OH232794   1.795   2.454  12.705  0.2328 -0.7892  0.0693
 3768TIP3    H132795   1.839   2.420  12.783 -1.4638 -1.4335  0.7719
 3768TIP3    H232796   1.733   2.518  12.739  0.2984 -0.2215 -0.8658
 3769TIP3   OH232797   6.066   4.751  15.779 -0.1926 -0.0337  0.0272
 3769TIP3    H132798   6.136   4.785  15.725  1.3590 -0.0678  1.9553
 3769TIP3    H232799   6.071   4.802  15.860 -2.1051 -0.3407  0.3648
 3770TIP3   OH232800   3.883   5.172  13.278  0.0947 -0.6062 -0.1379
 3770TIP3    H132801   3.944   5.135  13.214 -0.0236  1.7115 -1.6621
 3770TIP3    H232802   3.823   5.100  13.298  0.8612 -1.7271 -1.7325
 3771TIP3   OH232803   4.918   4.216   6.172  0.1557  0.1941  0.5649
 3771TIP3    H132804   4.862   4.292   6.189  1.3446  1.2167  0.0118
 3771TIP3    H232805   4.980   4.214   6.245 -0.9017 -1.2438  1.4483
 3772TIP3   OH232806   1.259   2.302  15.552  0.8539 -0.4592  0.0836
 3772TIP3    H132807   1.251   2.373  15.488 -0.6383  0.0562  0.8133
 3772TIP3    H232808   1.353   2.292  15.565  1.1294  0.3121 -1.2181
 3773TIP3   OH232809   5.056   4.958  16.769 -0.2335  0.2741 -0.5635
 3773TIP3    H132810   5.064   5.053  16.779  1.0447  0.2219 -0.9948
 3773TIP3    H232811   5.070   4.942  16.675  0.8394 -0.4520 -0.2885
 3774TIP3   OH232812   3.935   5.055  10.786  0.3122  0.2355  0.1682
 3774TIP3    H132813   3.912   5.061  10.879 -1.1407  0.1590 -0.1737
 3774TIP3    H232814   3.940   5.146  10.756  3.4200  0.3799  0.9089
 3775TIP3   OH232815   6.290   0.343  16.574 -0.1296  0.0520  0.3618
 3775TIP3    H132816   6.372   0.297  16.557  0.4917  0.6624  1.6128
 3775TIP3    H232817   6.224   0.274  16.579  0.2787 -0.4279 -0.8237
 3776TIP3   OH232818   3.263   5.713  11.556  0.0528  0.4957 -0.0208
 3776TIP3    H132819   3.187   5.761  11.524 -1.4848 -0.8562  1.4987
 3776TIP3    H232820   3.287   5.756  11.638 -0.5059 -0.4948  0.6679
 3777TIP3   OH232821   3.860   1.419  12.165 -0.1255 -0.1796  0.2899
 3777TIP3    H132822   3.899   1.365  12.233 -0.8904 -1.7665 -0.5026
 3777TIP3    H232823   3.768   1.426  12.190 -0.2647 -0.1850 -0.2146
 3778TIP3   OH232824   0.892   2.206   4.851  0.0363  0.1847 -0.0818
 3778TIP3    H132825   0.987   2.192   4.848  0.2236  1.5085 -1.0454
 3778TIP3    H232826   0.863   2.195   4.760 -0.4934  1.3203 -0.0579
 3779TIP3   OH232827   6.759   4.007   6.338  0.1683  0.2478  0.2328
 3779TIP3    H132828   6.756   3.942   6.408 -2.3030  0.6305  0.4960
 3779TIP3    H232829   6.808   4.080   6.376 -1.7123  0.7259  1.8057
 3780TIP3   OH232830   0.511   2.188   5.591 -0.4291  0.4184 -0.5914
 3780TIP3    H132831   0.513   2.176   5.496 -0.7658 -0.0246 -0.5471
 3780TIP3    H232832   0.434   2.138   5.620  0.8297 -1.1767  0.1506
 3781TIP3   OH232833   4.071   3.398  16.257  0.0767  0.3815 -0.3515
 3781TIP3    H132834   4.052   3.336  16.186 -0.7214 -0.2038  0.3552
 3781TIP3    H232835   4.146   3.359  16.302 -1.0293 -0.6099  0.6878
 3782TIP3   OH232836   4.428   4.245  12.750 -0.3728  0.2777  0.3481
 3782TIP3    H132837   4.354   4.255  12.690 -1.6746 -1.3658  1.6230
 3782TIP3    H232838   4.393   4.268  12.836  0.6236 -0.3792  0.9453
 3783TIP3   OH232839   6.597   3.605   2.937  0.0086 -0.0887 -0.6052
 3783TIP3    H132840   6.574   3.574   2.849 -2.9866  1.6244 -0.5134
 3783TIP3    H232841   6.681   3.650   2.925  0.2169 -0.9069 -2.3589
 3784TIP3   OH232842   6.317   0.345  15.626  0.8179 -0.5150  0.3096
 3784TIP3    H132843   6.358   0.322  15.709 -0.6097  0.5063  1.3192
 3784TIP3    H232844   6.298   0.261  15.584 -1.0950 -1.1323  2.3364
 3785TIP3   OH232845   2.889   3.318   2.488 -0.0087 -0.0578 -0.2567
 3785TIP3    H132846   2.934   3.385   2.437  3.6207 -1.9601  0.3601
 3785TIP3    H232847   2.836   3.271   2.424  0.2062  1.0972 -1.3020
 3786TIP3   OH232848   5.650   4.748   2.936  0.1926 -0.1734 -0.3698
 3786TIP3    H132849   5.741   4.716   2.936  0.0948 -0.4702 -1.1792
 3786TIP3    H232850   5.630   4.763   2.844 -1.1110 -1.6384 -0.3543
 3787TIP3   OH232851   2.397   3.781   4.871 -0.4215 -0.1804  0.3697
 3787TIP3    H132852   2.329   3.720   4.900  0.1429 -0.1998  1.7333
 3787TIP3    H232853   2.454   3.791   4.948  2.9196 -2.5985 -1.6572
 3788TIP3   OH232854   0.919   1.565   0.522  0.4128 -0.0273  0.1996
 3788TIP3    H132855   0.973   1.644   0.529  0.7224 -0.3694  1.7977
 3788TIP3    H232856   0.856   1.573   0.594 -1.7961  0.4464 -1.7342
 3789TIP3   OH232857   1.390   3.248   0.925 -0.2665  0.0504  0.6514
 3789TIP3    H132858   1.387   3.221   1.017  0.0320 -0.1774  0.5951
 3789TIP3    H232859   1.300   3.273   0.905 -0.5963 -1.0896  0.6451
 3790TIP3   OH232860   3.944   5.523  16.805  0.9187 -0.2138 -0.0038
 3790TIP3    H132861   3.946   5.514  16.901  1.4498  1.0197  0.1076
 3790TIP3    H232862   3.884   5.595  16.789  1.8253  0.4380 -0.5317
 3791TIP3   OH232863   0.632   0.561  16.741 -0.1908 -0.3856 -0.1858
 3791TIP3    H132864   0.630   0.476  16.784  0.1349  0.5926  1.8261
 3791TIP3    H232865   0.567   0.613  16.787 -0.3163  0.4989 -1.3284
 3792TIP3   OH232866   1.192   2.239  16.478 -0.5148  0.4031  0.5422
 3792TIP3    H132867   1.265   2.205  16.531 -1.5465  0.7939  2.2532
 3792TIP3    H232868   1.193   2.184  16.400  2.7719  1.5777 -0.3553
 3793TIP3   OH232869   1.371   2.865   2.543  0.3265  0.3465  0.0553
 3793TIP3    H132870   1.340   2.830   2.459  0.3142  0.9386 -0.1873
 3793TIP3    H232871   1.387   2.958   2.526 -0.6099  0.6788  0.9575
 3794TIP3   OH232872   3.695   2.757   3.953  0.0138  0.0840  0.1099
 3794TIP3    H132873   3.664   2.670   3.978 -1.2523  0.1713 -1.0982
 3794TIP3    H232874   3.655   2.816   4.017 -0.1352 -0.0980  0.1850
 3795TIP3   OH232875   6.341   2.702  14.075  0.2859 -0.0311  0.3036
 3795TIP3    H132876   6.378   2.614  14.066 -1.1488 -0.6160 -0.0516
 3795TIP3    H232877   6.401   2.758  14.026  0.2734 -1.0919 -0.9826
 3796TIP3   OH232878   3.124   5.070   6.699 -0.3848  0.2931  0.5358
 3796TIP3    H132879   3.085   4.991   6.736 -1.8776 -0.2453 -2.0405
 3796TIP3    H232880   3.050   5.131   6.691  0.0645  0.6849 -0.7256
 3797TIP3   OH232881   5.170   6.253   2.466  0.0319  0.0967  0.2423
 3797TIP3    H132882   5.116   6.191   2.514 -0.2029  0.6420  0.6830
 3797TIP3    H232883   5.143   6.243   2.375 -0.2121 -0.2406  0.3515
 3798TIP3   OH232884   0.721   3.059   5.133 -0.2324 -0.5806  0.1726
 3798TIP3    H132885   0.800   3.112   5.143 -0.8599  0.6328 -1.1188
 3798TIP3    H232886   0.747   2.971   5.162  0.9752  0.2914  1.7964
 3799TIP3   OH232887   1.947   6.740  16.132 -0.4429 -0.2919  0.3965
 3799TIP3    H132888   1.898   6.740  16.214  0.0890 -2.9229  0.7527
 3799TIP3    H232889   2.030   6.784  16.154 -0.5964 -0.3406  1.0878
 3800TIP3   OH232890   2.325   3.102  16.404  0.0891 -0.1285  0.8593
 3800TIP3    H132891   2.231   3.088  16.409 -0.2052  1.0569 -0.9054
 3800TIP3    H232892   2.336   3.197  16.413  0.7507  0.2332 -3.0960
 3801TIP3   OH232893   0.781   2.604  16.839  0.0197 -0.0225  0.8291
 3801TIP3    H132894   0.699   2.602  16.789 -0.3553 -0.0811  1.4385
 3801TIP3    H232895   0.818   2.516  16.828  0.5364  0.3330 -0.3194
 3802TIP3   OH232896   6.617   3.390  13.875  0.6604  0.2625  1.0788
 3802TIP3    H132897   6.666   3.461  13.834  0.5433  0.7948  1.8702
 3802TIP3    H232898   6.540   3.379  13.820  1.0794  0.1963  0.4931
 3803TIP3   OH232899   1.795   2.364  11.221  0.1624 -0.4549 -0.0650
 3803TIP3    H132900   1.800   2.454  11.253  0.3452 -0.1674 -0.8937
 3803TIP3    H232901   1.701   2.346  11.215  0.1169 -0.9711  1.8958
 3804TIP3   OH232902   0.803   6.169  13.590  0.2191 -0.3318  0.3263
 3804TIP3    H132903   0.774   6.210  13.671  3.1909  2.3125  0.1260
 3804TIP3    H232904   0.766   6.223  13.521  0.0409 -0.9237 -0.0473
 3805TIP3   OH232905   0.335   2.277  11.723  0.0518 -0.4824  0.0451
 3805TIP3    H132906   0.388   2.324  11.658 -0.7691  2.6905  1.5688
 3805TIP3    H232907   0.399   2.237  11.782  0.8086  1.0226  0.2723
 3806TIP3   OH232908   5.194   4.013   3.731  0.0649 -0.3403 -0.1875
 3806TIP3    H132909   5.280   4.026   3.692  0.1963 -1.1420 -0.1751
 3806TIP3    H232910   5.212   3.972   3.815 -0.4136 -2.3434 -1.0380
 3807TIP3   OH232911   4.369   0.556  15.346  0.0436  0.0447 -0.6283
 3807TIP3    H132912   4.387   0.579  15.437 -0.7579  1.6638 -0.8551
 3807TIP3    H232913   4.450   0.576  15.299 -0.7062  2.7486 -0.8579
 3808TIP3   OH232914   1.821   6.729  16.372  0.6706  0.2805  0.6585
 3808TIP3    H132915   1.861   6.650  16.409 -3.3573 -1.1113  2.2898
 3808TIP3    H232916   1.848   6.799  16.432  0.9447 -0.5619  1.5379
 3809TIP3   OH232917   3.518   1.989   4.638  0.2470 -0.0310  0.4566
 3809TIP3    H132918   3.598   1.967   4.686  1.0212  0.7423 -0.4801
 3809TIP3    H232919   3.468   2.042   4.700  0.4927 -0.4396  1.0151
 3810TIP3   OH232920   3.759   3.029  15.991  0.0253  0.3005 -0.3490
 3810TIP3    H132921   3.751   2.934  15.991 -0.9485  0.3762 -1.4546
 3810TIP3    H232922   3.811   3.050  15.914  0.1595  0.6744 -0.1608
 3811TIP3   OH232923   6.542   4.567  11.444 -0.6394 -0.2078 -0.0660
 3811TIP3    H132924   6.546   4.629  11.371  2.6154 -1.5137 -1.0858
 3811TIP3    H232925   6.581   4.614  11.518  1.0988 -0.7013 -0.6359
 3812TIP3   OH232926   1.934   3.737   0.724 -0.3912 -0.2073 -0.2203
 3812TIP3    H132927   1.903   3.711   0.810 -0.8845  1.0840 -0.0018
 3812TIP3    H232928   1.858   3.729   0.667 -0.1463 -0.7409 -0.4837
 3813TIP3   OH232929   2.584   4.919  16.480 -0.0285 -0.0429  0.4485
 3813TIP3    H132930   2.622   4.876  16.403 -0.2331  1.9926 -0.8095
 3813TIP3    H232931   2.659   4.941  16.535  0.2014 -0.5367  0.3364
 3814TIP3   OH232932   6.592   1.328  12.075  0.2857 -0.3600  0.1320
 3814TIP3    H132933   6.611   1.397  12.012 -1.8692  0.0171 -0.1508
 3814TIP3    H232934   6.645   1.254  12.047  1.9076  0.8712 -0.1089
 3815TIP3   OH232935   6.399   1.700  14.755  0.4403 -0.2610  0.0572
 3815TIP3    H132936   6.402   1.794  14.736  1.0715  0.2632  2.4759
 3815TIP3    H232937   6.310   1.674  14.732  0.8851  0.4453 -2.6341
 3816TIP3   OH232938   6.585   4.526   2.840 -0.7498  0.0820  0.1259
 3816TIP3    H132939   6.651   4.583   2.800 -0.9579 -0.5309 -1.0897
 3816TIP3    H232940   6.578   4.451   2.781 -0.1120 -1.4728  1.9802
 3817TIP3   OH232941   1.842   4.888  13.837 -0.3056  0.1103 -0.3992
 3817TIP3    H132942   1.929   4.849  13.824 -0.1269  1.0332 -2.0070
 3817TIP3    H232943   1.833   4.893  13.933  1.0679 -0.7557 -0.2113
 3818TIP3   OH232944   3.204   2.232  11.730 -0.3178  0.4149 -0.0437
 3818TIP3    H132945   3.233   2.159  11.785 -2.8689 -0.5123  0.1414
 3818TIP3    H232946   3.268   2.234  11.659 -0.1007 -1.9186  0.0249
 3819TIP3   OH232947   2.434   2.624   0.956 -0.5039  0.3322  0.1854
 3819TIP3    H132948   2.385   2.594   1.032  0.0352  0.9101  0.7651
 3819TIP3    H232949   2.485   2.699   0.987  0.1159  0.2584 -0.6082
 3820TIP3   OH232950   6.230   6.758  13.303  0.7756  0.1832 -0.5187
 3820TIP3    H132951   6.273   6.675  13.322 -0.7005 -0.3647  0.5508
 3820TIP3    H232952   6.137   6.742  13.321  0.4498  2.0076 -0.4213
 3821TIP3   OH232953   1.338   6.590  14.241  0.1926  0.2417  0.1151
 3821TIP3    H132954   1.401   6.659  14.220  0.1752  0.4264  0.6608
 3821TIP3    H232955   1.261   6.637  14.274  0.7379 -0.1130  1.9113
 3822TIP3   OH232956   3.776   3.663  12.423  0.2415  0.9506  0.1001
 3822TIP3    H132957   3.761   3.643  12.330  1.1162  2.4259 -0.3865
 3822TIP3    H232958   3.705   3.619  12.469 -1.5754  2.1217 -1.5138
 3823TIP3   OH232959   4.685   6.473  13.149  0.1134 -0.3321  0.3951
 3823TIP3    H132960   4.591   6.473  13.167  0.1716  0.7331  0.7130
 3823TIP3    H232961   4.700   6.553  13.098  0.6386 -1.1623 -0.7985
 3824TIP3   OH232962   0.627   3.080   1.684  0.2578  0.4827 -0.1673
 3824TIP3    H132963   0.571   3.022   1.736 -0.0827 -1.1687 -2.3411
 3824TIP3    H232964   0.566   3.138   1.640  0.3624 -0.0461 -1.0152
 3825TIP3   OH232965   6.689   2.370   0.507 -0.2588 -0.2225 -0.1689
 3825TIP3    H132966   6.733   2.431   0.448  1.2755 -1.9975 -0.9061
 3825TIP3    H232967   6.604   2.353   0.466 -0.5009  1.0085 -0.2023
 3826TIP3   OH232968   2.776   0.882   3.956 -0.1359  0.3182 -0.3430
 3826TIP3    H132969   2.793   0.924   4.040  0.6581 -0.7510  0.0427
 3826TIP3    H232970   2.773   0.788   3.976 -0.5881  0.1054 -1.3956
 3827TIP3   OH232971   6.496   2.623   1.285 -0.0329 -0.5062 -0.4727
 3827TIP3    H132972   6.403   2.636   1.262 -0.2706 -1.8111 -0.2458
 3827TIP3    H232973   6.539   2.608   1.201  0.1625  1.1398 -0.6914
 3828TIP3   OH232974   1.185   5.499  11.471  0.3305 -0.2233  0.4231
 3828TIP3    H132975   1.138   5.492  11.554  1.0253 -3.1650  0.6256
 3828TIP3    H232976   1.263   5.445  11.483  1.3294  0.7075 -1.5796
 3829TIP3   OH232977   0.850   6.019  16.381 -0.0532  0.1952 -0.0016
 3829TIP3    H132978   0.910   6.010  16.307  0.3946  0.2161  0.3615
 3829TIP3    H232979   0.875   5.950  16.442 -0.7163 -0.1101 -0.0693
 3830TIP3   OH232980   3.307   3.081  12.063  0.8432 -0.0844  0.2301
 3830TIP3    H132981   3.392   3.116  12.038 -0.6906  2.6159 -1.3968
 3830TIP3    H232982   3.297   3.001  12.011  1.4743  0.7426 -1.1794
 3831TIP3   OH232983   3.560   1.038  14.551 -0.3145  0.5785  0.0182
 3831TIP3    H132984   3.592   1.012  14.465 -0.9771 -1.7249  0.4200
 3831TIP3    H232985   3.467   1.017  14.550 -0.4515  1.0980  1.0716
 3832TIP3   OH232986   4.247   2.328  13.151 -0.1504  0.2990 -0.0207
 3832TIP3    H132987   4.303   2.347  13.076  0.4802 -0.9353  0.1426
 3832TIP3    H232988   4.190   2.258  13.121  0.5341 -0.6371  0.8645
 3833TIP3   OH232989   6.448   5.628  14.230 -0.6186 -0.1169 -0.4704
 3833TIP3    H132990   6.383   5.593  14.169  0.2616 -0.3736 -1.2903
 3833TIP3    H232991   6.513   5.670  14.173 -0.5497  0.9465  0.3889
 3834TIP3   OH232992   4.830   2.428   6.346 -0.3774 -0.4692 -0.0725
 3834TIP3    H132993   4.925   2.433   6.361 -0.3254 -2.1637  0.2239
 3834TIP3    H232994   4.799   2.517   6.364  1.0824 -0.0105  0.3075
 3835TIP3   OH232995   4.622   2.249  11.351 -0.2183 -0.0960 -0.2896
 3835TIP3    H132996   4.674   2.170  11.369  1.4120  0.8978 -0.5299
 3835TIP3    H232997   4.646   2.309  11.422 -2.5579 -0.3122  0.7288
 3836TIP3   OH232998   1.920   3.987  12.748  0.0198 -0.2760 -0.4160
 3836TIP3    H132999   1.990   4.017  12.805 -0.6697  1.8025 -0.6345
 3836TIP3    H233000   1.921   4.048  12.674 -2.0439 -0.1718 -0.3953
 3837TIP3   OH233001   4.592   3.057   2.553 -0.0023  0.8568  0.1090
 3837TIP3    H133002   4.636   3.044   2.637  1.7790 -0.7764 -1.0284
 3837TIP3    H233003   4.528   2.986   2.548 -0.1103  0.9546  0.0778
 3838TIP3   OH233004   0.607   4.260   0.456 -0.0547 -0.0695 -0.2677
 3838TIP3    H133005   0.534   4.311   0.489  1.8876  1.4376  1.7927
 3838TIP3    H233006   0.652   4.318   0.395 -0.4329 -0.9214 -1.3813
 3839TIP3   OH233007   0.508   3.867   3.913  0.7469  0.2638 -0.2364
 3839TIP3    H133008   0.467   3.909   3.989 -1.0641 -2.3496  0.3081
 3839TIP3    H233009   0.514   3.775   3.937  3.0475 -0.1081 -2.0616
 3840TIP3   OH233010   6.030   3.690   2.960  0.5243  1.0828  0.1780
 3840TIP3    H133011   6.101   3.625   2.969 -0.0335  0.1472 -1.8265
 3840TIP3    H233012   6.073   3.774   2.973  2.0057  0.5138 -0.8385
 3841TIP3   OH233013   2.516   3.554  14.968 -0.1301  0.2007  0.7119
 3841TIP3    H133014   2.502   3.618  15.037 -1.0703  0.7657  0.0044
 3841TIP3    H233015   2.470   3.589  14.891  2.6202  0.5994 -0.8153
 3842TIP3   OH233016   1.245   3.230   3.995 -0.1730  0.2411  0.3011
 3842TIP3    H133017   1.205   3.230   4.082  0.5371  0.1552  0.6346
 3842TIP3    H233018   1.227   3.143   3.960 -1.3193  0.6026 -0.0521
 3843TIP3   OH233019   4.824   0.288  11.010 -0.5053  0.0723  0.3062
 3843TIP3    H133020   4.863   0.205  10.983 -0.3610  0.5006 -0.8894
 3843TIP3    H233021   4.896   0.351  11.001 -1.0445  0.5981 -0.3749
 3844TIP3   OH233022   2.016   1.650  15.123 -0.0472 -0.4245  0.2055
 3844TIP3    H133023   1.933   1.684  15.089  0.9391  0.8726 -0.9670
 3844TIP3    H233024   2.029   1.697  15.205  0.6623  1.1052 -0.7629
 3845TIP3   OH233025   0.971   4.852  17.174  0.3362  0.1753 -0.7822
 3845TIP3    H133026   0.918   4.887  17.247 -1.3472 -1.4799 -1.1758
 3845TIP3    H233027   1.024   4.783  17.214 -2.0064 -2.0678 -1.4443
 3846TIP3   OH233028   5.897   5.646  12.320  0.0943  0.2070  0.5505
 3846TIP3    H133029   5.948   5.629  12.399 -0.2560  2.8176  1.3604
 3846TIP3    H233030   5.877   5.739  12.323 -0.6819  0.1816 -2.1799
 3847TIP3   OH233031   5.324   0.151  16.793  0.7033 -0.1847  0.0104
 3847TIP3    H133032   5.389   0.081  16.782  0.7563 -0.1637  0.1774
 3847TIP3    H233033   5.295   0.141  16.884  0.6689 -0.0229  0.0147
 3848TIP3   OH233034   0.033   0.834  14.869  0.2980 -0.0062  0.2996
 3848TIP3    H133035   0.052   0.749  14.909 -1.9734 -0.9431 -0.5384
 3848TIP3    H233036  -0.015   0.882  14.937 -0.1367 -0.1376  0.0882
 3849TIP3   OH233037   4.111   2.100   0.161 -0.6013  0.1695 -0.0554
 3849TIP3    H133038   4.044   2.143   0.214 -0.4035 -0.2103  0.5068
 3849TIP3    H233039   4.190   2.152   0.175 -0.5559  0.0849  0.0011
 3850TIP3   OH233040   1.627   4.053   5.121 -0.2735 -0.0058 -0.2622
 3850TIP3    H133041   1.661   3.988   5.060 -0.8916  1.5234 -2.3047
 3850TIP3    H233042   1.558   4.008   5.170 -0.8684 -0.7974 -1.8275
 3851TIP3   OH233043   1.488   6.690  14.551 -0.1051  0.3075 -0.1362
 3851TIP3    H133044   1.417   6.714  14.610  0.6817  1.6754  0.2931
 3851TIP3    H233045   1.551   6.643  14.606 -0.6579 -0.8736 -0.5063
 3852TIP3   OH233046   5.033   0.628  11.095  0.4515  0.1602  0.4038
 3852TIP3    H133047   5.026   0.691  11.168  0.9288 -1.6360  2.0401
 3852TIP3    H233048   5.119   0.644  11.058  0.1348  1.2172  0.1019
 3853TIP3   OH233049   4.698   2.545  16.302 -0.3389 -0.3128 -0.3139
 3853TIP3    H133050   4.610   2.543  16.340 -1.3416 -2.1813 -2.6186
 3853TIP3    H233051   4.690   2.495  16.221  2.5364  0.6842 -1.2633
 3854TIP3   OH233052   6.306   5.402  16.274  0.2313 -0.5387 -0.1061
 3854TIP3    H133053   6.344   5.457  16.342 -0.6596 -1.1313  0.8984
 3854TIP3    H233054   6.212   5.409  16.288  0.0552 -0.9081 -1.0905
 3855TIP3   OH233055   6.632   0.440  15.072  0.3103  0.3292  0.3289
 3855TIP3    H133056   6.714   0.392  15.062 -0.0896 -0.1120 -0.9139
 3855TIP3    H233057   6.659   0.529  15.095  1.2104  0.6587 -1.8564
 3856TIP3   OH233058   2.152   0.413  11.938  0.8763  0.4087  1.0113
 3856TIP3    H133059   2.218   0.378  11.997  1.0871 -1.0721 -0.0727
 3856TIP3    H233060   2.134   0.342  11.877  1.3057  2.1919 -1.2545
 3857TIP3   OH233061   0.638   0.534  11.392  0.5113 -0.3297 -0.5035
 3857TIP3    H133062   0.577   0.467  11.360 -1.6981  0.0911  2.5986
 3857TIP3    H233063   0.598   0.617  11.366  0.0146 -0.0769  0.9919
 3858TIP3   OH233064   1.692   4.076   2.681  0.4202  0.1574  0.3740
 3858TIP3    H133065   1.635   4.153   2.691  0.4495  0.1018  1.0225
 3858TIP3    H233066   1.646   4.006   2.728  1.2077  0.2096  1.2341
 3859TIP3   OH233067   2.872   6.176  14.376 -0.4310 -0.4276 -0.3767
 3859TIP3    H133068   2.838   6.226  14.301 -1.4603  1.3338  1.2306
 3859TIP3    H233069   2.867   6.237  14.449 -0.5068 -2.4930  1.3700
 3860TIP3   OH233070   0.004   6.061   3.157  0.4508 -0.2634  0.7147
 3860TIP3    H133071   0.044   6.136   3.201  2.9768 -0.4025 -1.2240
 3860TIP3    H233072  -0.081   6.093   3.126  1.4009  1.7634  0.1038
 3861TIP3   OH233073   1.104   2.065  15.428 -0.8655  0.1829  0.1946
 3861TIP3    H133074   1.147   2.149  15.445 -0.1737  0.0367 -0.7497
 3861TIP3    H233075   1.128   2.010  15.502  1.7208 -0.3108 -0.9466
 3862TIP3   OH233076   0.804   6.594   5.726  0.2628 -0.0771  0.4253
 3862TIP3    H133077   0.738   6.657   5.697  0.4307  0.2489  0.7543
 3862TIP3    H233078   0.794   6.520   5.666  0.5558  0.5627 -0.4186
 3863TIP3   OH233079   4.653   4.800  12.119  0.0194 -0.7645 -0.2476
 3863TIP3    H133080   4.559   4.815  12.120  0.3637  1.6538  1.7927
 3863TIP3    H233081   4.687   4.859  12.052  0.3459  0.5727  1.0528
 3864TIP3   OH233082   5.291   4.295   5.492  0.7550  0.0868 -0.0364
 3864TIP3    H133083   5.334   4.284   5.407 -0.4618 -0.9720 -0.5317
 3864TIP3    H233084   5.347   4.248   5.553  0.8533 -0.4018 -0.4980
 3865TIP3   OH233085   1.352   0.711   2.501  0.2700  0.3289  0.3136
 3865TIP3    H133086   1.437   0.677   2.527  0.4742 -0.0044 -0.7490
 3865TIP3    H233087   1.293   0.636   2.506  0.5662 -0.0450 -1.3162
 3866TIP3   OH233088   1.265   2.501   4.973 -0.2519 -0.1500 -0.2744
 3866TIP3    H133089   1.194   2.465   5.026 -0.6359  0.0308 -0.6630
 3866TIP3    H233090   1.266   2.595   4.993  2.1576 -0.6696  2.3922
 3867TIP3   OH233091   5.105   0.596   5.009  0.1984 -0.0667  0.3931
 3867TIP3    H133092   5.123   0.664   4.944  1.3480 -0.2575  0.4865
 3867TIP3    H233093   5.192   0.568   5.038 -0.2819 -1.0092  0.9466
 3868TIP3   OH233094   5.290   1.324  12.483 -0.1382  0.4669  0.3565
 3868TIP3    H133095   5.367   1.369  12.518 -0.2436  1.5874 -0.8047
 3868TIP3    H233096   5.235   1.395  12.449 -0.2298 -0.5315 -1.6683
 3869TIP3   OH233097   2.265   3.231   5.601  0.4692  0.7392 -0.5721
 3869TIP3    H133098   2.330   3.161   5.597 -1.2862 -0.9439 -0.5222
 3869TIP3    H233099   2.247   3.252   5.509 -0.9144 -0.7361 -0.6605
 3870TIP3   OH233100   4.054   1.420   3.945 -0.1561  0.7234 -0.2889
 3870TIP3    H133101   3.995   1.367   3.999 -0.0420 -1.0077 -1.8092
 3870TIP3    H233102   4.131   1.435   4.000  0.3421 -1.7859 -0.2275
 3871TIP3   OH233103   0.148   2.163  15.562  0.3937 -0.4086 -0.1137
 3871TIP3    H133104   0.070   2.219  15.561  0.8150  0.1965  0.6038
 3871TIP3    H233105   0.168   2.149  15.469 -1.0447 -1.2560 -0.3147
 3872TIP3   OH233106   0.321   1.285   4.976  0.1417 -0.0444 -0.9028
 3872TIP3    H133107   0.229   1.259   4.970 -0.5428  2.4672 -1.6460
 3872TIP3    H233108   0.336   1.295   5.070  0.1580 -2.1438 -0.6652
 3873TIP3   OH233109   4.676   2.399  13.755 -0.2788  0.0771 -0.3235
 3873TIP3    H133110   4.679   2.424  13.848  2.1257  0.1547 -0.3982
 3873TIP3    H233111   4.593   2.435  13.723 -0.9283  0.4292  1.6772
 3874TIP3   OH233112   6.515   5.867   5.301  0.2859 -0.4332 -0.1582
 3874TIP3    H133113   6.551   5.807   5.366  0.1294 -0.8301 -0.4335
 3874TIP3    H233114   6.520   5.954   5.342  0.1356 -0.6877  0.4021
 3875TIP3   OH233115   3.392   5.320  11.197 -0.0289  0.4413 -0.5943
 3875TIP3    H133116   3.390   5.230  11.230  0.3383 -0.4507 -2.9583
 3875TIP3    H233117   3.303   5.337  11.167 -0.6093  1.5952  1.6398
 3876TIP3   OH233118   6.149   5.278   5.757 -0.0719 -1.0368  0.0590
 3876TIP3    H133119   6.131   5.344   5.690  0.6678 -0.0738  0.8033
 3876TIP3    H233120   6.223   5.313   5.806 -2.2050 -0.5182  3.0246
 3877TIP3   OH233121   5.147   0.074  13.781  0.0201 -0.5425  0.6106
 3877TIP3    H133122   5.231   0.031  13.766 -1.1760 -2.6260 -0.3046
 3877TIP3    H233123   5.118   0.043  13.867  0.5394  0.8088  1.2903
 3878TIP3   OH233124   0.861   5.090  11.599  0.0248  0.1985  0.1988
 3878TIP3    H133125   0.833   5.113  11.687 -2.4870 -1.8157  0.0148
 3878TIP3    H233126   0.914   5.011  11.609 -0.5838 -0.2567 -0.1125
 3879TIP3   OH233127   1.667   1.963  11.692 -0.0577  0.0700  0.0035
 3879TIP3    H133128   1.604   1.921  11.634  0.1080 -0.8502  0.4865
 3879TIP3    H233129   1.627   2.047  11.714 -0.5594  0.0025 -0.6632
 3880TIP3   OH233130   6.789   6.052  10.892 -0.3432 -0.3889 -0.0664
 3880TIP3    H133131   6.859   6.099  10.845  0.5864 -0.8567  0.8341
 3880TIP3    H233132   6.709   6.082  10.850  0.5110 -1.4135 -2.5166
 3881TIP3   OH233133   2.295   2.291  14.471  0.6419 -0.2624  0.7942
 3881TIP3    H133134   2.249   2.214  14.505  2.0221 -0.7605  1.5844
 3881TIP3    H233135   2.384   2.282  14.505  1.1859  0.9529 -0.2845
 3882TIP3   OH233136   2.889   1.360   4.313 -0.2173 -0.3814 -0.0605
 3882TIP3    H133137   2.964   1.335   4.367  0.1674  0.2772 -0.2980
 3882TIP3    H233138   2.911   1.330   4.225  0.7460  1.7945 -0.5841
 3883TIP3   OH233139   2.636   0.857   4.377 -0.3947  0.5781 -0.0881
 3883TIP3    H133140   2.681   0.813   4.449 -0.0229  0.9407 -0.0949
 3883TIP3    H233141   2.671   0.946   4.378  0.3615  0.3163 -1.3539
 3884TIP3   OH233142   0.719   1.138   5.527  0.2908 -0.1909  0.0392
 3884TIP3    H133143   0.797   1.099   5.565  1.5477 -0.2434 -2.5204
 3884TIP3    H233144   0.672   1.065   5.488  0.8905  0.3536 -1.7262
 3885TIP3   OH233145   3.993   0.867   1.001 -0.3106  0.1230  0.2145
 3885TIP3    H133146   3.923   0.901   1.057  0.0320  0.2285  0.5842
 3885TIP3    H233147   4.034   0.945   0.964  0.0394  0.0950  0.5298
 3886TIP3   OH233148   4.020   5.073   2.821 -0.1162  0.2401 -1.0101
 3886TIP3    H133149   3.984   5.043   2.905  1.0887  0.7416 -0.2984
 3886TIP3    H233150   4.112   5.090   2.840 -0.4858  3.2507 -1.6744
 3887TIP3   OH233151   0.693   5.820  15.044 -0.3640  0.2611  0.3665
 3887TIP3    H133152   0.665   5.861  15.126 -0.5610  0.3294  0.2684
 3887TIP3    H233153   0.611   5.804  14.997 -0.3204 -0.6634  0.6002
 3888TIP3   OH233154   4.468   1.518  12.513 -0.6244 -0.6506  0.0154
 3888TIP3    H133155   4.539   1.470  12.471 -0.9529 -1.1116 -0.0132
 3888TIP3    H233156   4.488   1.610  12.496  0.0423 -0.7724  0.1355
 3889TIP3   OH233157   3.541   3.154  16.136  0.1624 -0.3154 -0.1615
 3889TIP3    H133158   3.528   3.153  16.231 -1.4073 -0.6942 -0.3662
 3889TIP3    H233159   3.611   3.091  16.120 -0.0863 -0.8025  0.6663
 3890TIP3   OH233160   3.730   0.679   4.911  0.5947  0.3304  0.0611
 3890TIP3    H133161   3.790   0.610   4.881 -0.1441 -0.4028  0.2470
 3890TIP3    H233162   3.692   0.714   4.830  0.0117 -0.3594  0.0318
 3891TIP3   OH233163   1.924   4.186  12.554 -0.4637 -0.6806 -0.0573
 3891TIP3    H133164   1.961   4.147  12.475  1.1050 -1.0309  0.8271
 3891TIP3    H233165   1.978   4.264  12.569 -0.6606 -0.7025  0.7581
 3892TIP3   OH233166   6.721   5.962  14.797 -0.5946 -0.4083  0.0675
 3892TIP3    H133167   6.643   6.015  14.780 -1.3103 -1.1286  1.0672
 3892TIP3    H233168   6.780   6.021  14.843 -1.3149 -0.4021  1.0051
 3893TIP3   OH233169   0.836   1.359   4.860  0.3988  0.5049 -0.1611
 3893TIP3    H133170   0.899   1.336   4.928  0.4487  2.2443  0.4112
 3893TIP3    H233171   0.751   1.358   4.904  0.3315  0.7263 -0.2806
 3894TIP3   OH233172   6.814   6.041  17.214  0.5891 -0.1063  0.0467
 3894TIP3    H133173   6.723   6.042  17.244 -0.5211 -1.5864 -2.9802
 3894TIP3    H233174   6.838   6.133  17.206  0.7584  0.3489  4.6223
 3895TIP3   OH233175   1.964   0.777  13.381  0.6915 -0.1068  0.2530
 3895TIP3    H133176   1.919   0.794  13.299  0.0796  2.2955  1.0381
 3895TIP3    H233177   2.057   0.793  13.361  0.2715  3.0940  0.6276
 3896TIP3   OH233178   6.774   0.545  12.043 -0.2326 -0.2169  0.7820
 3896TIP3    H133179   6.752   0.562  11.951 -0.0794  0.9569  0.9528
 3896TIP3    H233180   6.868   0.563  12.049 -0.2779 -0.1193  1.2106
 3897TIP3   OH233181   2.948   2.785   4.961 -0.2053  0.6453 -0.4644
 3897TIP3    H133182   2.953   2.858   4.899 -2.3225  1.5603  0.4071
 3897TIP3    H233183   2.954   2.706   4.907  1.5589  1.4434 -1.4643
 3898TIP3   OH233184   2.680   4.223   5.184 -0.2679 -0.5346 -0.3480
 3898TIP3    H133185   2.767   4.194   5.212  1.7212  2.2707 -3.3017
 3898TIP3    H233186   2.666   4.179   5.100 -1.4479 -0.4823 -0.1861
 3899TIP3   OH233187   2.689   0.037  13.894  0.7479 -0.0999  0.0494
 3899TIP3    H133188   2.779   0.019  13.867  1.0087  2.5820 -0.9566
 3899TIP3    H233189   2.697   0.066  13.985  0.9212  0.4341 -0.1394
 3900TIP3   OH233190   4.615   3.439   5.883  0.0430 -0.3070  0.3319
 3900TIP3    H133191   4.541   3.495   5.858 -0.1928 -0.8487 -0.1811
 3900TIP3    H233192   4.676   3.447   5.810  0.4012 -0.0272  0.6606
 3901TIP3   OH233193   0.901   1.909   1.756 -0.0390  0.6892 -0.2141
 3901TIP3    H133194   0.958   1.842   1.793  2.0298  1.7746 -1.3435
 3901TIP3    H233195   0.946   1.939   1.677 -1.4246  2.6706 -0.3115
 3902TIP3   OH233196   5.095   4.322   6.371 -0.5052  0.5860 -0.0751
 3902TIP3    H133197   5.181   4.283   6.358 -1.1982 -1.7903  2.1046
 3902TIP3    H233198   5.113   4.405   6.415  0.6227 -0.6360  1.8476
 3903TIP3   OH233199   1.217   6.495  13.888  0.0013  0.5807  0.0560
 3903TIP3    H133200   1.145   6.547  13.925  1.3389  2.4525  0.0528
 3903TIP3    H233201   1.230   6.531  13.801 -0.2736 -0.9939 -0.6496
 3904TIP3   OH233202   6.195   0.046  15.125  0.0658 -0.2557  0.1282
 3904TIP3    H133203   6.206  -0.011  15.201  2.1429 -0.5463 -0.3622
 3904TIP3    H233204   6.256   0.119  15.141  0.5734 -0.3592 -1.2793
 3905TIP3   OH233205   3.820   4.118  14.111 -0.1418  0.5554 -0.0779
 3905TIP3    H133206   3.906   4.161  14.114  0.1083  0.0187  0.8656
 3905TIP3    H233207   3.763   4.174  14.164 -0.3254  0.8200 -0.5599
 3906TIP3   OH233208   2.291   3.097  14.261  0.1006  0.0835  0.2042
 3906TIP3    H133209   2.349   3.061  14.328 -1.9654 -2.2246  0.8143
 3906TIP3    H233210   2.309   3.045  14.183  0.3728  0.7994 -0.2168
 3907TIP3   OH233211   5.916   5.702  16.642  0.0224  0.4995  0.2676
 3907TIP3    H133212   5.840   5.734  16.690 -0.3341 -0.3138  0.2436
 3907TIP3    H233213   5.881   5.635  16.583  0.7001  0.3695  0.0071
 3908TIP3   OH233214   2.577   0.854  12.600  0.0985 -0.0795  0.0481
 3908TIP3    H133215   2.658   0.803  12.600 -0.5042 -1.0671  0.4550
 3908TIP3    H233216   2.592   0.923  12.664  1.5285  1.2792 -1.6854
 3909TIP3   OH233217   1.151   3.895  12.300  0.1850  0.3899  0.5575
 3909TIP3    H133218   1.146   3.991  12.300  3.7599  0.6283  1.8645
 3909TIP3    H233219   1.190   3.873  12.216 -1.9874 -0.0746 -0.3732
 3910TIP3   OH233220   0.907   2.029   3.435 -0.0284 -0.6116  0.0160
 3910TIP3    H133221   0.874   1.948   3.397  0.5829 -1.5260  1.4207
 3910TIP3    H233222   0.843   2.051   3.504  1.6002 -1.7299  1.9166
 3911TIP3   OH233223   6.554   0.286  13.018 -0.2109  0.2034 -0.0277
 3911TIP3    H133224   6.544   0.314  13.109  1.9786  1.4197 -0.1242
 3911TIP3    H233225   6.621   0.344  12.982  0.9350 -2.0333 -1.6382
 3912TIP3   OH233226   4.102   6.145  13.844  0.3656  0.1561  0.4648
 3912TIP3    H133227   4.048   6.090  13.788 -0.0297  0.0499  0.9462
 3912TIP3    H233228   4.166   6.085  13.882  0.6006  0.2183  0.1643
 3913TIP3   OH233229   6.793   6.470   2.972 -0.2378 -0.2440 -0.2848
 3913TIP3    H133230   6.885   6.452   2.951 -0.5901 -1.7456 -0.6261
 3913TIP3    H233231   6.748   6.464   2.888 -0.9309 -1.5067  0.1512
 3914TIP3   OH233232   5.255   3.732   2.152 -0.2643  0.4640  0.4890
 3914TIP3    H133233   5.163   3.760   2.145 -0.8328 -1.4378  0.1081
 3914TIP3    H233234   5.302   3.791   2.093 -1.8215 -1.0003 -2.3305
 3915TIP3   OH233235   3.671   0.647  11.588  0.4471  0.2229  0.5564
 3915TIP3    H133236   3.590   0.596  11.598 -0.3014  1.0623 -1.0250
 3915TIP3    H233237   3.680   0.659  11.493  3.3450 -1.3036  0.5898
 3916TIP3   OH233238   3.519   1.763   5.275 -0.0682 -0.3089  0.4110
 3916TIP3    H133239   3.493   1.832   5.214 -1.3222 -0.7235  0.4729
 3916TIP3    H233240   3.569   1.701   5.221  1.2674  0.7535  0.4072
 3917TIP3   OH233241   4.703   3.938  14.644  0.5111  0.7297 -0.9116
 3917TIP3    H133242   4.610   3.952  14.662  0.2829  0.3408 -1.7877
 3917TIP3    H233243   4.713   3.843  14.640  1.1611  0.7330  0.2574
 3918TIP3   OH233244   0.518   5.797   1.084 -0.2293 -0.0280  0.3657
 3918TIP3    H133245   0.557   5.882   1.064  0.3835 -0.6825 -1.3701
 3918TIP3    H233246   0.464   5.777   1.007 -2.0628 -0.2585  1.6793
 3919TIP3   OH233247   1.654   5.615  12.771 -0.0627  0.2034  0.2715
 3919TIP3    H133248   1.663   5.707  12.792  1.7443  0.5045 -1.6017
 3919TIP3    H233249   1.629   5.613  12.678  1.3273 -1.1861 -0.1084
 3920TIP3   OH233250   0.068   6.062   3.615 -0.2039 -0.3928 -0.6413
 3920TIP3    H133251  -0.006   6.004   3.635  0.2007 -0.0176  2.1645
 3920TIP3    H233252   0.050   6.094   3.526 -3.6169 -0.0269  0.1096
 3921TIP3   OH233253   2.082   4.739  13.798  0.0137  0.2778 -0.0407
 3921TIP3    H133254   2.119   4.712  13.714 -1.9401 -1.5514 -0.3480
 3921TIP3    H233255   2.061   4.657  13.843 -0.4597  1.2587  1.5748
 3922TIP3   OH233256   2.327   4.532   0.660  0.4602 -0.5253 -0.5103
 3922TIP3    H133257   2.337   4.601   0.593 -0.6611  1.6453  1.4673
 3922TIP3    H233258   2.404   4.541   0.715 -2.7472  3.7309  3.6811
 3923TIP3   OH233259   4.308   4.008   5.020 -0.2101 -0.1974 -0.4566
 3923TIP3    H133260   4.290   4.035   4.930  1.1988 -0.9870 -0.9970
 3923TIP3    H233261   4.322   3.913   5.014 -1.2146 -0.4264  0.7736
 3924TIP3   OH233262   5.264   1.974  13.971 -0.1980  0.2505  0.6565
 3924TIP3    H133263   5.280   1.985  14.065 -0.7423  1.1743  0.6450
 3924TIP3    H233264   5.193   1.910  13.967 -0.7868  0.8741  0.9149
 3925TIP3   OH233265   1.035   0.759   6.238 -0.0947 -1.2986  0.2993
 3925TIP3    H133266   1.120   0.768   6.281  0.2854  1.4307 -0.9281
 3925TIP3    H233267   0.985   0.835   6.268 -1.3241 -1.6910 -0.7196
 3926TIP3   OH233268   6.504   0.267  14.708  0.9769  0.8717  0.2805
 3926TIP3    H133269   6.427   0.213  14.689  1.0383  0.6379  0.7116
 3926TIP3    H233270   6.578   0.214  14.678  1.1251  0.2209  1.7870
 3927TIP3   OH233271   1.577   1.985  11.409  0.4907 -0.4743 -0.2651
 3927TIP3    H133272   1.520   1.955  11.338  1.5266 -2.5146 -0.2590
 3927TIP3    H233273   1.526   2.054  11.453 -0.9276 -0.5132 -1.7981
 3928TIP3   OH233274   2.468   0.939  13.498 -0.4737 -0.4074 -0.5696
 3928TIP3    H133275   2.544   0.880  13.494 -0.3611 -0.2446 -0.8065
 3928TIP3    H233276   2.504   1.022  13.530 -0.4308 -0.1209 -1.3663
 3929TIP3   OH233277   5.367   2.444  12.166 -0.1052  0.1655 -0.0876
 3929TIP3    H133278   5.444   2.478  12.120  0.9666 -1.0001  0.8040
 3929TIP3    H233279   5.400   2.368  12.215 -1.4642  0.6697  1.6478
 3930TIP3   OH233280   3.734   2.489  15.869  0.3525 -0.3109 -0.4188
 3930TIP3    H133281   3.783   2.455  15.944 -0.4690 -0.1038  0.2226
 3930TIP3    H233282   3.643   2.491  15.899  0.0763  0.1838 -1.2750
 3931TIP3   OH233283   6.138   2.438   5.592 -0.8890 -0.0635  0.1287
 3931TIP3    H133284   6.230   2.426   5.616 -1.4822 -0.6149  2.2760
 3931TIP3    H233285   6.132   2.407   5.502  0.9798 -0.2864  0.0646
 3932TIP3   OH233286   0.812   5.356   3.767 -0.2558 -0.0542  0.2726
 3932TIP3    H133287   0.772   5.390   3.848 -0.1355 -0.0541  0.3316
 3932TIP3    H233288   0.742   5.362   3.702  0.0369  1.1626  0.0629
 3933TIP3   OH233289   1.330   3.133   4.785 -0.2482  0.4573  0.0235
 3933TIP3    H133290   1.236   3.120   4.797 -0.3531  1.3167  0.1375
 3933TIP3    H233291   1.350   3.212   4.835  0.9322 -0.8742  1.7196
 3934TIP3   OH233292   2.421   0.336  15.663 -0.5624 -0.2686 -0.0686
 3934TIP3    H133293   2.364   0.414  15.663 -0.2405 -0.0289 -1.4243
 3934TIP3    H233294   2.488   0.355  15.598 -0.4004 -1.6336 -0.3111
 3935TIP3   OH233295   5.522   5.333  14.573 -0.0036  0.1791 -0.6466
 3935TIP3    H133296   5.616   5.339  14.587 -0.1814  2.1462 -0.1416
 3935TIP3    H233297   5.502   5.239  14.579  2.0455 -0.3443 -1.6992
 3936TIP3   OH233298   6.104   5.228   4.507 -0.5376 -0.3924 -0.4317
 3936TIP3    H133299   6.071   5.145   4.473  0.1926 -0.5551 -0.7511
 3936TIP3    H233300   6.145   5.206   4.590  0.2434 -0.4593 -0.8331
 3937TIP3   OH233301   1.440   0.350   3.846  0.5517 -0.1387 -0.0934
 3937TIP3    H133302   1.529   0.382   3.859  2.1113 -4.4815  0.7949
 3937TIP3    H233303   1.437   0.325   3.754  1.6005 -3.5552  0.7323
 3938TIP3   OH233304   3.189   0.741   3.162  0.2302 -0.6739  0.3125
 3938TIP3    H133305   3.229   0.685   3.095 -1.9432 -1.4507 -0.3862
 3938TIP3    H233306   3.122   0.686   3.202 -1.3570  1.1298  0.2082
 3939TIP3   OH233307   4.692   6.242   4.583 -0.6919  0.2219 -0.1361
 3939TIP3    H133308   4.631   6.189   4.635 -0.1972 -2.0707 -1.8032
 3939TIP3    H233309   4.697   6.197   4.499  0.6382  2.3305 -1.2261
 3940TIP3   OH233310   6.300   5.831  12.914  0.1812 -0.6696 -0.2017
 3940TIP3    H133311   6.349   5.838  12.996 -0.7622 -1.9182  0.4890
 3940TIP3    H233312   6.217   5.875  12.933 -1.1981 -3.4750  0.4755
 3941TIP3   OH233313   1.794   2.357   0.496 -0.2289 -0.2698 -0.1001
 3941TIP3    H133314   1.872   2.393   0.537 -1.0962  2.2421 -0.5532
 3941TIP3    H233315   1.817   2.266   0.475  2.0437  0.0115  1.0546
 3942TIP3   OH233316   4.735   4.919  11.822  0.6976  0.3735 -0.6487
 3942TIP3    H133317   4.645   4.900  11.795  1.2004 -2.0072 -0.6853
 3942TIP3    H233318   4.757   5.000  11.775 -1.2814  0.7945 -0.9087
 3943TIP3   OH233319   5.866   3.959   5.211  0.4544 -0.7494  0.3930
 3943TIP3    H133320   5.791   3.989   5.261  1.0311  2.0931 -0.3629
 3943TIP3    H233321   5.830   3.893   5.151 -1.8618  1.8682 -1.2343
 3944TIP3   OH233322   6.413   3.919   4.136  0.2945 -0.1505  0.3937
 3944TIP3    H133323   6.387   3.827   4.137 -1.1968  0.2602  2.0935
 3944TIP3    H233324   6.462   3.930   4.054 -0.4277 -2.1862 -0.3288
 3945TIP3   OH233325   2.690   4.241   3.018 -0.3608 -0.4749 -0.0471
 3945TIP3    H133326   2.749   4.175   2.980 -0.0827  0.2149 -0.8296
 3945TIP3    H233327   2.748   4.313   3.042 -0.9720  0.5741 -1.6158
 3946TIP3   OH233328   5.286   3.803   0.165  0.3212  0.4817 -0.0702
 3946TIP3    H133329   5.249   3.852   0.239  1.7469  2.7463 -0.8056
 3946TIP3    H233330   5.209   3.775   0.115 -0.5563  1.3623  0.7511
 3947TIP3   OH233331   5.623   1.093   1.219  0.3772 -0.0519  0.3543
 3947TIP3    H133332   5.699   1.038   1.238  1.1264  0.6471 -0.5975
 3947TIP3    H233333   5.578   1.048   1.148  0.7194  0.3131 -0.0918
 3948TIP3   OH233334   1.124   3.740  11.547  0.1155  0.3992 -1.2471
 3948TIP3    H133335   1.065   3.811  11.524 -1.9359 -1.1411 -0.9600
 3948TIP3    H233336   1.196   3.782  11.594 -1.0510  2.2747 -1.0949
 3949TIP3   OH233337   0.167   5.346   2.956 -0.4116  0.0434 -0.1370
 3949TIP3    H133338   0.119   5.427   2.972 -0.4706  0.0683 -0.4435
 3949TIP3    H233339   0.109   5.277   2.990  1.2174  0.3898  3.5556
 3950TIP3   OH233340   6.188   2.921   3.913 -0.2483  0.6126 -0.2586
 3950TIP3    H133341   6.221   2.940   4.001  0.6124 -0.6802 -0.2926
 3950TIP3    H233342   6.159   2.830   3.918  1.4318 -0.0287 -1.7941
 3951TIP3   OH233343   6.720   2.078  10.504 -0.0961 -0.3863 -1.2589
 3951TIP3    H133344   6.656   2.048  10.440 -1.9530  0.4697  0.1402
 3951TIP3    H233345   6.687   2.164  10.532  1.6341  0.0374 -0.4721
 3952TIP3   OH233346   0.685   1.860   6.697 -0.4060 -0.0218 -0.2473
 3952TIP3    H133347   0.726   1.938   6.734 -1.0556  0.8185 -1.2560
 3952TIP3    H233348   0.638   1.892   6.620 -1.3939 -1.2629 -0.1862
 3953TIP3   OH233349   6.796   2.116   0.455  0.1702 -0.3998  0.1741
 3953TIP3    H133350   6.718   2.069   0.424 -0.3026  1.0886 -0.9346
 3953TIP3    H233351   6.764   2.203   0.476  1.2054 -0.3102  1.4584
 3954TIP3   OH233352   6.437   3.559  11.352  0.0774  0.0221 -0.5593
 3954TIP3    H133353   6.424   3.493  11.284 -0.1257 -1.5477  0.9630
 3954TIP3    H233354   6.350   3.597  11.366 -0.1152 -0.4747 -0.3786
 3955TIP3   OH233355   3.101   6.329  15.665 -0.5292 -0.3526 -0.0709
 3955TIP3    H133356   3.010   6.304  15.680 -0.7911  0.3961 -0.3639
 3955TIP3    H233357   3.120   6.394  15.733  0.0171 -1.0559  0.4477
 3956TIP3   OH233358   0.043   0.458  16.114 -0.0284  0.1699 -0.0287
 3956TIP3    H133359  -0.007   0.393  16.163 -1.2621  0.4149 -0.9364
 3956TIP3    H233360  -0.010   0.475  16.036  1.1263  0.9730 -0.6534
 3957TIP3   OH233361   3.033   1.153   2.153  0.7560  0.5087 -0.5385
 3957TIP3    H133362   3.104   1.091   2.137  1.2429  1.0842 -0.6656
 3957TIP3    H233363   3.078   1.235   2.176  0.1411  0.9304 -0.8208
 3958TIP3   OH233364   4.188   1.984   2.275 -0.0418  0.1326 -0.9385
 3958TIP3    H133365   4.162   2.041   2.203 -1.8860  0.5009 -0.0376
 3958TIP3    H233366   4.230   1.909   2.233  0.2423  1.0345 -2.2912
 3959TIP3   OH233367   5.955   5.242  15.476 -0.3392 -0.3134  0.7163
 3959TIP3    H133368   5.913   5.324  15.448 -0.6123 -0.2517  1.3057
 3959TIP3    H233369   5.938   5.181  15.404  0.0946  0.2189  0.1533
 3960TIP3   OH233370   1.277   0.047   3.660  0.3656 -0.3247 -0.4279
 3960TIP3    H133371   1.226   0.061   3.740  0.7789  3.8464 -0.7966
 3960TIP3    H233372   1.219  -0.006   3.605 -1.3535 -0.2853  1.2596
 3961TIP3   OH233373   0.360   4.595   0.777  0.1787  0.1698  0.3386
 3961TIP3    H133374   0.423   4.581   0.706  0.0322 -0.9535  0.4272
 3961TIP3    H233375   0.326   4.508   0.798 -0.6094  0.6260  1.0324
 3962TIP3   OH233376   0.757   3.239   3.643  0.0335  0.4287  0.0234
 3962TIP3    H133377   0.665   3.215   3.652 -0.3587  2.2841  1.0614
 3962TIP3    H233378   0.769   3.252   3.549  0.1630 -3.3367 -0.5553
 3963TIP3   OH233379   3.611   2.473   4.040  0.6302 -0.1864  0.3889
 3963TIP3    H133380   3.604   2.490   3.946  0.7832 -0.6306  0.2918
 3963TIP3    H233381   3.685   2.412   4.047 -1.5305 -2.9187  0.4254
 3964TIP3   OH233382   2.654   2.573   2.058 -0.3543  0.3023 -0.8958
 3964TIP3    H133383   2.643   2.484   2.027  1.1171  0.1984 -1.1461
 3964TIP3    H233384   2.664   2.626   1.979 -0.3528  0.5597 -0.7256
 3965TIP3   OH233385   6.145   1.196  16.982 -0.0509 -0.2175  0.6654
 3965TIP3    H133386   6.118   1.281  17.016  0.0538  0.2930 -0.4874
 3965TIP3    H233387   6.064   1.152  16.958 -0.0142  0.2550 -0.3427
 3966TIP3   OH233388   4.229   1.730   0.862 -0.5082  0.1367  0.0995
 3966TIP3    H133389   4.298   1.725   0.928  1.8614 -0.2213 -2.3320
 3966TIP3    H233390   4.231   1.821   0.831  0.2587 -0.3844 -1.4075
 3967TIP3   OH233391   5.466   0.279  11.327  0.7538 -0.5207  0.3135
 3967TIP3    H133392   5.554   0.309  11.347 -0.7159  2.1561  3.3706
 3967TIP3    H233393   5.436   0.337  11.257  0.5212  0.2837  1.0755
 3968TIP3   OH233394   5.284   3.620   0.495  0.5867 -0.2756  0.4385
 3968TIP3    H133395   5.329   3.571   0.563  0.2034  1.7014  2.1637
 3968TIP3    H233396   5.192   3.599   0.506  0.6217 -0.7772 -0.1710
 3969TIP3   OH233397   2.717   0.040   3.650  0.2745  0.1275 -0.2162
 3969TIP3    H133398   2.789  -0.021   3.637  1.1624  0.9511  0.8314
 3969TIP3    H233399   2.654   0.017   3.581  0.1387 -2.6174  0.7590
 3970TIP3   OH233400   1.325   0.061  14.717 -0.0622 -0.6643  0.1225
 3970TIP3    H133401   1.315   0.094  14.807  2.4256 -0.7985  0.4930
 3970TIP3    H233402   1.367   0.133  14.671 -0.9954 -0.7457 -0.8680
 3971TIP3   OH233403   4.999   0.843   3.694 -0.5103  0.1975  0.0264
 3971TIP3    H133404   5.070   0.901   3.721 -1.3096  0.5980  1.2925
 3971TIP3    H233405   4.930   0.857   3.759 -0.6781 -2.2279  0.4186
 3972TIP3   OH233406   5.352   6.455  11.943 -0.2134 -0.0810  0.3447
 3972TIP3    H133407   5.319   6.423  11.859  0.2143  0.8876 -0.2061
 3972TIP3    H233408   5.446   6.468  11.928  0.1807 -1.5795  1.5045
 3973TIP3   OH233409   4.434   5.246  13.836 -0.2502 -0.4804 -0.5294
 3973TIP3    H133410   4.379   5.322  13.856 -0.2180 -0.2955 -1.1223
 3973TIP3    H233411   4.520   5.283  13.816 -0.2891 -0.6529 -1.0318
 3974TIP3   OH233412   2.767   5.343   2.006 -0.0712  0.5659 -0.3721
 3974TIP3    H133413   2.751   5.429   2.046 -2.1964  0.0841 -0.1380
 3974TIP3    H233414   2.720   5.281   2.062 -0.3472 -0.4975 -1.7516
 3975TIP3   OH233415   6.256   0.741   5.021  0.2355  0.0885  0.4131
 3975TIP3    H133416   6.174   0.691   5.026  0.5906 -0.5410  0.0096
 3975TIP3    H233417   6.231   0.831   5.041 -0.3959 -0.2713  1.2981
 3976TIP3   OH233418   6.662   5.576  12.546  0.5560 -0.4134 -0.0523
 3976TIP3    H133419   6.697   5.665  12.542  1.0075 -0.5010  1.4648
 3976TIP3    H233420   6.567   5.588  12.547  0.5258 -0.1431 -3.4739
 3977TIP3   OH233421   3.414   1.799  16.043  0.2038  0.3664 -0.1830
 3977TIP3    H133422   3.392   1.892  16.050  1.2583  0.5106  1.5166
 3977TIP3    H233423   3.430   1.772  16.134 -2.4250 -2.0431 -0.3730
 3978TIP3   OH233424   1.199   4.897  16.110 -0.3371  0.4372  0.1781
 3978TIP3    H133425   1.287   4.926  16.136  0.2122 -0.8086 -0.2314
 3978TIP3    H233426   1.205   4.883  16.016 -1.5631  2.2914 -0.2027
 3979TIP3   OH233427   0.131   4.214  16.282 -0.5156  0.3936  0.4208
 3979TIP3    H133428   0.113   4.307  16.276 -2.1474  0.0932  0.3213
 3979TIP3    H233429   0.225   4.208  16.295 -0.4003  2.0490  0.4138
 3980TIP3   OH233430   3.177   3.546   0.876  0.1155 -0.2363  0.2341
 3980TIP3    H133431   3.132   3.466   0.903  1.1504 -0.8215  0.2648
 3980TIP3    H233432   3.118   3.617   0.902 -0.7061 -0.9753  0.4099
 3981TIP3   OH233433   6.473   5.239   0.359 -0.7364  0.0797 -0.3216
 3981TIP3    H133434   6.560   5.270   0.383 -0.5520 -1.1853  0.6898
 3981TIP3    H233435   6.424   5.318   0.336  0.7199  0.7813 -1.0708
 3982TIP3   OH233436   5.946   6.220  12.327  0.2137 -0.3718 -0.3088
 3982TIP3    H133437   5.862   6.261  12.303  0.5914  1.0871  0.8138
 3982TIP3    H233438   6.012   6.278  12.289  0.7355 -1.2623 -0.7710
 3983TIP3   OH233439   2.003   3.134   2.940 -0.2733  0.0922  0.2248
 3983TIP3    H133440   1.994   3.204   3.005 -1.5280 -0.1686  0.3358
 3983TIP3    H233441   1.947   3.063   2.972 -2.2903  0.5878 -1.9792
 3984TIP3   OH233442   1.205   3.192   6.154 -0.0116  0.2157  0.3579
 3984TIP3    H133443   1.127   3.195   6.099 -1.2718  1.8527  2.1153
 3984TIP3    H233444   1.260   3.264   6.122  1.1216 -1.3825 -1.3343
 3985TIP3   OH233445   2.530   2.648  14.386  0.3437 -0.5395 -0.0846
 3985TIP3    H133446   2.604   2.605  14.428  1.2078 -0.7310 -1.7767
 3985TIP3    H233447   2.541   2.741  14.409  0.5224 -0.7101  0.5312
 3986TIP3   OH233448   6.521   5.266  12.961 -0.7631 -0.0753 -0.3328
 3986TIP3    H133449   6.514   5.359  12.980  0.6915 -0.1028  0.4446
 3986TIP3    H233450   6.442   5.227  12.999 -0.6538  0.6490  0.6581
 3987TIP3   OH233451   6.521   0.351   1.147  0.2109  0.1344  0.5053
 3987TIP3    H133452   6.598   0.303   1.178 -0.9087 -2.0093  0.0600
 3987TIP3    H233453   6.450   0.286   1.149 -1.0428  1.4027 -1.4078
 3988TIP3   OH233454   1.616   2.348  16.404  0.4991  0.3404  0.0485
 3988TIP3    H133455   1.549   2.331  16.470  1.2427  3.0943  1.5965
 3988TIP3    H233456   1.572   2.332  16.320 -1.3552 -0.2487  1.1069
 3989TIP3   OH233457   6.818   0.765   2.651 -0.2612 -0.0295  0.1529
 3989TIP3    H133458   6.882   0.696   2.662  0.4795  0.6923  0.4218
 3989TIP3    H233459   6.776   0.746   2.567  2.1966  1.0368 -1.3730
 3990TIP3   OH233460   2.972   3.199   6.356  0.6651 -0.0096 -0.0038
 3990TIP3    H133461   3.042   3.236   6.409  0.4003 -0.5415  0.7204
 3990TIP3    H233462   2.972   3.252   6.276  0.6406  1.2017  0.7938
 3991TIP3   OH233463   6.659   4.069  15.258  0.2827  0.1028 -0.1679
 3991TIP3    H133464   6.698   4.155  15.275  0.2621  0.2181 -0.6790
 3991TIP3    H233465   6.640   4.070  15.164  0.7782 -0.6674 -0.2745
 3992TIP3   OH233466   6.297   5.411  11.392  0.4098  0.1057 -0.0330
 3992TIP3    H133467   6.362   5.397  11.323 -0.5355 -0.9702 -0.7041
 3992TIP3    H233468   6.322   5.350  11.461 -1.0597 -1.7830 -1.1230
 3993TIP3   OH233469   3.808   1.674   3.562 -0.5387  0.9256  0.5915
 3993TIP3    H133470   3.830   1.592   3.517 -0.0930  1.8490 -0.8997
 3993TIP3    H233471   3.722   1.658   3.600  0.0909 -0.6691  1.3917
 3994TIP3   OH233472   6.276   6.619  12.935  0.1636 -0.5097  0.1693
 3994TIP3    H133473   6.342   6.686  12.917 -1.0158  0.8887  0.9498
 3994TIP3    H233474   6.194   6.668  12.945 -1.5506 -2.4389 -3.4357
 3995TIP3   OH233475   5.778   5.273   1.657 -0.3567  0.1780 -0.1447
 3995TIP3    H133476   5.871   5.251   1.662 -0.5363 -0.2815  1.4796
 3995TIP3    H233477   5.736   5.192   1.629 -0.4509 -0.1455  0.8907
 3996TIP3   OH233478   3.128   3.752  14.707 -0.5235 -0.1225 -0.0084
 3996TIP3    H133479   3.039   3.726  14.683 -0.0366 -0.7667 -1.1773
 3996TIP3    H233480   3.168   3.781  14.625  0.1696  0.6981  0.6044
 3997TIP3   OH233481   5.941   1.575   0.944  0.5246 -0.0089 -0.1081
 3997TIP3    H133482   5.981   1.579   0.857  0.3165  0.7678 -0.1755
 3997TIP3    H233483   5.852   1.609   0.931 -0.3940 -2.3326 -0.0821
 3998TIP3   OH233484   2.591   3.242   5.852  0.3345  0.4776 -1.2193
 3998TIP3    H133485   2.528   3.170   5.852 -1.7947  2.2667 -0.5811
 3998TIP3    H233486   2.671   3.205   5.889 -0.5164 -1.7099 -1.5453
 3999TIP3   OH233487   0.903   1.283   0.884 -0.7735  0.4397  0.0756
 3999TIP3    H133488   0.896   1.201   0.932 -0.9042  1.3623  1.6787
 3999TIP3    H233489   0.959   1.338   0.938  0.4810  0.9187 -1.6829
 4000TIP3   OH233490   1.470   6.419  15.721 -0.0771  0.5826  0.5327
 4000TIP3    H133491   1.514   6.401  15.638 -1.1851  1.8819 -0.3568
 4000TIP3    H233492   1.388   6.369  15.716  0.7404 -0.9233  1.7040
 4001TIP3   OH233493   2.064   4.987  11.591  0.5795  0.3711 -0.4262
 4001TIP3    H133494   1.985   4.939  11.616 -0.2527  1.7768 -0.3385
 4001TIP3    H233495   2.135   4.926  11.610 -0.4950 -1.0624 -0.8662
 4002TIP3   OH233496   5.069   0.813  11.315 -0.6345  0.1896  0.3359
 4002TIP3    H133497   5.041   0.874  11.383  2.1227  0.7459  1.0343
 4002TIP3    H233498   5.134   0.757  11.358 -0.7968 -1.1783 -1.1473
 4003TIP3   OH233499   4.429   0.158  14.948 -0.1982  0.4879 -0.2002
 4003TIP3    H133500   4.468   0.095  14.887 -0.3698  0.0662  0.1242
 4003TIP3    H233501   4.434   0.116  15.033  0.1166  1.1183  0.0926
 4004TIP3   OH233502   4.557   1.957  16.852 -0.3263  0.3240  0.3630
 4004TIP3    H133503   4.637   1.914  16.823 -0.2798  0.3176  0.4960
 4004TIP3    H233504   4.585   2.045  16.876 -0.4649  0.5088 -0.1471
 4005TIP3   OH233505   5.177   5.269  16.843 -0.5804 -0.5350  0.4341
 4005TIP3    H133506   5.144   5.343  16.792 -0.6633 -1.5223 -0.9568
 4005TIP3    H233507   5.132   5.276  16.927 -0.5102  1.0518  0.3497
 4006TIP3   OH233508   5.588   4.570   5.142 -0.1220  0.4703 -0.0076
 4006TIP3    H133509   5.588   4.514   5.064 -1.2832 -0.1200  0.4064
 4006TIP3    H233510   5.555   4.654   5.111  1.7747  1.0234 -0.6667
 4007TIP3   OH233511   6.124   4.586   3.247 -0.9629  0.2243 -0.1581
 4007TIP3    H133512   6.128   4.599   3.153 -0.6681 -0.3660 -0.2256
 4007TIP3    H233513   6.070   4.659   3.279  0.4337  1.4845 -0.5735
 4008TIP3   OH233514   1.884   6.749  11.378 -0.6229 -0.2253  0.2190
 4008TIP3    H133515   1.853   6.839  11.387  0.2348  0.4140 -2.7165
 4008TIP3    H233516   1.978   6.758  11.361  0.0585 -1.8479  2.8822
 4009TIP3   OH233517   0.049   6.327   4.743 -0.7969 -0.1841  0.1974
 4009TIP3    H133518  -0.009   6.373   4.682 -0.5428  0.3557  0.3606
 4009TIP3    H233519   0.001   6.325   4.826  0.3268  2.2475  0.9451
 4010TIP3   OH233520   0.132   6.203  14.484 -0.1211 -1.0351  0.3495
 4010TIP3    H133521   0.104   6.209  14.393 -2.3687  0.2472  1.0777
 4010TIP3    H233522   0.084   6.128  14.519 -0.9926 -0.1819  1.0270
 4011TIP3   OH233523   2.792   2.006   3.585 -0.1117 -0.0536  0.2523
 4011TIP3    H133524   2.784   2.036   3.495 -0.4935 -0.3383  0.1899
 4011TIP3    H233525   2.880   1.971   3.591 -0.6182 -1.4871 -0.4536
 4012TIP3   OH233526   2.156   4.504   3.813 -0.0026  0.2151 -0.2700
 4012TIP3    H133527   2.147   4.514   3.718  0.4818 -0.5422 -0.4006
 4012TIP3    H233528   2.234   4.450   3.823 -0.1166  0.2093  0.5626
 4013TIP3   OH233529   0.311   6.235  15.975 -0.6576  0.4511 -0.0273
 4013TIP3    H133530   0.351   6.162  16.023 -0.0214 -0.0386 -1.2977
 4013TIP3    H233531   0.380   6.301  15.969 -0.0972 -0.3123 -2.0446
 4014TIP3   OH233532   4.961   4.233   0.132 -0.0775  0.3020  0.8860
 4014TIP3    H133533   4.938   4.147   0.097 -0.0993  1.2427 -1.4718
 4014TIP3    H233534   4.877   4.271   0.157 -0.0897 -0.2459  1.7146
 4015TIP3   OH233535   5.093   1.271  16.590  0.0692  0.4362  0.4759
 4015TIP3    H133536   5.126   1.218  16.662  0.7441  1.4494  0.9258
 4015TIP3    H233537   5.170   1.318  16.558 -0.6726  1.7380  0.5853
 4016TIP3   OH233538   3.349   0.685  16.081  0.2960  0.6314 -0.4618
 4016TIP3    H133539   3.340   0.718  15.992  1.4465  0.0013 -0.8157
 4016TIP3    H233540   3.306   0.600  16.080 -0.7400  1.1391 -0.1010
 4017TIP3   OH233541   1.642   0.487   2.118 -0.3467 -0.3612  0.7130
 4017TIP3    H133542   1.671   0.577   2.132  0.2954 -0.6437  1.2754
 4017TIP3    H233543   1.572   0.493   2.053  0.7722  0.3765 -0.4275
 4018TIP3   OH233544   6.789   5.584   0.354  0.7053  0.1866  0.5038
 4018TIP3    H133545   6.800   5.638   0.276 -1.1269 -0.0414  0.0723
 4018TIP3    H233546   6.772   5.496   0.320 -0.9257  0.2496  1.1444
 4019TIP3   OH233547   5.253   6.565   3.372 -0.3193 -0.1528 -0.0347
 4019TIP3    H133548   5.177   6.512   3.348 -0.4949 -0.2266  0.6823
 4019TIP3    H233549   5.236   6.651   3.334 -0.7181 -0.1940  0.0530
 4020TIP3   OH233550   2.140   0.278  16.075  0.0848  0.4806 -0.3301
 4020TIP3    H133551   2.049   0.301  16.060  0.1710  0.6919 -0.5298
 4020TIP3    H233552   2.142   0.183  16.066 -0.3469  0.3418  0.9303
 4021TIP3   OH233553   1.244   0.822   4.206  0.1409 -0.2219  0.7167
 4021TIP3    H133554   1.177   0.875   4.247 -1.0403 -0.8887 -0.3097
 4021TIP3    H233555   1.204   0.791   4.125  2.7199  1.8666 -1.4631
 4022TIP3   OH233556   6.492   2.848  17.144 -0.4698  0.6825  0.0665
 4022TIP3    H133557   6.536   2.931  17.159 -1.3747  0.7911  2.2153
 4022TIP3    H233558   6.430   2.866  17.073  1.5240  1.0057 -1.6552
 4023TIP3   OH233559   2.471   6.757  10.481  0.2342 -0.2080 -0.2744
 4023TIP3    H133560   2.447   6.791  10.394 -1.6948  1.3622  0.8097
 4023TIP3    H233561   2.410   6.685  10.496 -1.8508  1.7552  1.1645
 4024TIP3   OH233562   6.546   2.217  11.915  0.2792 -0.4396  0.1792
 4024TIP3    H133563   6.546   2.161  11.993 -0.4185 -2.9992 -1.5793
 4024TIP3    H233564   6.459   2.205  11.877  1.0503 -0.2676 -1.6927
 4025TIP3   OH233565   5.000   6.688   5.682  0.0198 -0.3897  0.4385
 4025TIP3    H133566   5.040   6.626   5.621 -1.3308  1.4410 -2.3863
 4025TIP3    H233567   4.937   6.635   5.731 -1.0447 -1.3106 -1.8652
 4026TIP3   OH233568   6.048   2.152  16.362 -0.3232 -0.4684  0.6453
 4026TIP3    H133569   5.995   2.199  16.297  0.9700 -0.6008 -0.5263
 4026TIP3    H233570   5.992   2.079  16.389 -1.0138 -0.2085 -0.0468
 4027TIP3   OH233571   4.453   1.046   3.392 -0.7823  0.2464 -0.0360
 4027TIP3    H133572   4.462   1.122   3.335 -2.7158  0.9798  0.5774
 4027TIP3    H233573   4.358   1.036   3.403 -0.4932 -1.1661  1.3266
 4028TIP3   OH233574   1.436   1.820   3.273 -0.2407 -0.9985 -0.2143
 4028TIP3    H133575   1.495   1.882   3.230 -0.6730  2.3693  3.7601
 4028TIP3    H233576   1.493   1.752   3.307  1.1564  0.9757  1.5259
 4029TIP3   OH233577   2.086   5.911   1.906 -0.3816  0.2901 -0.2653
 4029TIP3    H133578   2.168   5.895   1.859  0.4872  0.5545  1.1308
 4029TIP3    H233579   2.090   5.855   1.982 -1.5993  0.1684 -0.2700
 4030TIP3   OH233580   4.356   0.724  10.692 -0.1082  0.2094  0.3891
 4030TIP3    H133581   4.299   0.652  10.719 -0.8991  0.0543 -1.6105
 4030TIP3    H233582   4.328   0.798  10.746 -1.0371 -0.3338  0.6652
 4031TIP3   OH233583   1.834   5.931  13.135 -0.3119 -0.4768 -0.8171
 4031TIP3    H133584   1.856   5.845  13.100  0.7090 -0.6867  0.2699
 4031TIP3    H233585   1.805   5.914  13.225  1.8691  0.4488  0.1262
 4032TIP3   OH233586   6.678   3.987  16.770 -0.1751 -0.5700  0.4081
 4032TIP3    H133587   6.754   3.977  16.713 -0.6537  2.5854 -0.8991
 4032TIP3    H233588   6.608   3.939  16.726 -0.2135  0.7949 -1.0734
 4033TIP3   OH233589   1.940   0.919   1.869 -0.5721 -0.5119  0.6925
 4033TIP3    H133590   2.024   0.874   1.875 -0.5950 -0.6230  0.1449
 4033TIP3    H233591   1.879   0.852   1.838 -0.2768  0.3020 -1.7497
 4034TIP3   OH233592   0.592   2.664   2.237  0.2071 -0.3259  0.0449
 4034TIP3    H133593   0.548   2.610   2.171 -0.4833  1.1437 -0.7068
 4034TIP3    H233594   0.667   2.701   2.191  0.8450 -0.8572  0.6437
 4035TIP3   OH233595   6.474   2.910  14.549 -0.3748  0.5142 -0.3109
 4035TIP3    H133596   6.566   2.928  14.572 -1.2166  2.9849  1.3797
 4035TIP3    H233597   6.429   2.992  14.567 -3.6816 -1.8420  2.8643
 4036TIP3   OH233598   4.796   4.458   6.181 -0.3789  0.3778 -0.3795
 4036TIP3    H133599   4.727   4.450   6.247  0.1429 -0.9165  0.0257
 4036TIP3    H233600   4.841   4.540   6.203 -1.4939  0.9932 -0.3769
 4037TIP3   OH233601   3.652   1.427   2.433 -0.0546 -0.1966  0.6481
 4037TIP3    H133602   3.570   1.470   2.459 -1.1043 -1.0612 -1.1717
 4037TIP3    H233603   3.680   1.475   2.355  1.2762  0.1781  1.3270
 4038TIP3   OH233604   6.633   5.597  12.274 -0.3354  0.3532 -0.4306
 4038TIP3    H133605   6.638   5.540  12.350  0.6853  1.1964  0.1538
 4038TIP3    H233606   6.719   5.591  12.233 -0.4404  0.9340 -0.7548
 4039TIP3   OH233607   4.436   1.675   1.684 -0.2727 -0.7648  0.3589
 4039TIP3    H133608   4.474   1.677   1.771  1.5239  2.2581 -0.4266
 4039TIP3    H233609   4.503   1.632   1.630  0.7721  1.6722 -0.3912
 4040TIP3   OH233610   0.228   1.277  16.449 -0.1754 -0.1362  0.1203
 4040TIP3    H133611   0.313   1.285  16.492 -0.3828 -0.7238  0.6556
 4040TIP3    H233612   0.246   1.222  16.372 -0.4237 -1.9491  1.3144
 4041TIP3   OH233613   0.599   6.129  13.106  0.1146  0.0157  0.1451
 4041TIP3    H133614   0.514   6.116  13.064  0.4108 -1.6553  0.0351
 4041TIP3    H233615   0.621   6.221  13.087 -1.3021  0.2422 -0.4709
 4042TIP3   OH233616   6.168   1.514  13.628  0.6913 -0.0140 -0.0071
 4042TIP3    H133617   6.086   1.542  13.667  1.3172 -0.8554  1.9777
 4042TIP3    H233618   6.142   1.464  13.551 -0.5590  1.7804 -0.7924
 4043TIP3   OH233619   5.545   2.703   1.413 -0.1991 -0.3816  0.2464
 4043TIP3    H133620   5.503   2.653   1.343 -0.7799  2.8397 -1.8020
 4043TIP3    H233621   5.638   2.700   1.392  0.0207 -2.3393  1.3489
 4044TIP3   OH233622   1.736   6.294  13.643  0.1509 -0.0878  0.6346
 4044TIP3    H133623   1.716   6.351  13.718 -1.1638 -1.6739  1.5156
 4044TIP3    H233624   1.699   6.209  13.667  1.6600 -1.1929 -0.8838
 4045TIP3   OH233625   5.836   0.616  16.685  0.1343  0.4722  0.0290
 4045TIP3    H133626   5.821   0.685  16.620 -2.2399 -2.3183 -2.5017
 4045TIP3    H233627   5.916   0.572  16.655 -0.7008 -0.5220 -0.7408
 4046TIP3   OH233628   5.402   1.822  10.796 -0.3195  0.2699  0.2528
 4046TIP3    H133629   5.481   1.771  10.779 -0.5323 -0.3219  1.0233
 4046TIP3    H233630   5.431   1.892  10.854 -0.1296  0.7454 -0.4028
 4047TIP3   OH233631   4.312   3.232  13.871  0.6978 -0.0911  0.4293
 4047TIP3    H133632   4.313   3.292  13.796  1.3290 -1.0559 -0.3451
 4047TIP3    H233633   4.308   3.290  13.947  2.9169  0.9894 -0.2451
 4048TIP3   OH233634   3.922   3.963  13.181  0.3709 -0.1108 -0.3356
 4048TIP3    H133635   3.992   3.921  13.230  0.1421 -0.5283 -0.3653
 4048TIP3    H233636   3.896   4.038  13.236  0.9605  0.1533 -0.4128
 4049TIP3   OH233637   3.213   1.109  10.862 -0.5838  0.3859  0.3229
 4049TIP3    H133638   3.238   1.200  10.882  0.1919  0.1099  0.6493
 4049TIP3    H233639   3.294   1.070  10.827 -1.0479 -0.0460 -0.2745
 4050TIP3   OH233640   3.983   6.454   5.029 -0.4745 -0.5478  0.8121
 4050TIP3    H133641   3.911   6.506   5.064 -0.2597  0.0572  0.3710
 4050TIP3    H233642   4.025   6.511   4.965 -0.9346 -1.6693 -0.5271
 4051TIP3   OH233643   2.670   1.545  12.303 -0.2760 -0.5269 -0.0813
 4051TIP3    H133644   2.667   1.621  12.245 -0.4168  0.3069  1.0009
 4051TIP3    H233645   2.764   1.528  12.315 -0.2027  0.3619  0.7773
 4052TIP3   OH233646   5.278   6.718  11.809  0.7591  0.0186  0.5339
 4052TIP3    H133647   5.297   6.629  11.782 -0.9528 -0.2967  0.2917
 4052TIP3    H233648   5.292   6.771  11.731  1.8091 -0.0335  0.6873
 4053TIP3   OH233649   6.306   6.323   5.842  0.2543 -0.6712 -0.2998
 4053TIP3    H133650   6.263   6.351   5.762  0.5377 -0.1765 -0.2815
 4053TIP3    H233651   6.258   6.244   5.869  0.0710 -0.7535 -0.8730
 4054TIP3   OH233652   2.670   6.051   1.095  0.3552 -0.2452  0.6616
 4054TIP3    H133653   2.596   6.112   1.100  1.1782  0.8870 -0.5673
 4054TIP3    H233654   2.633   5.966   1.120 -0.9046  0.6725  2.0218
 4055TIP3   OH233655   5.301   1.574  14.054 -0.6480  0.3747  0.6557
 4055TIP3    H133656   5.327   1.584  14.145 -0.0284 -1.4019  0.6861
 4055TIP3    H233657   5.205   1.565  14.058 -0.6036  0.0929  1.1411
 4056TIP3   OH233658   4.702   5.754  15.407  0.3272 -0.3820  0.4487
 4056TIP3    H133659   4.747   5.772  15.324 -1.9755 -1.0286 -0.9891
 4056TIP3    H233660   4.609   5.757  15.385 -0.3395  0.0957  3.1738
 4057TIP3   OH233661   5.419   0.154   1.846  0.2265 -0.0308 -0.2802
 4057TIP3    H133662   5.475   0.153   1.769  0.9099  1.2054  0.1934
 4057TIP3    H233663   5.331   0.134   1.813  0.8464 -1.4963 -1.0849
 4058TIP3   OH233664   1.315   5.783   2.021  0.0387  0.6897 -0.1529
 4058TIP3    H133665   1.350   5.858   2.067  0.5854  0.7062 -0.5962
 4058TIP3    H233666   1.390   5.742   1.979 -0.1467 -0.5273  0.6788
 4059TIP3   OH233667   0.400   2.173   6.066  0.2715  0.0002  0.6052
 4059TIP3    H133668   0.309   2.150   6.081  0.2575  0.0148  0.5440
 4059TIP3    H233669   0.450   2.101   6.105  0.2239 -0.2423  0.2231
 4060TIP3   OH233670   1.115   3.267   4.251  0.2826  0.4272 -0.8162
 4060TIP3    H133671   1.152   3.238   4.334  1.1855 -0.1856 -1.4331
 4060TIP3    H233672   1.088   3.357   4.267 -0.1836  0.0887  0.3466
 4061TIP3   OH233673   4.246   0.374  16.936  0.1369  0.0409  0.0427
 4061TIP3    H133674   4.257   0.460  16.977  1.2214 -0.3806  0.6595
 4061TIP3    H233675   4.249   0.312  17.009  2.2278 -0.7277 -0.6561
 4062TIP3   OH233676   3.656   2.529  13.179 -0.1541 -0.3423 -0.5486
 4062TIP3    H133677   3.733   2.499  13.132  0.2095 -0.5135  0.1605
 4062TIP3    H233678   3.669   2.623  13.189  0.9973 -0.6907  1.4603
 4063TIP3   OH233679   3.785   2.887  17.134  0.1789 -0.4078  0.6284
 4063TIP3    H133680   3.706   2.920  17.177  0.2357 -0.0870  0.4864
 4063TIP3    H233681   3.756   2.809  17.087 -0.3927  0.6177 -0.7330
 4064TIP3   OH233682   0.672   6.188   4.613  0.2860 -0.4287  0.2999
 4064TIP3    H133683   0.685   6.258   4.676 -3.8058  0.6901  0.0390
 4064TIP3    H233684   0.670   6.232   4.528  0.7649 -1.2811 -0.1623
 4065TIP3   OH233685   0.452   3.038   5.206 -0.2714  0.2282 -0.0310
 4065TIP3    H133686   0.545   3.042   5.184 -0.5955 -3.3210 -2.3590
 4065TIP3    H233687   0.447   2.975   5.279 -0.9482 -0.3937 -0.6069
 4066TIP3   OH233688   1.445   3.061  13.062  0.5123 -0.2343 -0.3900
 4066TIP3    H133689   1.385   3.078  13.135  1.0260 -0.3191  0.0557
 4066TIP3    H233690   1.514   3.127  13.072 -0.0242  0.5164 -1.4867
 4067TIP3   OH233691   5.088   3.021  16.915  0.6495 -0.0889 -0.1646
 4067TIP3    H133692   5.147   2.977  16.854 -2.1473 -1.8751 -1.7013
 4067TIP3    H233693   5.015   3.050  16.860 -0.2636  1.4543  1.7925
 4068TIP3   OH233694   4.352   1.576  12.767  0.5370 -0.5747  0.1585
 4068TIP3    H133695   4.317   1.662  12.743  0.1813 -0.6641  0.3537
 4068TIP3    H233696   4.410   1.553  12.695  0.9722  0.0257  0.3125
 4069TIP3   OH233697   0.451   6.585   5.696 -0.2814  0.5295 -0.2006
 4069TIP3    H133698   0.368   6.565   5.740 -0.0222  0.7235  0.3856
 4069TIP3    H233699   0.484   6.500   5.666  1.2206 -0.0988  3.0035
 4070TIP3   OH233700   0.858   3.656   3.661 -0.3969  0.6437 -0.1275
 4070TIP3    H133701   0.769   3.687   3.645 -0.2451  1.0504 -0.2003
 4070TIP3    H233702   0.911   3.698   3.593 -0.0416  0.9328  0.3202
 4071TIP3   OH233703   1.696   1.553   3.727 -0.0223 -0.0898  0.2578
 4071TIP3    H133704   1.698   1.494   3.651  2.0080  1.0684 -0.6230
 4071TIP3    H233705   1.786   1.552   3.760 -1.0899 -1.2696  3.2270
 4072TIP3   OH233706   0.012   3.230  15.955  0.0800 -0.2961 -0.4175
 4072TIP3    H133707  -0.062   3.174  15.934  0.1430 -0.1758 -0.9724
 4072TIP3    H233708   0.083   3.197  15.899  1.0745 -1.8242  1.6841
 4073TIP3   OH233709   5.887   5.257  13.957 -0.5987  0.5469  0.0152
 4073TIP3    H133710   5.971   5.273  13.913 -0.4964  0.7289  0.2777
 4073TIP3    H233711   5.837   5.204  13.895 -0.6736  1.2923 -0.5576
 4074TIP3   OH233712   1.488   1.885   5.333  0.2082 -0.6636  0.2367
 4074TIP3    H133713   1.436   1.820   5.284  0.1444  0.3948 -1.1142
 4074TIP3    H233714   1.425   1.922   5.396  0.1563 -1.6529  0.7832
 4075TIP3   OH233715   6.782   0.164   3.834 -0.0526  0.8590 -0.4453
 4075TIP3    H133716   6.722   0.093   3.852 -1.3096  1.6355 -1.4840
 4075TIP3    H233717   6.837   0.132   3.762  0.5993  0.2560  0.3190
 4076TIP3   OH233718   4.623   2.718  16.017 -0.1865 -0.2443 -0.6655
 4076TIP3    H133719   4.703   2.732  16.068 -1.5669 -3.5793  2.6833
 4076TIP3    H233720   4.650   2.662  15.944  0.4940 -1.9144  0.8219
 4077TIP3   OH233721   5.618   2.795   4.859 -0.6518  0.5608  0.0800
 4077TIP3    H133722   5.526   2.770   4.868 -0.3879 -0.4159  0.1073
 4077TIP3    H233723   5.622   2.839   4.774 -0.9857 -0.1000 -0.2812
 4078TIP3   OH233724   2.623   5.577  15.649  0.2477 -0.4753 -0.0661
 4078TIP3    H133725   2.610   5.487  15.619 -0.9135  0.1150 -1.4389
 4078TIP3    H233726   2.609   5.630  15.571  0.5852  0.9219  0.8036
 4079TIP3   OH233727   5.378   4.291  13.165 -0.3928 -0.3889  0.2337
 4079TIP3    H133728   5.380   4.213  13.222 -2.0036 -1.8096 -1.6036
 4079TIP3    H233729   5.433   4.267  13.091  1.7124  1.4723  1.1165
 4080TIP3   OH233730   0.639   0.252   2.591 -0.5862  0.7990 -0.7527
 4080TIP3    H133731   0.589   0.186   2.639  2.8466 -1.4607 -0.0984
 4080TIP3    H233732   0.637   0.329   2.648  1.2327 -1.0183  1.8994
 4081TIP3   OH233733   4.458   5.161  12.659 -0.5998 -0.0542  0.7397
 4081TIP3    H133734   4.527   5.111  12.703 -0.7826  0.3097  1.4553
 4081TIP3    H233735   4.497   5.190  12.577 -0.7429 -2.0229 -0.0491
 4082TIP3   OH233736   5.819   1.586  14.554 -0.0542  0.4071  0.0623
 4082TIP3    H133737   5.731   1.623  14.564  1.0909  3.1219  0.3439
 4082TIP3    H233738   5.866   1.614  14.633  0.8733 -1.6821  0.3009
 4083TIP3   OH233739   0.133   1.473   5.758  0.0043  0.5215 -0.2174
 4083TIP3    H133740   0.109   1.544   5.817 -0.0915  0.5779 -0.3238
 4083TIP3    H233741   0.220   1.497   5.726  0.5688 -0.0973  0.8149
 4084TIP3   OH233742   4.472   2.624   0.433  0.0011  0.4488  0.1622
 4084TIP3    H133743   4.529   2.613   0.357 -0.3648  2.1882 -0.4048
 4084TIP3    H233744   4.462   2.719   0.440  0.2543  0.3177  2.5626
 4085TIP3   OH233745   2.152   2.628  15.203 -0.0212  0.0122  0.1253
 4085TIP3    H133746   2.238   2.591  15.225  0.2842  0.3772 -0.4728
 4085TIP3    H233747   2.158   2.719  15.230 -0.4120 -0.1010  0.5966
 4086TIP3   OH233748   4.279   5.694   4.149 -0.2854 -0.4251 -0.3521
 4086TIP3    H133749   4.186   5.703   4.129  0.5139  1.7906 -3.4477
 4086TIP3    H233750   4.297   5.763   4.213 -0.5694 -0.2399 -0.4735
 4087TIP3   OH233751   5.974   3.849  14.173 -0.3109  0.5081 -0.6920
 4087TIP3    H133752   5.963   3.757  14.151 -2.4073  0.6276 -0.2459
 4087TIP3    H233753   6.023   3.850  14.255  0.0175 -0.1813 -0.8787
 4088TIP3   OH233754   6.324   4.641   2.250 -1.0609 -0.2820  0.8288
 4088TIP3    H133755   6.250   4.647   2.310 -0.6726  0.8790  1.1948
 4088TIP3    H233756   6.301   4.699   2.178 -1.8610 -2.2275 -0.5307
 4089TIP3   OH233757   2.638   0.097   1.755 -0.2596  0.4815 -0.5237
 4089TIP3    H133758   2.605   0.009   1.741  2.0252 -0.0586 -2.9702
 4089TIP3    H233759   2.671   0.097   1.845 -4.1622  0.2426  1.0311
 4090TIP3   OH233760   4.337   2.447  12.557 -0.0669 -0.0978  0.1333
 4090TIP3    H133761   4.405   2.454  12.490 -0.0767 -1.4104 -0.0151
 4090TIP3    H233762   4.379   2.482  12.636  0.5908 -0.3391 -0.0999
 4091TIP3   OH233763   0.282   2.951   2.052 -0.6003 -0.1209 -0.6599
 4091TIP3    H133764   0.202   2.940   2.105  0.5010 -0.5168  0.9743
 4091TIP3    H233765   0.333   3.016   2.101  0.0229  0.2209 -1.7672
 4092TIP3   OH233766   6.042   6.791   3.307  0.3337 -0.8834  0.0662
 4092TIP3    H133767   5.964   6.766   3.258  1.5342 -1.7713 -1.4205
 4092TIP3    H233768   6.018   6.873   3.350 -0.1391  0.9162 -3.4630
 4093TIP3   OH233769   4.348   0.987   3.918 -0.6911 -0.5409  0.5110
 4093TIP3    H133770   4.405   0.955   3.848 -1.5020  1.7255 -1.2737
 4093TIP3    H233771   4.392   1.065   3.951 -1.9870  0.3770  0.1282
 4094TIP3   OH233772   6.218   2.977  13.649  0.1538  0.0088 -0.5330
 4094TIP3    H133773   6.180   2.975  13.561 -0.5166 -0.9433 -0.2336
 4094TIP3    H233774   6.244   2.886  13.665  2.6754  0.6295 -0.7716
 4095TIP3   OH233775   0.488   0.792  13.354 -0.0268 -0.0332  0.6618
 4095TIP3    H133776   0.482   0.792  13.259  1.7377  1.6465  0.5260
 4095TIP3    H233777   0.399   0.774  13.384 -0.8138  0.5842 -1.2943
 4096TIP3   OH233778   4.852   6.408   5.556  0.3894 -0.1418 -0.0492
 4096TIP3    H133779   4.904   6.329   5.571 -0.9235 -0.8674  0.8653
 4096TIP3    H233780   4.832   6.440   5.644 -0.8470  0.0090 -0.3682
 4097TIP3   OH233781   3.764   3.859   3.429 -0.1584  0.0741  0.4716
 4097TIP3    H133782   3.692   3.913   3.396  1.2256  1.9101  0.3767
 4097TIP3    H233783   3.833   3.922   3.450  1.1255 -1.5925  1.3244
 4098TIP3   OH233784   0.538   1.444   5.975  0.4349 -0.4488  0.7106
 4098TIP3    H133785   0.514   1.533   5.950  0.4919  0.1587  2.7056
 4098TIP3    H233786   0.540   1.395   5.893  0.3157  1.3666 -0.3890
 4099TIP3   OH233787   5.720   3.379   2.439  0.0322 -0.1773 -0.0925
 4099TIP3    H133788   5.814   3.366   2.442  0.0698  0.2762  1.1553
 4099TIP3    H233789   5.688   3.338   2.520 -0.8485 -0.4050 -0.5464
 4100TIP3   OH233790   3.843   0.663   6.676  0.5359 -0.1201  0.0134
 4100TIP3    H133791   3.752   0.691   6.663  0.2497 -0.7587  0.6082
 4100TIP3    H233792   3.886   0.740   6.713  0.1840  0.1153 -0.0586
 4101TIP3   OH233793   5.157   0.678   0.702 -0.5333 -0.3312 -0.1612
 4101TIP3    H133794   5.156   0.741   0.630 -1.6480  1.5304  1.4254
 4101TIP3    H233795   5.091   0.613   0.679  0.3692 -0.7483 -1.6360
 4102TIP3   OH233796   6.315   5.449  13.295  0.3262 -0.4813  0.0719
 4102TIP3    H133797   6.331   5.532  13.340 -2.4864  0.3106 -0.2688
 4102TIP3    H233798   6.356   5.383  13.350  1.0213  0.9501  1.3145
 4103TIP3   OH233799   3.734   3.449   0.534 -0.1844 -0.0132  0.0374
 4103TIP3    H133800   3.827   3.429   0.544 -0.3127 -0.4935  0.2522
 4103TIP3    H233801   3.725   3.540   0.564  0.2974  0.1876 -0.4263
 4104TIP3   OH233802   3.591   2.403   0.428  0.2210  0.1652 -0.1617
 4104TIP3    H133803   3.669   2.350   0.414  0.6658  0.5100  0.9161
 4104TIP3    H233804   3.616   2.465   0.496 -1.7030 -1.2456  1.9078
 4105TIP3   OH233805   4.463   4.044   0.536 -0.3369  0.0512  0.8588
 4105TIP3    H133806   4.542   4.076   0.579  0.3574 -1.2844  0.5840
 4105TIP3    H233807   4.490   4.022   0.447 -0.5948 -2.1200  1.2951
 4106TIP3   OH233808   3.790   4.449  13.792 -0.8419  0.2219  0.2481
 4106TIP3    H133809   3.813   4.525  13.738 -0.0430 -0.5112 -0.4558
 4106TIP3    H233810   3.818   4.473  13.880  0.8500  0.1256 -0.2533
 4107TIP3   OH233811   6.376   5.757  13.823  0.2844  0.1524  0.7227
 4107TIP3    H133812   6.302   5.777  13.881  1.2033  1.1425  1.5828
 4107TIP3    H233813   6.437   5.829  13.837  1.3329 -0.5576 -0.1239
 4108TIP3   OH233814   4.475   5.417  13.151 -0.5472 -0.2454 -0.1704
 4108TIP3    H133815   4.456   5.336  13.199  1.0552 -1.2901 -1.2208
 4108TIP3    H233816   4.457   5.395  13.060  0.5121  0.3960 -0.5371
 4109TIP3   OH233817   1.267   1.395  11.821 -0.3823 -0.1179  0.6741
 4109TIP3    H133818   1.264   1.486  11.790 -0.9452 -0.7245 -1.0798
 4109TIP3    H233819   1.203   1.393  11.893 -1.5426  0.4901 -0.3252
 4110TIP3   OH233820   0.799   3.342  15.519 -0.0773  0.4940  0.1468
 4110TIP3    H133821   0.802   3.292  15.438  2.4036 -0.4763  0.7719
 4110TIP3    H233822   0.851   3.421  15.501 -0.8457  1.0493  0.3193
 4111TIP3   OH233823   6.110   5.456  15.376 -0.5127  0.1626 -0.1932
 4111TIP3    H133824   6.156   5.372  15.382 -0.1309  0.3341 -0.6404
 4111TIP3    H233825   6.153   5.511  15.442 -0.5553  0.0966 -0.1133
 4112TIP3   OH233826   4.010   3.381   1.699  0.2022  0.1273 -0.0232
 4112TIP3    H133827   3.946   3.443   1.735  0.1549  0.2921 -0.3897
 4112TIP3    H233828   4.062   3.433   1.638  0.0765 -0.2191 -0.4292
 4113TIP3   OH233829   5.337   2.528   2.980  0.0795  0.0551  0.3015
 4113TIP3    H133830   5.279   2.505   2.908  0.0498  1.0552 -0.0115
 4113TIP3    H233831   5.295   2.604   3.021  1.9988  1.8387 -0.9592
 4114TIP3   OH233832   3.348   5.370  12.616  0.2085  0.1979  0.1828
 4114TIP3    H133833   3.338   5.315  12.538 -1.5505 -0.5268  0.9082
 4114TIP3    H233834   3.441   5.394  12.616  1.1758 -3.3318  0.2215
 4115TIP3   OH233835   0.347   3.590  14.404  0.4593  0.0857  0.1148
 4115TIP3    H133836   0.355   3.532  14.480  0.8801 -1.7307 -1.2889
 4115TIP3    H233837   0.258   3.625  14.409  0.4565 -0.0888  1.3720
 4116TIP3   OH233838   2.051   0.331  13.761 -0.3914  0.1253  0.6675
 4116TIP3    H133839   1.964   0.351  13.728 -0.1349  1.7537  0.9354
 4116TIP3    H233840   2.048   0.354  13.854  0.1143 -0.4682  0.8311
 4117TIP3   OH233841   4.940   4.740  15.542  0.6548 -0.1744 -0.0458
 4117TIP3    H133842   4.854   4.736  15.583  0.8174 -0.8033  0.2495
 4117TIP3    H233843   4.946   4.660  15.491  0.7595  0.2386 -0.6817
 4118TIP3   OH233844   0.367   5.153   4.729 -0.7571  0.5946 -0.1175
 4118TIP3    H133845   0.392   5.245   4.733 -1.3118  0.7408 -0.0208
 4118TIP3    H233846   0.314   5.139   4.807 -0.3609  0.0945  0.0703
 4119TIP3   OH233847   0.600   4.170   1.730  0.2419 -0.1383 -0.1523
 4119TIP3    H133848   0.557   4.085   1.736 -0.7764  0.4532  1.0659
 4119TIP3    H233849   0.582   4.212   1.814  1.9212  0.7304 -0.1962
 4120TIP3   OH233850   4.032   2.665   6.057  0.6887 -0.2462  0.4198
 4120TIP3    H133851   3.954   2.675   6.112 -0.4457 -1.2749 -0.9578
 4120TIP3    H233852   4.066   2.578   6.080  1.7643  0.4261  1.4177
 4121TIP3   OH233853   2.400   2.817  15.040  0.0258 -0.0224  0.3233
 4121TIP3    H133854   2.393   2.911  15.022  3.0384  0.0180 -0.9124
 4121TIP3    H233855   2.445   2.781  14.964  0.4363 -2.1974  1.5585
 4122TIP3   OH233856   3.437   2.041  14.642 -0.1921 -0.1357 -0.3108
 4122TIP3    H133857   3.470   2.128  14.620  0.6010 -0.5032 -0.5897
 4122TIP3    H233858   3.454   2.031  14.736  0.3916 -0.2798 -0.4309
 4123TIP3   OH233859   3.672   2.285  11.950 -0.2096  0.6334  0.2759
 4123TIP3    H133860   3.725   2.211  11.982  0.5033  0.9291 -0.2115
 4123TIP3    H233861   3.600   2.244  11.903  1.1792  0.2538 -1.5910
 4124TIP3   OH233862   3.849   5.268   6.133 -0.5270  0.0373  0.0798
 4124TIP3    H133863   3.875   5.219   6.056 -2.1391 -0.0499 -0.4220
 4124TIP3    H233864   3.863   5.360   6.109 -0.2813 -0.0293 -0.0313
 4125TIP3   OH233865   6.449   5.756  13.176 -0.2703 -0.2814 -0.1402
 4125TIP3    H133866   6.380   5.760  13.242 -0.2936  2.8391 -0.2359
 4125TIP3    H233867   6.528   5.783  13.223  0.5655 -2.1521 -0.4324
 4126TIP3   OH233868   4.876   3.068  14.553 -0.6776  0.0392  0.3269
 4126TIP3    H133869   4.934   3.003  14.593 -0.8203 -1.9324 -2.5632
 4126TIP3    H233870   4.934   3.138  14.524  0.0538 -0.9850 -0.7182
 4127TIP3   OH233871   4.565   5.680  15.662  0.1951 -0.0743  0.1335
 4127TIP3    H133872   4.605   5.729  15.591  0.1449 -1.6634 -1.0343
 4127TIP3    H233873   4.473   5.708  15.663 -0.0045 -0.6803 -1.0120
 4128TIP3   OH233874   0.423   1.469  15.237  0.0582  0.3648  0.5653
 4128TIP3    H133875   0.395   1.453  15.147 -1.2979  2.0584  0.6457
 4128TIP3    H233876   0.513   1.499  15.230  0.4942 -1.1002 -0.0896
 4129TIP3   OH233877   0.155   3.489   4.500  0.2366 -0.3783  0.0833
 4129TIP3    H133878   0.166   3.407   4.452  0.4317 -0.4229  0.2009
 4129TIP3    H233879   0.194   3.556   4.444 -0.5244 -0.2595 -0.3190
 4130TIP3   OH233880   3.361   5.531   0.335 -0.6260  0.0131  0.0949
 4130TIP3    H133881   3.454   5.539   0.355 -0.7256 -0.2018  0.6566
 4130TIP3    H233882   3.321   5.611   0.370 -0.4485  0.8008 -1.4414
 4131TIP3   OH233883   3.798   3.413   2.769 -0.0052  0.3190 -0.1211
 4131TIP3    H133884   3.787   3.343   2.705 -0.0786  0.5208 -0.3338
 4131TIP3    H233885   3.830   3.487   2.718  0.8618  0.1980  0.2438
 4132TIP3   OH233886   5.087   3.467   3.917 -0.1197 -0.3717  0.2505
 4132TIP3    H133887   5.015   3.404   3.919 -0.1844 -0.3944 -1.7610
 4132TIP3    H233888   5.076   3.519   3.996 -3.2043  0.5986 -0.7783
 4133TIP3   OH233889   0.344   6.536   2.645 -0.4145  0.2863 -0.1425
 4133TIP3    H133890   0.403   6.592   2.695  1.1765  0.3563 -2.0676
 4133TIP3    H233891   0.401   6.476   2.598 -1.9079 -0.0546 -1.5636
 4134TIP3   OH233892   3.409   5.261   3.151  0.3954 -0.3360  0.2816
 4134TIP3    H133893   3.487   5.293   3.196  0.5086 -0.5296  0.2222
 4134TIP3    H233894   3.440   5.232   3.065  0.3913 -1.1354  0.5455
 4135TIP3   OH233895   6.136   2.979   5.650 -0.0530 -0.3506 -0.1889
 4135TIP3    H133896   6.054   2.985   5.699 -1.2457  1.5954 -2.3046
 4135TIP3    H233897   6.170   2.891   5.670 -1.4414 -0.3159  2.5455
 4136TIP3   OH233898   5.921   5.493  16.435  0.6644 -0.0308  0.3221
 4136TIP3    H133899   5.898   5.402  16.416 -1.3809  0.4114  0.5678
 4136TIP3    H233900   5.941   5.531  16.350  3.5885 -1.2126  0.4112
 4137TIP3   OH233901   3.817   2.236  15.240  0.1439  0.4090 -0.1954
 4137TIP3    H133902   3.846   2.265  15.153 -0.9000  3.2256  0.3340
 4137TIP3    H233903   3.898   2.221  15.289  0.7338 -0.7840 -1.5051
 4138TIP3   OH233904   0.178   5.209  13.114 -0.1380  0.2128 -0.2359
 4138TIP3    H133905   0.114   5.251  13.057  0.1687 -0.8780 -1.4211
 4138TIP3    H233906   0.129   5.136  13.154  0.3918 -0.7629 -1.3193
 4139TIP3   OH233907   0.303   2.073  16.106 -0.1823  0.5067 -0.3028
 4139TIP3    H133908   0.267   1.993  16.145  1.3560  0.9877  2.2582
 4139TIP3    H233909   0.392   2.049  16.081 -0.9387  0.4110 -2.9586
 4140TIP3   OH233910   2.000   6.076   1.651 -0.0162  0.2494  0.8588
 4140TIP3    H133911   1.914   6.045   1.679 -0.4902  1.6485  0.9806
 4140TIP3    H233912   2.060   6.047   1.720 -0.0902 -2.2316 -0.0683
 4141TIP3   OH233913   1.584   4.782   2.581  0.1867 -0.2940 -0.4591
 4141TIP3    H133914   1.591   4.718   2.510  1.3546 -1.3308  0.5669
 4141TIP3    H233915   1.578   4.729   2.661  0.5370  0.8684  0.3605
 4142TIP3   OH233916   4.309   1.572  14.788  0.3840  0.7193 -0.2254
 4142TIP3    H133917   4.230   1.602  14.744  0.7233 -1.7131 -2.6706
 4142TIP3    H233918   4.379   1.590  14.725  1.7711  2.5411  1.7658
 4143TIP3   OH233919   5.786   4.063   2.964  0.4075  0.2781  0.4529
 4143TIP3    H133920   5.777   4.151   2.926  1.7284 -0.0633 -0.7211
 4143TIP3    H233921   5.879   4.042   2.952  0.1015 -1.2679  0.7547
 4144TIP3   OH233922   3.071   6.630  11.262 -0.0664  0.3195  0.1292
 4144TIP3    H133923   3.045   6.580  11.340 -0.3847 -1.0608 -0.8563
 4144TIP3    H233924   3.161   6.658  11.281  0.8024 -2.2311 -0.1049
 4145TIP3   OH233925   4.017   6.062   0.785  0.1765 -0.4805 -0.2444
 4145TIP3    H133926   4.007   6.147   0.741 -1.7095 -0.9442 -0.7360
 4145TIP3    H233927   4.045   6.085   0.873  1.0960  0.5878 -0.7888
 4146TIP3   OH233928   3.177   5.211   0.998  0.1858  0.3882  0.2176
 4146TIP3    H133929   3.097   5.262   1.005  1.0058  1.9284 -1.3592
 4146TIP3    H233930   3.149   5.127   0.961 -0.6155  1.1118 -0.8315
 4147TIP3   OH233931   4.387   0.951   1.748 -0.3816 -0.7742 -0.2486
 4147TIP3    H133932   4.447   1.012   1.790 -0.3337 -0.8584 -0.1939
 4147TIP3    H233933   4.443   0.879   1.719 -0.2667 -0.2500 -1.3641
 4148TIP3   OH233934   4.928   3.274  14.095 -0.3873 -0.2450 -0.6287
 4148TIP3    H133935   4.866   3.276  14.022 -0.3210 -0.9132 -0.7127
 4148TIP3    H233936   4.996   3.213  14.067 -0.7618 -1.1178  0.2839
 4149TIP3   OH233937   5.316   2.776  16.919  0.3775  0.1954 -0.1906
 4149TIP3    H133938   5.399   2.744  16.884  0.4481  2.7368 -2.5625
 4149TIP3    H233939   5.340   2.852  16.972 -0.2668 -0.1764  0.6355
 4150TIP3   OH233940   3.850   4.885  12.110  0.3482  0.3239 -0.5278
 4150TIP3    H133941   3.865   4.800  12.067 -1.4173 -0.1505 -0.2417
 4150TIP3    H233942   3.903   4.882  12.189  1.1624 -0.0670 -1.0857
 4151TIP3   OH233943   2.581   5.951  15.006 -0.1559 -0.1246 -0.1587
 4151TIP3    H133944   2.583   5.860  15.037 -0.0458  0.5480  1.8591
 4151TIP3    H233945   2.574   5.943  14.911  2.0952 -2.2751 -0.2075
 4152TIP3   OH233946   0.459   6.165  17.032 -0.3072  0.5675 -0.1705
 4152TIP3    H133947   0.423   6.250  17.058  3.3005  2.7813 -2.0597
 4152TIP3    H233948   0.533   6.151  17.091  0.3249 -0.3383 -1.1632
 4153TIP3   OH233949   1.864   2.497   2.449 -0.0520 -0.5000  0.7352
 4153TIP3    H133950   1.839   2.474   2.360  0.0387  1.5287  0.1607
 4153TIP3    H233951   1.941   2.554   2.439  0.0723 -0.3980  2.1113
 4154TIP3   OH233952   2.106   4.116  16.578  0.5988 -0.2481 -0.0939
 4154TIP3    H133953   2.014   4.118  16.554  0.3445  1.1534  0.9490
 4154TIP3    H233954   2.149   4.175  16.516  0.4879  0.6143  0.6452
 4155TIP3   OH233955   4.919   2.820  15.706  0.3299 -0.2826  0.3552
 4155TIP3    H133956   4.864   2.747  15.736  0.6412 -0.3063  0.8583
 4155TIP3    H233957   4.909   2.819  15.610 -1.7178  0.6295  0.5175
 4156TIP3   OH233958   5.208   6.356   0.615  0.8175  0.2858  0.7338
 4156TIP3    H133959   5.251   6.271   0.608  0.6231  0.2054  0.5043
 4156TIP3    H233960   5.118   6.335   0.640 -0.0780  0.2312 -2.3321
 4157TIP3   OH233961   3.380   1.316  10.950 -0.5265 -0.6114 -0.5966
 4157TIP3    H133962   3.456   1.267  10.918  1.5338  1.8320  0.3523
 4157TIP3    H233963   3.377   1.394  10.894 -0.5175  0.7630  1.2825
 4158TIP3   OH233964   3.065   6.005   5.340  0.0001 -0.0533  0.0374
 4158TIP3    H133965   3.119   6.064   5.393 -1.9255  2.2208 -0.4388
 4158TIP3    H233966   2.986   5.992   5.392 -1.6785  1.7474 -1.9816
 4159TIP3   OH233967   0.106   2.304  17.131  0.1042 -0.4154  0.2540
 4159TIP3    H133968   0.037   2.276  17.070 -1.2803  0.8711  1.1823
 4159TIP3    H233969   0.176   2.336  17.075 -0.4338 -0.8578 -0.6928
 4160TIP3   OH233970   0.092   4.005  15.024  0.7926 -0.0435  0.8800
 4160TIP3    H133971   0.120   4.033  14.937 -0.7677 -1.2461 -0.0449
 4160TIP3    H233972   0.005   4.042  15.034 -0.6593 -3.1130  0.2742
 4161TIP3   OH233973   0.647   5.605   1.220  0.3846 -0.0849  0.2798
 4161TIP3    H133974   0.596   5.666   1.167 -0.1458 -0.9519 -0.2219
 4161TIP3    H233975   0.713   5.659   1.263 -0.2311  0.8702  0.0256
 4162TIP3   OH233976   5.772   3.997  16.772 -0.2414 -0.6114 -0.0837
 4162TIP3    H133977   5.784   4.071  16.713  1.8179 -0.6169  0.2920
 4162TIP3    H233978   5.810   4.026  16.855 -2.1838 -0.9842  0.9701
 4163TIP3   OH233979   3.689   4.015   5.255  0.0796  0.3780  0.4990
 4163TIP3    H133980   3.704   4.033   5.162 -0.3971 -0.5099  0.2392
 4163TIP3    H233981   3.734   4.086   5.301  2.0696 -0.2886 -0.3634
 4164TIP3   OH233982   2.971   5.271   3.835  0.1802  0.0769 -0.4373
 4164TIP3    H133983   3.066   5.261   3.823  0.0714  0.2525 -1.5226
 4164TIP3    H233984   2.948   5.206   3.901  1.3066  1.1238  1.0226
 4165TIP3   OH233985   0.226   3.077  11.723  0.2046  0.4811  0.2299
 4165TIP3    H133986   0.235   3.012  11.653  0.3131 -0.5330  1.1658
 4165TIP3    H233987   0.192   3.155  11.679 -2.2500 -0.9626 -0.5245
 4166TIP3   OH233988   2.653   3.548  15.810  0.2941 -0.6835  0.4647
 4166TIP3    H133989   2.591   3.539  15.882  0.0226  0.0664  0.3316
 4166TIP3    H233990   2.609   3.509  15.735 -0.4324  0.7013  0.1411
 4167TIP3   OH233991   0.590   2.168   2.147  0.0025  0.3708 -0.0981
 4167TIP3    H133992   0.569   2.078   2.172  0.6138  0.7962  2.1311
 4167TIP3    H233993   0.640   2.160   2.066 -1.7174 -1.1467 -1.0458
 4168TIP3   OH233994   0.373   0.443   2.159  0.0692 -0.1597 -0.6205
 4168TIP3    H133995   0.393   0.369   2.217  1.2759  2.0282  1.8929
 4168TIP3    H233996   0.458   0.471   2.126 -0.1167  1.4099  0.1697
 4169TIP3   OH233997   3.627   6.196  12.344 -0.4714 -0.2953  0.2803
 4169TIP3    H133998   3.715   6.185  12.380  0.8183 -0.2996 -2.7904
 4169TIP3    H233999   3.632   6.275  12.290 -2.1377 -0.7406 -0.5625
 4170TIP3   OH234000   1.377   6.368   0.478  0.2126  0.6015  0.2587
 4170TIP3    H134001   1.367   6.347   0.385 -0.0599 -4.1854  1.2681
 4170TIP3    H234002   1.288   6.386   0.508  0.1430  0.8532 -0.0840
 4171TIP3   OH234003   2.527   0.097  13.210 -0.1242  0.2456  0.1229
 4171TIP3    H134004   2.524   0.045  13.290  3.4355 -1.1225 -0.5404
 4171TIP3    H234005   2.446   0.075  13.163 -0.4762 -1.7372  1.6219
 4172TIP3   OH234006   5.659   6.195   0.445  0.7141  0.0801 -0.0990
 4172TIP3    H134007   5.602   6.234   0.379  1.7297  1.0221 -0.4299
 4172TIP3    H234008   5.624   6.227   0.528 -1.7594 -2.6582 -0.0146
 4173TIP3   OH234009   5.495   3.895   1.023 -0.2370  0.3597  0.1379
 4173TIP3    H134010   5.411   3.907   0.980 -0.1658 -2.0101 -0.7264
 4173TIP3    H234011   5.554   3.956   0.979 -1.1026  0.7929 -0.4177
 4174TIP3   OH234012   4.896   1.810   3.518 -0.5024  0.1791  0.6680
 4174TIP3    H134013   4.897   1.763   3.602 -0.2659 -0.7602  0.1473
 4174TIP3    H234014   4.889   1.741   3.452  0.0710  0.8643 -0.1209
 4175TIP3   OH234015   4.852   1.522   3.636  0.0309 -0.5794 -0.2233
 4175TIP3    H134016   4.865   1.491   3.725  0.4366  0.3806  0.0622
 4175TIP3    H234017   4.939   1.516   3.595 -0.2840 -1.6332 -0.7629
 4176TIP3   OH234018   1.268   5.913  11.451 -0.1161  0.4423 -0.0198
 4176TIP3    H134019   1.330   5.841  11.437 -1.7430 -0.9641 -0.1951
 4176TIP3    H234020   1.323   5.991  11.458  1.5456 -0.3624 -2.9614
 4177TIP3   OH234021   1.638   5.121  13.826 -0.1371 -0.2265 -0.0176
 4177TIP3    H134022   1.725   5.110  13.787  0.3721  1.6850  0.5033
 4177TIP3    H234023   1.652   5.107  13.920  0.1411  2.4130  0.3944
 4178TIP3   OH234024   1.939   1.260  12.411 -0.3581  0.0822  0.2238
 4178TIP3    H134025   2.009   1.230  12.352  0.4103 -1.6731  1.9671
 4178TIP3    H234026   1.980   1.263  12.497 -1.4514  2.7129  0.6865
 4179TIP3   OH234027   5.300   3.546  12.739 -0.3946 -0.2395  0.0004
 4179TIP3    H134028   5.211   3.575  12.758 -0.3911 -0.8924  1.0608
 4179TIP3    H234029   5.328   3.500  12.818  1.8132  2.1407  0.6697
 4180TIP3   OH234030   3.079   3.092   2.160  0.4780  0.1839 -0.5473
 4180TIP3    H134031   3.038   3.017   2.203 -0.8545 -0.1651 -2.3914
 4180TIP3    H234032   3.017   3.164   2.175  0.2953  0.1985 -1.3739
 4181TIP3   OH234033   2.581   3.082   1.771  0.1577  0.0726  0.1534
 4181TIP3    H134034   2.519   3.138   1.724  0.7605  1.3252  0.8166
 4181TIP3    H234035   2.543   3.073   1.858 -0.5291 -1.5430 -0.2918
 4182TIP3   OH234036   2.370   5.104   2.055 -0.7981 -0.0346  0.6762
 4182TIP3    H134037   2.312   5.045   2.007 -0.5466  0.7272 -0.5762
 4182TIP3    H234038   2.364   5.187   2.008  2.7400 -0.4356 -0.6058
 4183TIP3   OH234039   4.948   4.116   0.508  0.7357 -0.5277  0.2070
 4183TIP3    H134040   4.862   4.076   0.495  0.0314  0.3245  2.0074
 4183TIP3    H234041   4.928   4.206   0.535  2.1816 -0.3135  0.5847
 4184TIP3   OH234042   3.045   2.376   3.755 -0.6843  0.1493 -0.4080
 4184TIP3    H134043   3.134   2.341   3.752 -0.7228  0.0318 -0.1629
 4184TIP3    H234044   3.032   2.400   3.847 -0.2922  1.7370 -0.7497
 4185TIP3   OH234045   0.108   0.611  12.537 -0.3282 -0.2229 -0.5851
 4185TIP3    H134046   0.084   0.697  12.572 -1.8888 -1.3859  1.2930
 4185TIP3    H234047   0.044   0.551  12.575  1.3852 -2.3821 -1.0279
 4186TIP3   OH234048   6.741   0.345   6.434 -0.0768  0.2570 -0.4310
 4186TIP3    H134049   6.710   0.265   6.391  0.5800  0.0282 -0.4944
 4186TIP3    H234050   6.671   0.409   6.421 -0.8592 -0.4876  0.1288
 4187TIP3   OH234051   1.027   1.067  13.261 -0.3093 -0.3929  0.9011
 4187TIP3    H134052   1.005   1.120  13.184  0.0786 -0.1813  0.9329
 4187TIP3    H234053   0.945   1.023  13.284 -0.6684  0.2922  0.9472
 4188TIP3   OH234054   3.291   2.562   3.063  0.4112  0.4181 -0.4640
 4188TIP3    H134055   3.329   2.537   3.147 -2.3480 -1.0149  0.4118
 4188TIP3    H234056   3.349   2.525   2.997  1.1868 -0.6698  0.8266
 4189TIP3   OH234057   2.915   3.631   5.108 -0.1183 -0.2192 -0.0592
 4189TIP3    H134058   2.827   3.664   5.093  0.8145  1.8065 -1.3284
 4189TIP3    H234059   2.946   3.678   5.185  0.0152 -0.5982  0.1214
 4190TIP3   OH234060   1.092   6.633  13.342 -0.6499 -0.0793 -0.8944
 4190TIP3    H134061   1.074   6.720  13.305  0.3569  0.2500 -0.6287
 4190TIP3    H234062   1.030   6.575  13.297 -2.1958  0.9579 -0.1831
 4191TIP3   OH234063   6.171   1.164   4.388 -0.9254 -0.1628  0.4859
 4191TIP3    H134064   6.168   1.201   4.299  2.0525  1.9526  1.1650
 4191TIP3    H234065   6.080   1.160   4.415 -1.6387  3.4001 -1.0542
 4192TIP3   OH234066   0.715   3.820  13.319 -0.1147 -0.3844 -0.5415
 4192TIP3    H134067   0.748   3.811  13.230 -0.7695  1.6163 -1.0234
 4192TIP3    H234068   0.785   3.786  13.375  0.8664 -0.3877 -1.7685
 4193TIP3   OH234069   3.936   3.743   4.157  0.0492 -0.0951 -0.4928
 4193TIP3    H134070   3.873   3.671   4.164  0.0887 -0.1315 -0.5047
 4193TIP3    H234071   3.890   3.812   4.110 -0.1232  0.0417 -0.1241
 4194TIP3   OH234072   0.266   6.351   5.151 -0.7659 -0.3869  0.3155
 4194TIP3    H134073   0.192   6.322   5.098 -1.0008 -0.0623  0.4619
 4194TIP3    H234074   0.234   6.429   5.196  0.1171  0.5681 -0.6858
 4195TIP3   OH234075   3.456   1.613  12.489 -0.1049 -0.1382 -0.4707
 4195TIP3    H134076   3.416   1.697  12.513  0.7696  0.7026 -1.9286
 4195TIP3    H234077   3.476   1.572  12.573 -1.9884  0.4006  0.2683
 4196TIP3   OH234078   6.072   2.414   1.078 -0.1444 -1.4301 -0.1411
 4196TIP3    H134079   6.066   2.326   1.115  0.6549 -1.0752  0.8485
 4196TIP3    H234080   6.060   2.401   0.984  3.0773 -2.9749 -0.4128
 4197TIP3   OH234081   5.698   2.947  15.588 -0.0844 -0.0662 -0.3478
 4197TIP3    H134082   5.734   2.983  15.508 -0.8230 -0.2869 -0.7817
 4197TIP3    H234083   5.610   2.918  15.565 -0.3054 -0.1382  0.5334
 4198TIP3   OH234084   3.853   6.249  14.517 -0.7696 -0.3370  0.3966
 4198TIP3    H134085   3.913   6.175  14.511 -0.0020  0.3130 -0.0845
 4198TIP3    H234086   3.777   6.215  14.564  0.8151 -0.6309  2.8125
 4199TIP3   OH234087   1.422   5.590   3.684  0.3854  0.0479  0.3252
 4199TIP3    H134088   1.329   5.611   3.691  0.0016 -0.9082 -1.4450
 4199TIP3    H234089   1.449   5.570   3.773 -1.2998 -0.3996  0.7601
 4200TIP3   OH234090   3.119   2.341  16.145 -0.0534  0.4909  0.0666
 4200TIP3    H134091   3.187   2.402  16.116  0.8003  0.4371  1.8664
 4200TIP3    H234092   3.119   2.271  16.080  1.5464  0.5455  0.0062
 4201TIP3   OH234093   0.363   0.102  13.375 -0.3065  0.1015 -0.2353
 4201TIP3    H134094   0.324   0.024  13.334  0.9203 -1.3408  1.2842
 4201TIP3    H234095   0.449   0.110  13.332 -0.2686  0.3709 -0.1050
 4202TIP3   OH234096   2.252   5.692   5.458 -0.5326  0.1897  0.2784
 4202TIP3    H134097   2.257   5.644   5.375 -2.5439 -2.3723  1.5655
 4202TIP3    H234098   2.328   5.750   5.456  1.2686 -2.1124 -1.9553
 4203TIP3   OH234099   6.096   0.403  17.269 -0.2813 -0.3541 -0.2467
 4203TIP3    H134100   6.098   0.415  17.174  0.6363 -0.1948 -0.2150
 4203TIP3    H234101   6.106   0.309  17.282 -2.4499 -0.6228 -0.3566
 4204TIP3   OH234102   4.254   1.385   4.996  0.1547  0.1996 -0.6404
 4204TIP3    H134103   4.238   1.442   4.921 -1.5848 -0.0657 -0.4952
 4204TIP3    H234104   4.212   1.302   4.972 -1.3156  0.4213  1.0198
 4205TIP3   OH234105   0.300   3.574  16.005  0.2615  0.1031  0.2560
 4205TIP3    H134106   0.250   3.612  15.933  0.2422  0.2362  0.3389
 4205TIP3    H234107   0.243   3.506  16.042 -0.1362  0.7227  0.7875
 4206TIP3   OH234108   5.567   5.026  17.017  0.4991  0.5397  0.4933
 4206TIP3    H134109   5.645   5.071  16.984 -0.8834  2.4204 -0.3009
 4206TIP3    H234110   5.495   5.061  16.964 -1.0391 -0.2879  2.0056
 4207TIP3   OH234111   2.470   3.269  12.523  0.4494  0.4110 -0.0815
 4207TIP3    H134112   2.442   3.250  12.434 -0.9991 -0.4023  0.5288
 4207TIP3    H234113   2.503   3.186  12.556 -2.3035 -0.1951  1.2965
 4208TIP3   OH234114   6.025   3.323  15.047  0.2245  0.1687 -0.4321
 4208TIP3    H134115   6.029   3.411  15.010  0.7166 -0.4026 -1.7832
 4208TIP3    H234116   5.932   3.303  15.050  0.1070  0.7555 -0.0635
 4209TIP3   OH234117   6.548   2.087   3.591  0.0279  0.3883  0.2031
 4209TIP3    H134118   6.505   2.057   3.671 -0.3999 -3.3769 -1.3384
 4209TIP3    H234119   6.639   2.102   3.617 -0.1953 -0.4293  1.5025
 4210TIP3   OH234120   1.745   2.686   4.091 -0.3018 -0.0850 -0.0047
 4210TIP3    H134121   1.651   2.701   4.102 -0.3017 -1.0457  1.5341
 4210TIP3    H234122   1.751   2.612   4.030 -0.5800 -0.5542  0.5278
 4211TIP3   OH234123   5.062   6.770   3.002 -0.5006  0.0896 -0.0435
 4211TIP3    H134124   4.995   6.702   3.009  1.8915 -2.4141 -0.6541
 4211TIP3    H234125   5.088   6.788   3.093 -0.3470 -0.6692  0.0697
 4212TIP3   OH234126   1.269   0.106  14.981 -0.0110 -0.3179  0.5948
 4212TIP3    H134127   1.345   0.152  15.016 -0.0874 -1.0237  1.6948
 4212TIP3    H234128   1.197   0.168  14.989  0.2958  0.0859  0.2307
 4213TIP3   OH234129   2.498   3.026   4.486 -0.3740 -0.8412  0.3509
 4213TIP3    H134130   2.544   2.995   4.564  0.1406  1.1305  0.8734
 4213TIP3    H234131   2.473   3.116   4.508  0.0407 -0.1552 -1.8602
 4214TIP3   OH234132   3.543   4.379  16.403 -0.1419  0.1009 -0.2721
 4214TIP3    H134133   3.598   4.302  16.413  0.3544  0.2301 -1.9019
 4214TIP3    H234134   3.565   4.434  16.478  1.2248 -0.2960 -0.3741
 4215TIP3   OH234135   2.596   5.990   3.579  0.6253  0.0589 -0.0231
 4215TIP3    H134136   2.579   6.003   3.672  1.2353  1.8661 -0.1448
 4215TIP3    H234137   2.541   5.914   3.555 -1.5075  1.1502  1.2233
 4216TIP3   OH234138   6.536   0.673  14.372  0.7965  0.3357  0.6441
 4216TIP3    H134139   6.626   0.678  14.404  1.4020  1.0189 -1.1201
 4216TIP3    H234140   6.482   0.680  14.451  2.2784  0.2841  1.6759
 4217TIP3   OH234141   4.938   6.394   4.593  0.1232  0.2762  0.0317
 4217TIP3    H134142   4.852   6.358   4.614  0.7730 -0.3330  1.7970
 4217TIP3    H234143   4.988   6.319   4.560  0.4093  0.2943  0.4102
 4218TIP3   OH234144   0.081   5.924   2.759 -0.2019 -0.0136  0.2152
 4218TIP3    H134145   0.069   5.973   2.678  1.4370 -2.4906 -1.6048
 4218TIP3    H234146  -0.006   5.887   2.777 -0.4502  0.0973 -0.7053
 4219TIP3   OH234147   3.591   0.734   6.591 -0.2707  0.0422  0.0677
 4219TIP3    H134148   3.519   0.696   6.542 -0.9837  0.1318  1.0294
 4219TIP3    H234149   3.636   0.790   6.529 -0.7903 -0.3324 -0.6466
 4220TIP3   OH234150   4.773   5.375   3.007  0.1760  0.2201 -0.0780
 4220TIP3    H134151   4.775   5.282   3.031  0.9380 -0.3332 -2.1552
 4220TIP3    H234152   4.843   5.384   2.942  1.2403  2.6325  1.3527
 4221TIP3   OH234153   4.102   1.647  15.020  0.2991  0.0073  0.2883
 4221TIP3    H134154   4.028   1.704  15.042  0.6390  1.1067 -1.3231
 4221TIP3    H234155   4.096   1.637  14.925  2.5282  0.5584  0.0730
 4222TIP3   OH234156   1.537   5.026   3.742 -0.3856 -0.0355 -0.0804
 4222TIP3    H134157   1.615   4.996   3.790 -1.1931 -2.5568 -0.2818
 4222TIP3    H234158   1.563   5.024   3.650 -1.1740 -2.5023 -0.2782
 4223TIP3   OH234159   1.350   5.010  14.166 -0.0175 -0.0427 -0.3857
 4223TIP3    H134160   1.270   5.058  14.145 -0.3672  0.1046  1.2674
 4223TIP3    H234161   1.414   5.077  14.188 -0.1009 -0.2733  0.5523
 4224TIP3   OH234162   2.413   5.384  11.617 -0.2830 -0.0910  0.1442
 4224TIP3    H134163   2.420   5.303  11.568  0.4317  1.1413 -1.8409
 4224TIP3    H234164   2.326   5.418  11.595 -0.0375  0.3661 -0.1271
 4225TIP3   OH234165   3.176   1.904   3.101 -0.2698  0.6273 -0.9614
 4225TIP3    H134166   3.085   1.890   3.127 -0.3345  0.2778 -1.3650
 4225TIP3    H234167   3.172   1.974   3.036 -0.2492  0.6369 -0.9525
 4226TIP3   OH234168   0.331   0.492   4.362  0.4322  0.1706 -0.0544
 4226TIP3    H134169   0.304   0.417   4.417 -0.4681  1.9445  2.0005
 4226TIP3    H234170   0.415   0.520   4.399  1.3313 -0.5072 -1.5465
 4227TIP3   OH234171   5.972   4.755   4.579 -0.3875  0.1489 -0.5938
 4227TIP3    H134172   5.917   4.738   4.655  1.0453 -3.2679 -0.2233
 4227TIP3    H234173   5.940   4.693   4.513  0.7370  0.5794 -1.5480
 4228TIP3   OH234174   6.596   2.157  14.469  0.3790  0.1920 -0.4197
 4228TIP3    H134175   6.505   2.143  14.445 -0.8081  0.9321  3.3628
 4228TIP3    H234176   6.645   2.089  14.422 -2.2419 -1.0269 -1.4376
 4229TIP3   OH234177   6.642   1.441   3.038  0.0292 -0.6656  0.6071
 4229TIP3    H134178   6.676   1.489   3.114  0.6668  0.5707 -0.4432
 4229TIP3    H234179   6.571   1.497   3.005  2.2106  0.6786 -1.9411
 4230TIP3   OH234180   2.780   3.370  16.023 -0.0910 -0.3398  0.4072
 4230TIP3    H134181   2.845   3.440  16.033 -1.3093  0.7673  0.6731
 4230TIP3    H234182   2.791   3.341  15.933  0.2704  0.3466  0.2194
 4231TIP3   OH234183   2.995   2.970  11.698 -0.1563  0.2371 -0.4321
 4231TIP3    H134184   3.018   3.052  11.741  1.9534 -0.1506 -0.7678
 4231TIP3    H234185   3.072   2.948  11.645 -0.6305 -2.0215 -0.2493
 4232TIP3   OH234186   1.764   6.372  11.935  0.2585 -0.7765  0.3374
 4232TIP3    H134187   1.704   6.329  11.996  0.2895 -1.8817 -0.3883
 4232TIP3    H234188   1.709   6.399  11.862  0.5655 -1.4222 -0.1397
 4233TIP3   OH234189   4.863   0.810  13.802  0.4485 -0.3568  0.2044
 4233TIP3    H134190   4.907   0.873  13.744 -1.1140  1.5069  0.9715
 4233TIP3    H234191   4.935   0.763  13.845  1.6592  0.5868 -0.7397
 4234TIP3   OH234192   6.679   6.800   3.191  0.4925 -0.1226  0.8520
 4234TIP3    H134193   6.697   6.888   3.159 -0.5120 -0.1597  0.1754
 4234TIP3    H234194   6.606   6.811   3.251 -1.9062 -0.9256 -1.7977
 4235TIP3   OH234195   4.288   0.777   3.265 -0.5616 -0.4430 -0.1057
 4235TIP3    H134196   4.267   0.864   3.298  0.1038  0.0327 -0.9078
 4235TIP3    H234197   4.246   0.717   3.326 -0.2803  0.4257  0.9609
 4236TIP3   OH234198   2.977   2.159   3.349  0.0171  0.6827  0.3207
 4236TIP3    H134199   2.994   2.074   3.309 -0.4466  0.8875 -0.3145
 4236TIP3    H234200   3.027   2.222   3.297 -1.1156  1.0341 -0.3593
 4237TIP3   OH234201   1.215   6.720  11.566  0.1172  0.0674 -0.1135
 4237TIP3    H134202   1.157   6.676  11.629  1.3435 -0.8968  0.3685
 4237TIP3    H234203   1.193   6.813  11.574 -1.4785 -0.3044 -0.0631
 4238TIP3   OH234204   5.153   1.096   6.024 -0.4422 -0.4854 -0.2351
 4238TIP3    H134205   5.076   1.074   5.972  0.8971  1.3271 -3.1114
 4238TIP3    H234206   5.132   1.180   6.065 -0.8475 -1.0754  0.7598
 4239TIP3   OH234207   3.251   0.642   2.878  0.1924  0.0907  0.4073
 4239TIP3    H134208   3.225   0.553   2.855 -2.1126  1.1188 -1.1116
 4239TIP3    H234209   3.343   0.634   2.905 -0.0823 -2.7770  0.6358
 4240TIP3   OH234210   5.345   5.102  16.028 -0.1677  0.0649  0.5685
 4240TIP3    H134211   5.368   5.010  16.042 -2.1409 -0.3952  1.0465
 4240TIP3    H234212   5.327   5.107  15.934  1.5983  0.3841  0.2308
 4241TIP3   OH234213   1.089   6.591   0.550  0.4523  0.2072  0.7057
 4241TIP3    H134214   1.116   6.503   0.576  1.4616  0.5002  0.6454
 4241TIP3    H234215   1.007   6.577   0.502 -0.9318 -0.4453  3.1296
 4242TIP3   OH234216   2.557   4.877   1.301  0.0031  0.3593 -0.3690
 4242TIP3    H134217   2.542   4.929   1.222  1.1310 -0.2953 -1.0467
 4242TIP3    H234218   2.497   4.803   1.293  0.3691  0.1033 -0.8122
 4243TIP3   OH234219   1.663   4.457   3.844  0.3469 -0.2594 -0.0964
 4243TIP3    H134220   1.738   4.508   3.812  0.1245 -0.0424 -0.2729
 4243TIP3    H234221   1.597   4.467   3.775 -0.9775  2.0678  1.4331
 4244TIP3   OH234222   1.878   6.147  13.875  1.0952 -0.1724  0.4385
 4244TIP3    H134223   1.799   6.201  13.881  0.3819 -1.1639  0.0967
 4244TIP3    H234224   1.860   6.073  13.933  1.6277 -0.5976  0.0545
 4245TIP3   OH234225   0.905   6.095  17.255  0.2194 -0.1397 -0.7134
 4245TIP3    H134226   0.952   6.019  17.220 -1.8526 -0.9373 -1.8686
 4245TIP3    H234227   0.926   6.166  17.195  0.3591 -0.3671 -0.9360
 4246TIP3   OH234228   1.254   5.107  15.121 -0.1272 -0.1189  0.5315
 4246TIP3    H134229   1.211   5.145  15.045 -0.9184  1.0832  1.5570
 4246TIP3    H234230   1.249   5.176  15.188  2.5330 -0.3184  0.9730
 4247TIP3   OH234231   3.314   4.079  16.195  0.0706 -0.2901  0.1761
 4247TIP3    H134232   3.253   4.010  16.221 -0.7392  0.5484  0.5653
 4247TIP3    H234233   3.275   4.116  16.116 -0.1271  0.4931  0.6316
 4248TIP3   OH234234   5.642   6.246   1.151 -0.2981 -0.2277 -0.1274
 4248TIP3    H134235   5.662   6.154   1.169  2.3604  0.1906 -0.7152
 4248TIP3    H234236   5.644   6.288   1.237 -0.0855 -0.4519 -0.0231
 4249TIP3   OH234237   1.289   0.893   5.259  0.4057  0.0525 -0.2214
 4249TIP3    H134238   1.226   0.831   5.295  0.7035  0.6452  1.3838
 4249TIP3    H234239   1.276   0.889   5.164 -2.3283  0.4311  0.0889
 4250TIP3   OH234240   2.261   4.788   1.261 -0.0846  0.4334 -0.1632
 4250TIP3    H134241   2.278   4.736   1.182 -0.7915  0.9348 -0.6581
 4250TIP3    H234242   2.233   4.873   1.227 -0.2407  0.7036  0.6393
 4251TIP3   OH234243   2.441   2.780  11.375  0.7844 -0.1965  0.0352
 4251TIP3    H134244   2.534   2.795  11.363  0.9203 -1.5882 -0.6997
 4251TIP3    H234245   2.435   2.698  11.424 -0.0740 -0.6567 -0.8162
 4252TIP3   OH234246   1.019   0.156   3.387  0.5965 -0.5208  0.0891
 4252TIP3    H134247   0.974   0.117   3.462 -1.3685 -1.0257 -1.3376
 4252TIP3    H234248   0.988   0.247   3.386  0.4785 -0.5671 -0.2441
 4253TIP3   OH234249   1.271   3.909  14.433  0.3814  0.1008 -0.8330
 4253TIP3    H134250   1.330   3.967  14.383  0.7709 -0.4641 -1.0360
 4253TIP3    H234251   1.228   3.967  14.496 -0.7922  1.0070 -2.4229
 4254TIP3   OH234252   6.257   1.225  13.870 -0.0948 -0.5313  0.0536
 4254TIP3    H134253   6.297   1.295  13.922  1.0797 -1.1043 -0.0620
 4254TIP3    H234254   6.305   1.226  13.788  2.8873 -4.2494  1.6048
 4255TIP3   OH234255   5.760   4.881   3.148 -0.7877  0.0127 -0.4585
 4255TIP3    H134256   5.706   4.959   3.134  0.2793  0.4068 -2.6180
 4255TIP3    H234257   5.705   4.808   3.119 -1.4024  0.0710  0.5610
 4256TIP3   OH234258   3.105   1.790   4.320  0.3306 -0.0272 -0.3597
 4256TIP3    H134259   3.151   1.763   4.399  1.8870 -0.6174 -1.4349
 4256TIP3    H234260   3.113   1.886   4.319 -2.1228  0.2388  1.6156
 4257TIP3   OH234261   1.588   1.685  14.597 -0.5627  1.0521 -0.0630
 4257TIP3    H134262   1.676   1.724  14.599  0.4790 -1.2656  0.4817
 4257TIP3    H234263   1.577   1.655  14.507  0.0129 -0.4243  0.3481
 4258TIP3   OH234264   4.042   0.756  13.291  0.1021  0.0550 -0.1775
 4258TIP3    H134265   4.004   0.676  13.329  0.1881  0.0523 -0.0987
 4258TIP3    H234266   3.998   0.765  13.207 -3.2144  2.3658  1.6791
 4259TIP3   OH234267   6.692   0.856  10.970 -0.3020  0.1715  0.2188
 4259TIP3    H134268   6.624   0.790  10.971 -0.3590  0.2311  0.3162
 4259TIP3    H234269   6.712   0.870  10.878  0.1108 -0.3943  0.2216
 4260TIP3   OH234270   1.174   6.201   1.775  0.7156 -0.0389 -0.3093
 4260TIP3    H134271   1.109   6.131   1.778  0.3488  0.2938 -0.5279
 4260TIP3    H234272   1.142   6.267   1.836  0.7898  0.1771 -0.5038
 4261TIP3   OH234273   1.275   2.317   3.824 -0.1369  0.1671 -0.1488
 4261TIP3    H134274   1.325   2.388   3.863 -0.4774  0.8446 -0.9353
 4261TIP3    H234275   1.277   2.334   3.730 -1.9783  0.3108 -0.1901
 4262TIP3   OH234276   1.297   3.134  11.524 -0.3214  0.2966 -0.4551
 4262TIP3    H134277   1.320   3.145  11.431  2.4264  0.5567  0.2091
 4262TIP3    H234278   1.312   3.220  11.563 -0.9363  0.0443  0.3435
 4263TIP3   OH234279   0.054   6.173  14.218 -0.0354 -0.5189  0.4804
 4263TIP3    H134280   0.006   6.093  14.196 -0.0718 -0.5297  0.5996
 4263TIP3    H234281   0.144   6.157  14.189  0.0339 -0.7325  0.8179
 4264TIP3   OH234282   3.706   5.136   2.310 -0.0806 -0.1368 -0.1384
 4264TIP3    H134283   3.656   5.115   2.389 -0.5995  1.7266  0.0507
 4264TIP3    H234284   3.700   5.057   2.256  0.4279 -1.5193  1.7336
 4265TIP3   OH234285   3.983   0.797  13.023  0.5750 -0.1791 -0.1700
 4265TIP3    H134286   4.037   0.774  12.948  1.4266  1.4738 -0.0799
 4265TIP3    H234287   3.894   0.807  12.988  0.8933  0.1630 -0.8735
 4266TIP3   OH234288   1.305   2.603   5.663 -0.0718  0.0407  0.0405
 4266TIP3    H134289   1.280   2.679   5.716  0.7834  0.4517 -0.1303
 4266TIP3    H234290   1.262   2.529   5.705 -1.6035  0.7274 -0.2716
 4267TIP3   OH234291   2.094   4.577   3.270  0.1999  0.1254 -0.4475
 4267TIP3    H134292   2.079   4.592   3.176 -0.2776 -1.1276 -0.5776
 4267TIP3    H234293   2.030   4.634   3.313 -0.5034 -0.3126 -0.9067
 4268TIP3   OH234294   5.439   3.576   3.617 -0.3238  0.6178 -0.6732
 4268TIP3    H134295   5.374   3.586   3.686 -1.4631 -2.8209 -1.1442
 4268TIP3    H234296   5.389   3.582   3.536  0.5314  1.6338 -1.1312
 4269TIP3   OH234297   3.567   0.157   3.775  0.3402 -0.3602 -0.1421
 4269TIP3    H134298   3.572   0.231   3.835  1.0050 -0.9410  0.5483
 4269TIP3    H234299   3.564   0.196   3.688 -2.1533  0.5429  0.3019
 4270TIP3   OH234300   3.391   2.240   1.682 -0.4694  0.4554 -0.1647
 4270TIP3    H134301   3.338   2.262   1.758  1.1620  1.7540  0.6157
 4270TIP3    H234302   3.360   2.298   1.612  1.5336  3.0097  0.9688
 4271TIP3   OH234303   4.117   1.692  15.991  0.1478 -0.8934  0.3941
 4271TIP3    H134304   4.052   1.742  15.942 -0.4009 -1.2562  0.7555
 4271TIP3    H234305   4.150   1.628  15.929 -1.1971 -1.9495  0.7549
 4272TIP3   OH234306   0.545   5.474  13.143  0.0385 -0.1747 -0.1981
 4272TIP3    H134307   0.488   5.526  13.085 -0.7311 -1.1464 -0.3248
 4272TIP3    H234308   0.487   5.406  13.179  0.3468  0.7742  2.2024
 4273TIP3   OH234309   2.421   5.784   1.560 -0.1446 -0.6375  0.4799
 4273TIP3    H134310   2.411   5.689   1.550  1.1434 -0.6819 -0.4937
 4273TIP3    H234311   2.395   5.802   1.650  0.2341 -2.0035  0.8656
 4274TIP3   OH234312   6.251   5.040  13.344  0.1969 -0.3345  0.1405
 4274TIP3    H134313   6.297   4.993  13.415 -0.1592  1.1882  1.3933
 4274TIP3    H234314   6.205   4.971  13.297 -0.6776 -1.2233  2.2232
 4275TIP3   OH234315   5.425   2.660  12.471 -0.0231 -0.2568  0.1294
 4275TIP3    H134316   5.369   2.651  12.548  2.5560 -2.1697  1.8869
 4275TIP3    H234317   5.381   2.608  12.403  1.0497 -4.4198  2.3934
 4276TIP3   OH234318   3.085   5.399  14.360 -0.1585  0.2826  1.1054
 4276TIP3    H134319   3.088   5.313  14.318 -0.2617 -0.4946  2.6304
 4276TIP3    H234320   3.111   5.461  14.292 -0.0212 -0.9634  0.0101
 4277TIP3   OH234321   2.028   1.013   2.799 -0.4164 -0.0479  0.0316
 4277TIP3    H134322   2.120   0.986   2.807  0.2702  2.0836 -0.4196
 4277TIP3    H234323   1.992   0.956   2.732  0.5117 -1.0658  0.3827
 4278TIP3   OH234324   3.162   6.334  14.101 -0.0438 -0.2629 -0.3465
 4278TIP3    H134325   3.140   6.271  14.032 -0.2083  1.4610 -1.9066
 4278TIP3    H234326   3.081   6.347  14.149  0.3070 -2.2293  0.8472
 4279TIP3   OH234327   3.625   0.140  16.997  0.1535 -0.3753  0.5167
 4279TIP3    H134328   3.612   0.233  16.983 -1.6984 -0.9628 -1.9992
 4279TIP3    H234329   3.718   0.131  17.017  1.0043  1.6930 -2.2647
 4280TIP3   OH234330   6.155   1.608   3.708 -0.0738  0.4037  0.1436
 4280TIP3    H134331   6.113   1.634   3.626 -0.9861  1.2111  0.8630
 4280TIP3    H234332   6.084   1.582   3.765  0.2965  2.5025  1.6285
 4281TIP3   OH234333   1.271   2.025   5.461 -0.0844 -0.3040 -0.3163
 4281TIP3    H134334   1.306   2.113   5.472  1.7097 -0.8899 -1.1193
 4281TIP3    H234335   1.188   2.038   5.414  0.8731  0.8587 -1.7298
 4282TIP3   OH234336   2.539   6.190   1.420 -0.0945  0.4667  0.3072
 4282TIP3    H134337   2.626   6.226   1.437  0.0556  0.6384 -0.8163
 4282TIP3    H234338   2.479   6.254   1.458  0.2907 -0.8271  3.2855
 4283TIP3   OH234339   3.577   2.587  11.773  0.3799  0.1136 -0.4655
 4283TIP3    H134340   3.485   2.562  11.776  0.9167 -1.7405  1.7477
 4283TIP3    H234341   3.616   2.530  11.706  0.1237  0.2155 -0.7000
 4284TIP3   OH234342   1.427   4.744   1.297  0.2056 -0.0960 -0.5198
 4284TIP3    H134343   1.417   4.654   1.329  0.9122  0.1924  0.5590
 4284TIP3    H234344   1.351   4.758   1.240 -1.1977 -0.5928  1.1682
 4285TIP3   OH234345   1.195   2.514  13.880  0.2371  0.0616  0.4033
 4285TIP3    H134346   1.278   2.559  13.896 -0.8047  2.1869 -0.0556
 4285TIP3    H234347   1.147   2.524  13.962 -0.1729  0.1640  0.1509
 4286TIP3   OH234348   3.474   5.595  13.604  0.6333  0.5654  0.0886
 4286TIP3    H134349   3.449   5.651  13.531  1.8824  0.4530 -0.4381
 4286TIP3    H234350   3.403   5.531  13.610 -0.3366  1.6473  0.1081
 4287TIP3   OH234351   1.795   2.076   4.138  0.2358 -0.9286 -0.2234
 4287TIP3    H134352   1.788   2.086   4.233 -0.0150 -0.8535 -0.2512
 4287TIP3    H234353   1.871   2.019   4.125  0.8756 -0.1280 -0.0154
 4288TIP3   OH234354   5.723   5.898  13.858 -0.8417 -0.2428  0.2172
 4288TIP3    H134355   5.649   5.940  13.815  0.7275  2.0327 -0.3689
 4288TIP3    H234356   5.796   5.907  13.796 -0.3262 -3.4761  0.2790
 4289TIP3   OH234357   4.905   0.417  13.603  0.0994  0.3490 -0.1161
 4289TIP3    H134358   4.837   0.444  13.541  0.7949  0.6622 -0.7518
 4289TIP3    H234359   4.976   0.385  13.547  0.7942  0.7865  0.5192
 4290TIP3   OH234360   4.765   6.098   3.734  0.7056 -0.2642 -0.0671
 4290TIP3    H134361   4.844   6.109   3.786  0.7809 -2.6028  0.3545
 4290TIP3    H234362   4.772   6.010   3.697 -1.1402 -0.0609 -0.9718
 4291TIP3   OH234363   1.561   6.248   2.460 -0.6847  0.1556  0.2442
 4291TIP3    H134364   1.481   6.218   2.417 -1.3278  2.2466 -0.0910
 4291TIP3    H234365   1.573   6.338   2.429  1.6390 -0.0229  0.5306
 4292TIP3   OH234366   1.903   0.712   1.068  0.9471  0.0682  0.3437
 4292TIP3    H134367   1.853   0.688   0.990  0.4503 -0.8044  0.9163
 4292TIP3    H234368   1.840   0.702   1.140  1.6477 -0.0019  0.9491
 4293TIP3   OH234369   2.234   4.729   1.868  0.6011 -0.0954  0.4809
 4293TIP3    H134370   2.171   4.676   1.819 -0.1711  1.4223 -0.1967
 4293TIP3    H234371   2.298   4.757   1.803  1.3058 -0.6262  0.9378
 4294TIP3   OH234372   4.682   3.663   3.939  0.8362 -0.2856  0.3842
 4294TIP3    H134373   4.737   3.697   3.868 -1.9720  2.6862 -0.4566
 4294TIP3    H234374   4.651   3.578   3.907  1.1503  0.1542 -1.1076
 4295TIP3   OH234375   2.095   6.265   3.173 -0.0990 -0.3409 -0.0972
 4295TIP3    H134376   2.000   6.268   3.163  0.0265 -1.3454 -1.7888
 4295TIP3    H234377   2.128   6.262   3.083  1.4652 -1.8460  0.5107
 4296TIP3   OH234378   1.637   6.331  12.421  0.4608 -0.0921 -0.3600
 4296TIP3    H134379   1.592   6.381  12.353  0.4058 -0.5278 -0.6508
 4296TIP3    H234380   1.720   6.376  12.434 -0.0345  0.6820  0.1350
 4297TIP3   OH234381   5.905   5.472   1.477  0.1319  0.1321 -0.0094
 4297TIP3    H134382   5.846   5.424   1.419 -0.8978 -0.9005  1.8666
 4297TIP3    H234383   5.983   5.416   1.483 -0.7877 -1.0022  1.6191
 4298TIP3   OH234384   3.785   2.049  14.718 -0.6336  0.1272 -0.7351
 4298TIP3    H134385   3.743   2.110  14.657  0.4480  1.0320 -0.5860
 4298TIP3    H234386   3.827   1.984  14.662 -1.6737 -0.4096 -0.8982
 4299TIP3   OH234387   0.642   1.980  12.848 -0.3038 -0.4553  0.4430
 4299TIP3    H134388   0.666   2.038  12.776 -0.4525 -1.1516 -0.1734
 4299TIP3    H234389   0.681   1.896  12.826  0.2673 -0.4954  1.5409
 4300TIP3   OH234390   4.621   5.314   3.268 -0.1988 -0.0436 -0.4250
 4300TIP3    H134391   4.691   5.334   3.330 -0.3785  0.9760 -0.5316
 4300TIP3    H234392   4.646   5.230   3.229 -0.8887 -1.4971  2.1562
 4301TIP3   OH234393   4.423   2.658  13.115  0.5868 -0.0357  0.8287
 4301TIP3    H134394   4.337   2.700  13.123 -0.2408 -1.6000  0.3801
 4301TIP3    H234395   4.457   2.691  13.032  0.4723  0.6666  1.0524
 4302TIP3   OH234396   6.097   0.348   0.745 -0.3952 -0.7477  0.2273
 4302TIP3    H134397   6.140   0.395   0.673 -3.4494 -0.2703 -1.3623
 4302TIP3    H234398   6.148   0.268   0.755 -0.3704 -1.2168 -3.0689
 4303TIP3   OH234399   1.571   1.392  15.954  0.6229 -0.2082  0.4285
 4303TIP3    H134400   1.522   1.423  16.030  1.5009 -1.3010  1.4671
 4303TIP3    H234401   1.647   1.347  15.991  2.0227  0.8104 -1.1379
 4304TIP3   OH234402   5.581   4.204  13.025 -0.4218  0.5044 -0.4880
 4304TIP3    H134403   5.675   4.188  13.032 -0.3180  0.7322 -1.3395
 4304TIP3    H234404   5.549   4.137  12.964 -1.0008 -0.2664  0.6376
 4305TIP3   OH234405   0.107   3.677  15.839  0.1451 -0.9485  0.5095
 4305TIP3    H134406   0.110   3.749  15.777  2.8110 -0.3773  1.2493
 4305TIP3    H234407   0.046   3.614  15.800  1.2796 -0.3318 -2.3565
 4306TIP3   OH234408   5.078   2.079   0.175 -0.0448 -0.4884  0.5913
 4306TIP3    H134409   5.020   2.129   0.118  0.1452 -1.0319 -0.0864
 4306TIP3    H234410   5.027   2.002   0.200  0.9648 -1.8166 -1.3680
 4307TIP3   OH234411   5.756   3.113  16.991 -0.5332  0.0849 -0.7619
 4307TIP3    H134412   5.811   3.114  17.069 -0.4297  0.1897 -0.8340
 4307TIP3    H234413   5.795   3.045  16.935  1.5266  2.3702 -2.2407
 4308TIP3   OH234414   0.570   6.682   2.406 -0.2533 -0.8806 -0.3532
 4308TIP3    H134415   0.601   6.599   2.443  0.6841 -0.3363  0.0969
 4308TIP3    H234416   0.638   6.745   2.428 -0.2445 -0.2958 -2.0029
 4309TIP3   OH234417   6.574   4.960  12.498  0.4337  0.3644  0.2174
 4309TIP3    H134418   6.576   4.989  12.589 -0.6753  0.5136  0.2039
 4309TIP3    H234419   6.580   4.865  12.503  0.2446  0.3654  0.4514
 4310TIP3   OH234420   1.620   3.125   5.002  0.3954 -0.0869  0.0757
 4310TIP3    H134421   1.711   3.127   5.032 -0.1764 -1.6196  2.0246
 4310TIP3    H234422   1.623   3.077   4.919  1.8758  3.3820 -1.9689
 4311TIP3   OH234423   5.319   6.004  16.507  0.4618 -0.1954 -0.9254
 4311TIP3    H134424   5.254   5.975  16.571  0.5264 -1.5590 -1.4653
 4311TIP3    H234425   5.286   6.088  16.475 -0.0241  0.0627  0.2387
 4312TIP3   OH234426   3.257   3.598  15.181 -0.1383 -0.0559 -0.1141
 4312TIP3    H134427   3.352   3.605  15.191  0.1287 -1.3180 -1.5814
 4312TIP3    H234428   3.237   3.639  15.097 -1.1205  1.6939  0.9471
 4313TIP3   OH234429   0.976   3.517  14.692  0.3870 -0.7141 -0.0883
 4313TIP3    H134430   0.965   3.611  14.675 -1.5481 -1.3129 -2.3086
 4313TIP3    H234431   1.062   3.496  14.654  1.9624  0.6306  2.6302
 4314TIP3   OH234432   5.050   2.707   3.427  0.1742  0.0458  0.3878
 4314TIP3    H134433   5.027   2.632   3.372 -4.0095 -1.4148  3.8005
 4314TIP3    H234434   5.131   2.682   3.471  1.4745 -0.3362 -2.1325
 4315TIP3   OH234435   5.466   0.816  13.315 -0.1810  0.6259  0.3301
 4315TIP3    H134436   5.476   0.908  13.290 -0.0952  0.6893  0.5987
 4315TIP3    H234437   5.532   0.802  13.382 -0.4040  0.4489  0.5115
 4316TIP3   OH234438   3.637   0.825  14.372  1.0778  0.3625  0.4670
 4316TIP3    H134439   3.727   0.855  14.359  2.1335 -2.1169  1.7673
 4316TIP3    H234440   3.645   0.731  14.383 -1.5843  0.2561  1.7011
 4317TIP3   OH234441   5.319   6.142   5.660  0.1722  0.1191  0.0614
 4317TIP3    H134442   5.257   6.085   5.614 -0.9650  0.5836  0.9669
 4317TIP3    H234443   5.357   6.086   5.728 -0.2730  0.1856  0.3705
 4318TIP3   OH234444   5.757   0.003   1.950  0.1179 -0.4297  0.7408
 4318TIP3    H134445   5.695   0.047   2.007  0.3288 -0.7211  1.2017
 4318TIP3    H234446   5.709  -0.012   1.868 -0.4985 -0.8876  1.1819
 4319TIP3   OH234447   1.194   0.253   2.478  0.1963  0.2830 -0.3727
 4319TIP3    H134448   1.154   0.266   2.564  0.3388 -1.7707  0.0291
 4319TIP3    H234449   1.158   0.323   2.423 -2.1525 -0.1561  0.5785
 4320TIP3   OH234450   2.930   0.548   5.283 -0.7062 -0.1745  0.1642
 4320TIP3    H134451   2.958   0.458   5.292  0.1876 -0.0575 -1.2164
 4320TIP3    H234452   2.889   0.552   5.196 -0.1378  0.8953 -0.0653
 4321TIP3   OH234453   0.898   6.252   4.385 -0.0121 -0.0470 -0.4057
 4321TIP3    H134454   0.817   6.221   4.346  1.0013 -2.8258 -0.4434
 4321TIP3    H234455   0.966   6.200   4.343  1.3278 -1.5111  3.3451
 4322TIP3   OH234456   2.728   5.635   3.936 -0.1019 -0.0753 -0.1035
 4322TIP3    H134457   2.778   5.707   3.973 -0.3958  0.7953 -1.3545
 4322TIP3    H234458   2.775   5.611   3.856 -1.9533  1.1560 -1.6209
 4323TIP3   OH234459   4.169   6.378  15.010 -0.1770  0.5136  0.3901
 4323TIP3    H134460   4.083   6.415  15.028 -0.9952 -2.0873  2.1408
 4323TIP3    H234461   4.216   6.385  15.093  0.4370 -0.2702  0.1144
 4324TIP3   OH234462   1.640   6.593  17.168 -0.1981  0.5746  0.0487
 4324TIP3    H134463   1.602   6.508  17.190 -1.6015  1.3195  0.6005
 4324TIP3    H234464   1.640   6.596  17.073  1.7615 -0.8566 -0.0286
 4325TIP3   OH234465   1.489   6.400   4.064 -0.2426  0.0995 -0.0599
 4325TIP3    H134466   1.499   6.364   4.153  1.5027  0.8698  0.0799
 4325TIP3    H234467   1.479   6.323   4.008  0.2730 -0.4740  0.6236
 4326TIP3   OH234468   4.016   2.465   2.508 -0.1532 -0.7631 -0.3635
 4326TIP3    H134469   4.068   2.528   2.558 -0.4710 -1.5221  0.9597
 4326TIP3    H234470   3.941   2.516   2.476  0.2963 -0.1606 -0.4569
 4327TIP3   OH234471   1.251   5.154  13.504  0.0383 -0.1616  0.1376
 4327TIP3    H134472   1.161   5.127  13.521 -0.3290 -0.5517 -2.2392
 4327TIP3    H234473   1.266   5.228  13.562 -1.0679 -1.4518  2.1313
 4328TIP3   OH234474   3.738   5.558   5.689 -0.0557 -0.1826 -0.0911
 4328TIP3    H134475   3.819   5.510   5.709 -0.5111 -1.4822 -1.3014
 4328TIP3    H234476   3.668   5.502   5.723 -0.5433  0.1184 -0.5981
 4329TIP3   OH234477   3.861   5.056   3.061  0.1551  0.2583 -0.2586
 4329TIP3    H134478   3.784   4.999   3.054  0.7429 -0.4848 -0.6786
 4329TIP3    H234479   3.878   5.062   3.155 -0.9096  1.0942 -0.1072
 4330TIP3   OH234480   3.355   5.619  11.034 -0.2226 -0.1602 -0.8935
 4330TIP3    H134481   3.377   5.628  11.126  1.3462 -1.1576 -1.1594
 4330TIP3    H234482   3.387   5.699  10.993  1.2444 -0.7849 -0.9706
 4331TIP3   OH234483   6.788   0.597  10.599  0.8361 -0.0270 -0.0885
 4331TIP3    H134484   6.699   0.622  10.577  0.9394 -0.5587 -1.1437
 4331TIP3    H234485   6.788   0.501  10.596  1.0383 -0.0903  1.5381
 4332TIP3   OH234486   5.907   2.441   0.165 -0.4062 -0.3333 -0.5167
 4332TIP3    H134487   5.983   2.494   0.189 -1.3819  0.7510  0.2268
 4332TIP3    H234488   5.853   2.439   0.244 -1.8703  0.1726 -1.4869
 4333TIP3   OH234489   1.390   1.935  11.230 -0.1215  0.0636  0.1404
 4333TIP3    H134490   1.428   1.865  11.177  2.3056 -0.8023  2.8570
 4333TIP3    H234491   1.299   1.942  11.200  0.7642 -1.3312 -3.0663
 4334TIP3   OH234492   3.837   6.027   0.267  0.2348 -0.1893 -0.2858
 4334TIP3    H134493   3.910   5.965   0.262 -0.9252 -1.4455 -2.2740
 4334TIP3    H234494   3.826   6.043   0.361 -0.0766 -3.7851  0.3507
 4335TIP3   OH234495   5.974   4.414   5.559  0.2204  0.7542 -0.3875
 4335TIP3    H134496   6.031   4.337   5.551 -1.2177 -0.8651  3.6386
 4335TIP3    H234497   5.891   4.387   5.522  0.6233  1.4856 -1.8590
 4336TIP3   OH234498   5.113   5.079  11.923 -0.3633  0.5100 -0.4590
 4336TIP3    H134499   5.091   5.150  11.863 -0.9140 -0.3203 -1.2535
 4336TIP3    H234500   5.181   5.029  11.878  1.8135  1.9268  1.1487
 4337TIP3   OH234501   0.630   3.984  12.549  0.0530  0.1617 -0.3898
 4337TIP3    H134502   0.684   4.042  12.602 -0.8484 -0.5039  1.3212
 4337TIP3    H234503   0.555   4.038  12.523 -0.0246  0.1930 -0.1009
 4338TIP3   OH234504   6.717   4.695  15.516 -0.2633  0.2388 -0.0687
 4338TIP3    H134505   6.786   4.629  15.525 -2.6532 -2.7463 -2.3803
 4338TIP3    H234506   6.665   4.686  15.596 -0.4429 -0.5485 -0.2703
 4339TIP3   OH234507   1.176   1.924   4.499  0.5311  0.4515  0.1372
 4339TIP3    H134508   1.224   1.985   4.443  3.4835 -0.9627  1.0367
 4339TIP3    H234509   1.105   1.892   4.443  0.0507  3.2309 -0.9524
 4340TIP3   OH234510   6.320   2.043   4.108  0.1191 -0.1251 -0.1575
 4340TIP3    H134511   6.297   2.032   4.200 -0.8390 -0.2037 -0.3997
 4340TIP3    H234512   6.254   1.993   4.061  0.7661 -0.3084 -0.8768
 4341TIP3   OH234513   6.292   4.882   4.827 -0.1779  0.1906  0.5518
 4341TIP3    H134514   6.210   4.893   4.876 -0.4314 -2.0165  0.6873
 4341TIP3    H234515   6.264   4.861   4.738  0.2668  1.2192  0.1620
 4342TIP3   OH234516   2.464   6.390  12.242 -0.0288  0.1408 -0.1174
 4342TIP3    H134517   2.468   6.388  12.147  1.0093 -1.7869 -0.0568
 4342TIP3    H234518   2.545   6.434  12.269  0.2270 -0.3387 -0.0986
 4343TIP3   OH234519   0.925   1.276  14.059 -0.1811 -0.1189  0.1499
 4343TIP3    H134520   0.934   1.309  13.970  0.3487  0.7185  0.5046
 4343TIP3    H234521   1.002   1.310  14.105 -0.9188  0.2310  1.1590
 4344TIP3   OH234522   5.046   0.901   5.265 -0.2609 -0.3122 -0.1380
 4344TIP3    H134523   5.031   0.990   5.297 -0.6104  0.4120 -2.2407
 4344TIP3    H234524   5.108   0.863   5.328  1.4132  2.0674 -0.2768
 4345TIP3   OH234525   1.983   4.639  14.797 -0.0754  0.2483  0.9317
 4345TIP3    H134526   1.979   4.732  14.823 -0.9323  0.4325  0.1634
 4345TIP3    H234527   1.996   4.641  14.702 -1.7515 -0.4127  0.6730
 4346TIP3   OH234528   4.879   5.914   1.694  0.2038 -0.5942 -0.7052
 4346TIP3    H134529   4.816   5.842   1.692 -0.2584 -0.2806  1.5076
 4346TIP3    H234530   4.830   5.989   1.727  1.7921 -0.4279  1.3887
 4347TIP3   OH234531   3.583   3.619   3.119  0.1017 -0.1767  0.5422
 4347TIP3    H134532   3.528   3.573   3.055  0.2744  0.4336 -0.0574
 4347TIP3    H234533   3.524   3.638   3.192 -0.8170  1.4661 -0.5639
 4348TIP3   OH234534   2.112   2.141   4.621  0.0445  0.0003 -0.0541
 4348TIP3    H134535   2.160   2.146   4.704 -1.2950  0.5011  0.7002
 4348TIP3    H234536   2.062   2.222   4.616  2.8309  1.6533 -3.0930
 4349TIP3   OH234537   2.865   5.647   3.667 -0.1877 -0.3552  0.3052
 4349TIP3    H134538   2.791   5.588   3.652 -1.4072  0.8760  1.3779
 4349TIP3    H234539   2.906   5.654   3.581 -0.8887 -1.6169 -0.1556
 4350TIP3   OH234540   1.287   4.986   4.000  0.4785 -0.2475  0.3454
 4350TIP3    H134541   1.242   5.008   4.081  1.5561  0.6632  0.7105
 4350TIP3    H234542   1.315   5.070   3.964  1.5054 -0.7691 -0.0940
 4351TIP3   OH234543   3.720   5.177   1.070 -0.3475 -0.6769  0.0990
 4351TIP3    H134544   3.735   5.158   0.977 -2.1802 -0.3110 -0.2930
 4351TIP3    H234545   3.626   5.166   1.081 -0.4238  1.2522  1.4628
 4352TIP3   OH234546   0.559   2.512  12.409  0.0918  0.1818  0.4673
 4352TIP3    H134547   0.494   2.519  12.339  1.7894  1.3019 -1.0307
 4352TIP3    H234548   0.566   2.418  12.426 -0.2492 -0.1061 -0.9491
 4353TIP3   OH234549   3.887   3.405  15.763 -0.1148  0.1365  0.1334
 4353TIP3    H134550   3.879   3.410  15.859  0.1725 -0.6338  0.1992
 4353TIP3    H234551   3.868   3.314  15.742  1.9040 -0.1883 -0.3360
 4354TIP3   OH234552   1.254   3.099   2.418 -0.5115  0.0648  0.1252
 4354TIP3    H134553   1.309   3.091   2.340  0.3716  0.8403  0.6573
 4354TIP3    H234554   1.281   3.181   2.458 -0.1730 -0.8741  1.8528
 4355TIP3   OH234555   4.378   3.720   2.581 -0.1057  0.3311 -0.7359
 4355TIP3    H134556   4.325   3.720   2.661 -1.1527 -2.8387 -1.3573
 4355TIP3    H234557   4.458   3.765   2.606 -0.3479 -0.7049  2.1653
 4356TIP3   OH234558   4.058   3.503   0.160  0.1632  0.1976 -0.1126
 4356TIP3    H134559   4.061   3.474   0.251 -0.0776  0.8252  0.0950
 4356TIP3    H234560   4.149   3.498   0.131  0.1508 -0.5925 -0.0262
 4357TIP3   OH234561   2.055   5.626   6.103  0.4374  0.2819 -0.1366
 4357TIP3    H134562   2.018   5.554   6.050  0.2118  0.8213 -0.7175
 4357TIP3    H234563   2.106   5.582   6.171 -1.0295 -0.4707  0.4906
 4358TIP3   OH234564   3.734   2.212  15.860  0.0129 -0.7605 -0.0481
 4358TIP3    H134565   3.647   2.188  15.891 -0.0878  0.2233  0.4488
 4358TIP3    H234566   3.723   2.299  15.821  0.8699 -0.3846  0.5149
 4359TIP3   OH234567   5.348   1.981  14.982  0.4259  0.3374 -0.0283
 4359TIP3    H134568   5.330   2.005  15.073  1.3344  0.8769  0.0150
 4359TIP3    H234569   5.262   1.963  14.944  0.0196  0.3982  0.8574
 4360TIP3   OH234570   1.179   5.040   0.131 -0.1256  0.0872  0.5382
 4360TIP3    H134571   1.224   4.957   0.112 -0.2491  0.3608 -0.9825
 4360TIP3    H234572   1.152   5.031   0.223 -1.6944 -2.3038 -0.1131
 4361TIP3   OH234573   4.187   2.490   0.748 -0.1056 -0.1960 -0.1240
 4361TIP3    H134574   4.279   2.493   0.722 -0.2162 -0.1414 -0.5060
 4361TIP3    H234575   4.138   2.500   0.666 -0.4505 -0.0202  0.1012
 4362TIP3   OH234576   4.203   4.482   1.247 -0.1708  0.6356 -0.0147
 4362TIP3    H134577   4.134   4.517   1.191 -0.6209  1.8282  1.2451
 4362TIP3    H234578   4.283   4.524   1.217 -0.2787  0.6174 -0.3272
 4363TIP3   OH234579   2.496   6.486  13.943  0.6120  0.2967  0.1742
 4363TIP3    H134580   2.431   6.494  13.873  0.5722  0.5954  0.2426
 4363TIP3    H234581   2.580   6.500  13.900  0.7174 -1.1012 -0.1005
 4364TIP3   OH234582   6.583   2.591  15.164  0.3480 -0.0686  0.1217
 4364TIP3    H134583   6.627   2.676  15.168  1.5182 -0.7372  2.0464
 4364TIP3    H234584   6.490   2.613  15.156  0.6565  1.3872  0.3646
 4365TIP3   OH234585   2.828   4.700  15.773 -0.2211  0.8534 -0.0700
 4365TIP3    H134586   2.758   4.635  15.784  0.3626  0.2591  0.1188
 4365TIP3    H234587   2.794   4.778  15.817 -1.0747  0.7934 -0.6161
 4366TIP3   OH234588   5.931   1.565   3.518 -0.1203 -0.6193 -0.2638
 4366TIP3    H134589   5.951   1.618   3.441  0.2772 -2.2160 -1.2802
 4366TIP3    H234590   5.975   1.481   3.502  1.6062 -0.3313  2.5655
 4367TIP3   OH234591   5.811   4.351   4.630  0.4274  0.0007 -0.0175
 4367TIP3    H134592   5.798   4.262   4.596 -1.3556  0.2246  0.0320
 4367TIP3    H234593   5.827   4.338   4.724  0.9983 -0.3156 -0.1541
 4368TIP3   OH234594   4.880   3.238   5.452 -0.3573 -0.0785 -0.1224
 4368TIP3    H134595   4.942   3.165   5.451 -0.7085 -0.4102  1.0378
 4368TIP3    H234596   4.794   3.198   5.440 -0.5763  0.0979  0.7647
 4369TIP3   OH234597   5.447   3.875  16.025  0.4213  0.2777 -0.6636
 4369TIP3    H134598   5.514   3.905  15.964  1.6439  0.4892  0.7670
 4369TIP3    H234599   5.495   3.829  16.094 -0.9438  0.0203  0.1452
 4370TIP3   OH234600   2.450   3.271   1.926  0.0763  0.0233  0.7691
 4370TIP3    H134601   2.359   3.248   1.911  0.2307 -0.2467  0.2106
 4370TIP3    H234602   2.473   3.227   2.008  0.3248 -1.6941 -0.2093
 4371TIP3   OH234603   5.682   1.329   5.060  0.2083 -0.2023  0.2510
 4371TIP3    H134604   5.679   1.407   5.006  0.7936 -0.4761 -0.1840
 4371TIP3    H234605   5.776   1.312   5.072  0.0850 -0.6100  0.6715
 4372TIP3   OH234606   2.283   5.077   6.473  0.1423  0.0789  0.4625
 4372TIP3    H134607   2.333   5.154   6.500 -2.0003  1.6782 -0.0134
 4372TIP3    H234608   2.192   5.108   6.468 -0.8727 -2.6695  1.0407
 4373TIP3   OH234609   1.190   2.664   1.958 -0.1778 -0.2791 -0.3970
 4373TIP3    H134610   1.241   2.737   1.923 -2.2544  0.5886 -1.6621
 4373TIP3    H234611   1.214   2.661   2.051  0.8691  1.2183 -0.6023
 4374TIP3   OH234612   1.429   2.693  13.840  0.4937  0.2047 -0.4455
 4374TIP3    H134613   1.380   2.692  13.758  1.9480  1.5235 -1.3627
 4374TIP3    H234614   1.520   2.679  13.813  0.7475 -1.2193  1.1226
 4375TIP3   OH234615   3.907   0.520  15.760  0.0989  0.5212  0.2555
 4375TIP3    H134616   3.899   0.505  15.666 -0.7199 -0.6433  0.4979
 4375TIP3    H234617   3.838   0.583  15.780 -1.6532 -1.4554  0.5564
 4376TIP3   OH234618   0.163   0.218   0.304 -0.3215 -0.3305  1.0974
 4376TIP3    H134619   0.255   0.237   0.286 -0.5699  0.8835  1.0315
 4376TIP3    H234620   0.156   0.123   0.300  0.9637 -0.4359  1.2553
 4377TIP3   OH234621   6.543   5.988  17.250  0.5082 -0.0731 -0.5409
 4377TIP3    H134622   6.570   5.900  17.226  1.2611 -0.2878  1.0004
 4377TIP3    H234623   6.474   5.974  17.316  0.9052  0.4783 -0.0050
 4378TIP3   OH234624   0.848   5.742   1.386 -0.3409 -0.8471 -0.0880
 4378TIP3    H134625   0.861   5.793   1.305 -3.4963  1.6966  0.8906
 4378TIP3    H234626   0.905   5.784   1.450 -0.4727 -0.6152 -0.1199
 4379TIP3   OH234627   3.341   3.139   0.495 -0.2873  0.0651  0.2921
 4379TIP3    H134628   3.316   3.146   0.587  1.7098 -2.2233  1.0426
 4379TIP3    H234629   3.437   3.135   0.496 -0.2611 -0.4708 -1.8407
 4380TIP3   OH234630   5.941   1.906   0.984  0.7478  0.2664 -0.2522
 4380TIP3    H134631   5.971   1.819   0.958  1.2636  0.6664 -1.0285
 4380TIP3    H234632   5.874   1.889   1.050 -0.9323 -0.8271 -2.1414
 4381TIP3   OH234633   2.966   0.402   2.652 -0.4819 -0.7592 -0.1440
 4381TIP3    H134634   2.941   0.494   2.661 -0.4672 -0.6846 -0.8167
 4381TIP3    H234635   2.889   0.353   2.681 -0.7935 -0.5315 -0.5929
 4382TIP3   OH234636   3.558   5.722  11.656  0.3666 -0.0044  0.4938
 4382TIP3    H134637   3.524   5.808  11.631  1.8760  0.5466  0.2384
 4382TIP3    H234638   3.552   5.720  11.751 -2.9334 -1.0427  0.3102
 4383TIP3   OH234639   4.377   0.345   0.693  0.2007  0.3283 -0.3410
 4383TIP3    H134640   4.446   0.314   0.635 -0.7602 -0.4466 -1.1044
 4383TIP3    H234641   4.392   0.298   0.776  0.7630  0.3854 -0.4147
 4384TIP3   OH234642   4.515   6.251  13.498 -0.2340 -0.0196 -0.2809
 4384TIP3    H134643   4.458   6.326  13.483 -0.6761 -0.5198 -1.1403
 4384TIP3    H234644   4.573   6.279  13.569 -1.3283  0.6146  0.3857
 4385TIP3   OH234645   3.596   6.535   3.831  0.2643  0.1296  0.4210
 4385TIP3    H134646   3.689   6.521   3.843  0.1833 -1.0146 -0.1554
 4385TIP3    H234647   3.565   6.454   3.791 -0.7892  0.8821 -0.3273
 4386TIP3   OH234648   0.683   1.511  11.241  0.0113  0.3166 -0.5490
 4386TIP3    H134649   0.621   1.564  11.292 -0.0942  0.9462 -1.3182
 4386TIP3    H234650   0.642   1.424  11.237  0.1773  0.1750  0.7115
 4387TIP3   OH234651   2.320   1.459   4.121 -0.3049 -0.1452  0.1576
 4387TIP3    H134652   2.274   1.430   4.042 -0.6757  0.5723  0.1133
 4387TIP3    H234653   2.253   1.461   4.189  0.0595 -0.9791  0.5555
 4388TIP3   OH234654   6.613   5.728  14.045 -0.0437 -0.4911 -0.4128
 4388TIP3    H134655   6.698   5.684  14.037  1.1486  1.6891 -0.1311
 4388TIP3    H234656   6.620   5.805  13.989 -0.7391  1.3173  1.8859
 4389TIP3   OH234657   0.208   0.325   5.350 -0.3869  0.1674 -0.2934
 4389TIP3    H134658   0.145   0.273   5.299 -0.0310  1.7479 -2.4196
 4389TIP3    H234659   0.186   0.416   5.330 -0.3334  0.8396  2.5570
 4390TIP3   OH234660   2.960   3.638  11.322 -0.0489 -0.4159 -0.6138
 4390TIP3    H134661   3.018   3.636  11.246  0.3880 -0.8756 -0.2680
 4390TIP3    H234662   2.984   3.561  11.373 -0.3358 -0.1023  0.0028
 4391TIP3   OH234663   0.102   5.478  15.238 -0.3639 -0.1691 -0.5541
 4391TIP3    H134664   0.080   5.534  15.312 -0.0831  0.9999 -1.3416
 4391TIP3    H234665   0.023   5.427  15.222 -0.6637  0.0914  0.1043
 4392TIP3   OH234666   5.883   2.963  12.417 -0.2550 -0.0750  0.3527
 4392TIP3    H134667   5.869   3.052  12.449  2.2323  1.1955 -1.8978
 4392TIP3    H234668   5.867   2.968  12.323  1.6404 -1.5932 -0.0888
 4393TIP3   OH234669   6.188   3.768  13.880  0.1179  0.1247  0.3055
 4393TIP3    H134670   6.199   3.761  13.785  1.1535  0.0808  0.4202
 4393TIP3    H234671   6.155   3.857  13.894 -1.9269 -0.5173 -0.2427
 4394TIP3   OH234672   5.015   3.925   6.006  0.0975  0.5843 -0.2607
 4394TIP3    H134673   4.941   3.985   6.014 -0.3254 -0.0015  0.2859
 4394TIP3    H234674   5.045   3.935   5.916  0.2748  1.8949 -0.0583
 4395TIP3   OH234675   4.432   3.932   6.008 -0.2781  0.2655 -0.6102
 4395TIP3    H134676   4.375   3.996   6.050 -1.5983 -1.5011  0.3706
 4395TIP3    H234677   4.452   3.970   5.923 -2.3237  1.2626 -0.6860
 4396TIP3   OH234678   5.926   2.798  13.366 -0.4366  0.1066 -0.0315
 4396TIP3    H134679   5.834   2.786  13.392 -1.1910  1.7811 -1.8638
 4396TIP3    H234680   5.945   2.722  13.312 -0.2599 -1.0237  1.5758
 4397TIP3   OH234681   1.008   6.301   1.009  0.4744 -0.1221 -0.3719
 4397TIP3    H134682   1.014   6.387   0.967  1.1701 -0.4853 -1.0378
 4397TIP3    H234683   1.061   6.244   0.953  0.7865 -0.7794  0.5822
 4398TIP3   OH234684   4.638   1.758   4.599  0.0363 -0.3885  0.2305
 4398TIP3    H134685   4.640   1.749   4.504 -0.4109  0.4115  0.1431
 4398TIP3    H234686   4.672   1.674   4.632 -1.9866 -1.5713 -0.5785
 4399TIP3   OH234687   6.613   3.659   1.343  0.3900 -0.0754 -0.1379
 4399TIP3    H134688   6.558   3.704   1.278  1.9650 -1.6788 -2.6853
 4399TIP3    H234689   6.644   3.580   1.298  1.8309 -1.0703  2.4741
 4400TIP3   OH234690   5.844   2.537   5.153 -0.8827 -0.5899  0.2359
 4400TIP3    H134691   5.823   2.540   5.060 -2.0573 -0.6853  0.4880
 4400TIP3    H234692   5.881   2.450   5.166  1.8612  0.4118 -0.6556
 4401TIP3   OH234693   2.095   0.930  13.604  0.4022 -0.1545 -0.0966
 4401TIP3    H134694   2.104   0.894  13.516  0.7373  1.1048 -0.5886
 4401TIP3    H234695   2.117   1.023  13.594 -2.8834  0.7745  0.6638
 4402TIP3   OH234696   2.880   3.261  16.907 -0.7815 -0.2595  0.0759
 4402TIP3    H134697   2.811   3.217  16.858 -0.3136 -1.8243  0.8102
 4402TIP3    H234698   2.912   3.195  16.968  0.8135  0.6994  0.2931
 4403TIP3   OH234699   5.584   1.681   5.710  0.1583  0.3294 -0.7272
 4403TIP3    H134700   5.577   1.684   5.614 -0.2621 -0.8221 -0.7306
 4403TIP3    H234701   5.498   1.708   5.741  0.4440  1.1849 -0.6633
 4404TIP3   OH234702   3.277   1.629   1.303 -0.5634 -0.5420 -0.1727
 4404TIP3    H134703   3.350   1.579   1.339 -0.6568 -1.1722 -0.8581
 4404TIP3    H234704   3.199   1.584   1.335 -0.6472 -1.1686 -1.2588
 4405TIP3   OH234705   2.947   6.731   3.550 -0.6114 -0.7221  0.5385
 4405TIP3    H134706   2.913   6.649   3.513  0.6629 -1.9990  2.0839
 4405TIP3    H234707   2.992   6.704   3.630  0.3113  1.4363  0.7858
 4406TIP3   OH234708   3.663   4.802  12.904 -0.2553 -0.0166 -0.8548
 4406TIP3    H134709   3.734   4.740  12.920 -1.0776 -0.6309  0.5376
 4406TIP3    H234710   3.655   4.851  12.986 -2.1094 -0.6678 -0.6186
 4407TIP3   OH234711   2.502   4.076  13.343 -0.0652  0.3678 -0.0003
 4407TIP3    H134712   2.531   4.165  13.323  0.9421  0.1030  0.2491
 4407TIP3    H234713   2.414   4.087  13.379  0.8557  1.4671  2.0175
 4408TIP3   OH234714   5.623   3.087   5.737  0.2382  0.1085  0.6802
 4408TIP3    H134715   5.564   3.093   5.812  0.1086 -1.4899  0.7313
 4408TIP3    H234716   5.571   3.045   5.669  0.8985 -0.0535  0.2671
 4409TIP3   OH234717   6.412   2.304   1.312  0.4362  0.0914  0.6157
 4409TIP3    H134718   6.376   2.371   1.253  0.6842 -0.9757 -0.7758
 4409TIP3    H234719   6.458   2.354   1.380 -0.3152  1.3553  0.2032
 4410TIP3   OH234720   2.962   1.889  11.181  0.2822 -0.1965 -0.1490
 4410TIP3    H134721   2.967   1.956  11.249  0.9469 -0.3342 -0.0559
 4410TIP3    H234722   2.937   1.937  11.102  1.5206  0.2970 -0.2590
 4411TIP3   OH234723   1.799   0.645  16.317 -0.0531 -0.3808  0.8524
 4411TIP3    H134724   1.890   0.616  16.305 -0.1012 -1.1814  2.3242
 4411TIP3    H234725   1.782   0.632  16.410 -1.3170  0.8486  0.8064
 4412TIP3   OH234726   6.184   2.885  17.286  0.3978  0.2981  0.3489
 4412TIP3    H134727   6.156   2.808  17.337 -1.6770  1.1671  0.5603
 4412TIP3    H234728   6.190   2.955  17.350 -3.5590  1.7374 -0.7100
 4413TIP3   OH234729   4.518   1.148  17.198 -0.0119 -0.1425 -0.3966
 4413TIP3    H134730   4.534   1.233  17.239 -1.0445  0.5149 -1.3098
 4413TIP3    H234731   4.596   1.096  17.219 -1.8824 -0.9750  5.1534
 4414TIP3   OH234732   1.718   5.863  12.867  0.2594 -0.4826 -0.0118
 4414TIP3    H134733   1.735   5.890  12.957  1.4903  2.1078 -0.9689
 4414TIP3    H234734   1.798   5.885  12.820 -0.8405 -0.5950 -1.9938
 4415TIP3   OH234735   4.938   2.086  11.693 -0.0294  0.2393  0.0941
 4415TIP3    H134736   4.974   2.043  11.615  2.1717  1.3485  0.4651
 4415TIP3    H234737   4.979   2.173  11.693 -2.5643  1.4837  0.6653
 4416TIP3   OH234738   6.609   1.894   4.467  0.0782  0.2705 -0.0857
 4416TIP3    H134739   6.626   1.954   4.394 -0.5256  0.0671 -0.4018
 4416TIP3    H234740   6.515   1.902   4.483  0.6698  2.5875  2.6945
 4417TIP3   OH234741   3.166   5.535   3.521 -0.2340  0.0997  0.4305
 4417TIP3    H134742   3.085   5.495   3.487 -1.4436  2.2305  0.7260
 4417TIP3    H234743   3.144   5.627   3.533  2.0959  0.6037  1.0628
 4418TIP3   OH234744   2.110   0.930   6.538 -0.3918  0.2064 -0.3197
 4418TIP3    H134745   2.103   0.834   6.532 -2.0519  0.2204  1.0395
 4418TIP3    H234746   2.135   0.946   6.629 -2.0244  1.1372 -0.0141
 4419TIP3   OH234747   2.255   4.123  13.421 -0.2832  0.3624 -0.1600
 4419TIP3    H134748   2.177   4.166  13.385 -1.2049  0.2459  1.6306
 4419TIP3    H234749   2.285   4.182  13.490  0.9303  0.1621 -0.5111
 4420TIP3   OH234750   3.709   0.247   2.870  0.6422 -0.5991  0.7340
 4420TIP3    H134751   3.655   0.311   2.823  1.7796 -0.0013  0.2317
 4420TIP3    H234752   3.714   0.172   2.810  2.0767  0.1559 -0.1025
 4421TIP3   OH234753   4.114   5.607  16.327 -0.1916  0.6277 -0.2261
 4421TIP3    H134754   4.030   5.648  16.309 -0.3578 -0.1514 -1.3082
 4421TIP3    H234755   4.107   5.519  16.288  0.6184  0.0481  0.8854
 4422TIP3   OH234756   5.291   3.755  12.114  0.2366 -0.1200  0.0891
 4422TIP3    H134757   5.199   3.781  12.122  0.4927  1.5199 -1.9095
 4422TIP3    H234758   5.288   3.676  12.059  0.0775  0.5047 -0.8152
 4423TIP3   OH234759   4.228   1.070   1.457  0.4347  0.2131  0.2755
 4423TIP3    H134760   4.266   0.998   1.507  2.1082  0.1270 -1.0890
 4423TIP3    H234761   4.138   1.041   1.438  0.4114 -0.5753  1.5579
 4424TIP3   OH234762   5.795   3.927  11.378 -0.1466  0.6746 -0.2182
 4424TIP3    H134763   5.883   3.964  11.376  0.9398 -1.6745  1.5111
 4424TIP3    H234764   5.777   3.902  11.288  0.7882  1.5763 -0.6549
 4425TIP3   OH234765   1.241   5.659   4.569 -0.1876 -0.5245 -0.8986
 4425TIP3    H134766   1.239   5.613   4.485 -0.9916 -1.1660 -0.5291
 4425TIP3    H234767   1.171   5.724   4.563  0.8914  0.6037 -1.3881
 4426TIP3   OH234768   5.005   3.641   2.662  0.0004  0.2835  0.1663
 4426TIP3    H134769   5.009   3.737   2.664  0.8339  0.3308 -2.5379
 4426TIP3    H234770   4.924   3.621   2.615  0.9104 -0.3147 -1.1691
 4427TIP3   OH234771   2.507   2.624  16.722 -0.3104  0.1273  0.1431
 4427TIP3    H134772   2.466   2.587  16.644  0.3485 -0.9822  0.3029
 4427TIP3    H234773   2.580   2.676  16.689 -1.7546  2.0007 -0.1332
 4428TIP3   OH234774   6.465   4.502  10.917  0.8115 -0.1712  0.5843
 4428TIP3    H134775   6.424   4.512  10.831  1.0466  0.3473  0.5283
 4428TIP3    H234776   6.401   4.541  10.978 -0.3947 -2.5924  0.9305
 4429TIP3   OH234777   0.355   2.175   0.926  0.4300  0.3607 -0.3315
 4429TIP3    H134778   0.401   2.114   0.867  0.2812  0.9442 -1.0638
 4429TIP3    H234779   0.425   2.212   0.980  0.5015 -0.5803  0.2443
 4430TIP3   OH234780   5.876   3.604  14.324 -0.3060  0.1779  0.1033
 4430TIP3    H134781   5.782   3.620  14.319 -0.1731  1.3076  1.0058
 4430TIP3    H234782   5.910   3.676  14.378  1.1471  0.0838 -0.6584
 4431TIP3   OH234783   2.499   0.519  15.359 -0.8622 -0.0532  0.3772
 4431TIP3    H134784   2.532   0.581  15.293  0.6657  0.3025  1.4562
 4431TIP3    H234785   2.573   0.505  15.417 -2.2528 -0.2515  2.1291
 4432TIP3   OH234786   6.394   0.407  14.946 -0.0688  0.5089 -0.6932
 4432TIP3    H134787   6.487   0.424  14.962  0.5377 -1.2560 -2.2847
 4432TIP3    H234788   6.391   0.365  14.861 -2.2159 -0.7289 -0.0426
 4433TIP3   OH234789   2.672   1.522  16.862  0.2108  0.1577  0.1422
 4433TIP3    H134790   2.637   1.446  16.815  0.7018  0.6824 -1.1124
 4433TIP3    H234791   2.597   1.580  16.872  0.2692  0.3990 -0.7415
 4434TIP3   OH234792   5.351   4.494   1.516  0.5720 -0.2142  0.3877
 4434TIP3    H134793   5.423   4.478   1.455  1.3189  1.2007  0.8652
 4434TIP3    H234794   5.372   4.579   1.555 -1.1223 -0.0136  0.8787
 4435TIP3   OH234795   4.828   4.444  16.171  0.5226 -0.3445 -0.6795
 4435TIP3    H134796   4.753   4.403  16.128  0.1809 -1.5944  1.0834
 4435TIP3    H234797   4.877   4.372  16.209  1.4721  0.6410  0.0009
 4436TIP3   OH234798   6.422   1.341  10.979 -0.1359  0.0315 -0.2048
 4436TIP3    H134799   6.510   1.373  11.001 -0.5430  0.9493  0.0998
 4436TIP3    H234800   6.421   1.251  11.011  0.7524 -0.0385 -0.3559
 4437TIP3   OH234801   0.716   0.483   4.670  0.1630  0.0944  0.1520
 4437TIP3    H134802   0.710   0.575   4.696 -0.9201 -0.0345  0.3893
 4437TIP3    H234803   0.638   0.443   4.707 -0.0118 -0.6567 -0.9947
 4438TIP3   OH234804   5.332   1.082  12.571  0.1128 -0.5968 -0.7038
 4438TIP3    H134805   5.408   1.083  12.629 -1.1333 -0.4863  0.9624
 4438TIP3    H234806   5.319   1.174  12.547 -0.2590 -0.4520  0.0420
 4439TIP3   OH234807   1.579   6.547   0.532  0.7443 -0.1586 -0.0306
 4439TIP3    H134808   1.617   6.525   0.617  2.7922 -0.1455 -0.9139
 4439TIP3    H234809   1.512   6.480   0.518 -0.2261  0.3707  1.9818
 4440TIP3   OH234810   4.563   1.312  14.314  0.0792  0.1611 -0.2245
 4440TIP3    H134811   4.587   1.351  14.230  0.0626  0.9058  0.1068
 4440TIP3    H234812   4.631   1.248  14.331  1.4410  1.7330  0.3568
 4441TIP3   OH234813   1.866   4.727  12.437 -0.0999  0.3688 -0.0188
 4441TIP3    H134814   1.892   4.815  12.465 -0.8647 -0.0820  2.2230
 4441TIP3    H234815   1.778   4.716  12.472 -1.1552 -0.2516 -2.7129
 4442TIP3   OH234816   0.974   0.677  14.685 -1.0719 -0.4767 -0.3332
 4442TIP3    H134817   0.983   0.758  14.736 -2.1753 -0.3201 -0.3750
 4442TIP3    H234818   0.987   0.607  14.749 -0.1997 -0.2704 -0.2793
 4443TIP3   OH234819   3.413   1.518  13.891 -0.7245 -0.2878 -0.1951
 4443TIP3    H134820   3.436   1.426  13.886 -0.5928 -0.2347 -0.6128
 4443TIP3    H234821   3.480   1.556  13.948 -0.6331 -0.4046 -0.2235
 4444TIP3   OH234822   2.770   4.103  11.586  0.1004  0.2506 -0.0805
 4444TIP3    H134823   2.723   4.022  11.605 -1.1359  0.7357 -1.0623
 4444TIP3    H234824   2.862   4.076  11.581 -0.4605 -1.4495 -2.2404
 4445TIP3   OH234825   1.512   1.061  12.832 -0.0388 -0.2966  0.0838
 4445TIP3    H134826   1.487   1.016  12.913 -3.5545 -0.0949 -0.8140
 4445TIP3    H234827   1.431   1.066  12.782  2.1624 -0.8680 -3.6909
 4446TIP3   OH234828   4.532   4.982   2.312 -0.2389  0.1221 -0.0750
 4446TIP3    H134829   4.567   4.897   2.339 -0.1922  0.0897 -0.2385
 4446TIP3    H234830   4.609   5.039   2.308 -0.3572  0.3583  0.7340
 4447TIP3   OH234831   5.170   4.249  12.709  0.0406 -0.3804  0.5238
 4447TIP3    H134832   5.219   4.299  12.774 -2.1555  1.4389  0.8301
 4447TIP3    H234833   5.082   4.240  12.746 -1.1889  0.5113 -2.0627
 4448TIP3   OH234834   6.645   1.662  12.293  0.0836  0.0632  0.2438
 4448TIP3    H134835   6.730   1.655  12.251 -0.1648 -2.7662  0.1159
 4448TIP3    H234836   6.590   1.707  12.229  0.6694 -0.9078 -0.9612
 4449TIP3   OH234837   4.220   5.033   0.104 -0.1363  0.3884 -0.3916
 4449TIP3    H134838   4.126   5.023   0.088 -0.4121 -0.7679  1.7641
 4449TIP3    H234839   4.243   4.958   0.159  2.2089  0.2699 -1.5006
 4450TIP3   OH234840   2.081   6.399   2.271 -0.2382  0.7553  0.6188
 4450TIP3    H134841   2.005   6.424   2.324 -0.5959 -0.1325  0.5324
 4450TIP3    H234842   2.153   6.451   2.306 -0.9505  1.8320  0.4990
 4451TIP3   OH234843   2.274   4.228  16.885 -0.2132 -0.5143  0.0653
 4451TIP3    H134844   2.322   4.297  16.931 -0.3921 -0.3059 -0.0603
 4451TIP3    H234845   2.241   4.270  16.805 -1.5797 -0.3342  0.6983
 4452TIP3   OH234846   3.663   0.906   4.339 -0.2222  0.5902  0.2177
 4452TIP3    H134847   3.693   0.992   4.369 -1.4593  0.9780  0.3582
 4452TIP3    H234848   3.616   0.924   4.258  0.0054 -0.0309 -0.0556
 4453TIP3   OH234849   2.921   2.025  12.103  0.1939  0.2713 -0.1620
 4453TIP3    H134850   2.933   1.931  12.089 -1.9339 -0.0275 -0.2293
 4453TIP3    H234851   2.949   2.065  12.021 -1.2213 -0.5320 -1.0604
 4454TIP3   OH234852   1.598   1.342  16.460 -0.0917 -0.1139  0.1428
 4454TIP3    H134853   1.634   1.259  16.429 -1.9297 -0.9063  0.0591
 4454TIP3    H234854   1.673   1.389  16.494  1.6153 -0.2265 -3.2451
 4455TIP3   OH234855   4.042   2.910  16.848  0.1463 -0.3904 -0.5165
 4455TIP3    H134856   4.122   2.898  16.899  0.9122 -0.4335 -1.7109
 4455TIP3    H234857   3.991   2.973  16.899  1.5563  0.7120 -0.4310
 4456TIP3   OH234858   6.085   4.692   1.003 -0.1809 -0.2140  0.2566
 4456TIP3    H134859   6.179   4.706   0.991 -0.0316 -0.8916  0.5954
 4456TIP3    H234860   6.044   4.764   0.956  0.4639 -0.9852 -1.5411
 4457TIP3   OH234861   4.118   0.312  12.870  0.3698  0.1200 -0.0336
 4457TIP3    H134862   4.127   0.368  12.793 -0.8253  0.8977  0.3769
 4457TIP3    H234863   4.184   0.244  12.858  0.9888  0.9030 -1.1629
 4458TIP3   OH234864   5.496   5.676   5.247 -0.1508 -0.2494 -0.3170
 4458TIP3    H134865   5.565   5.646   5.188 -0.0475 -0.5067 -0.0681
 4458TIP3    H234866   5.523   5.645   5.333  0.2768  1.0990  0.0476
 4459TIP3   OH234867   1.597   5.997  11.639 -0.0964 -0.6418 -0.3993
 4459TIP3    H134868   1.577   6.050  11.716 -0.8922 -0.1739 -0.9168
 4459TIP3    H234869   1.615   5.910  11.673  0.6593 -0.1822  0.4140
 4460TIP3   OH234870   0.892   4.405  15.097  0.2831 -0.3931  0.7665
 4460TIP3    H134871   0.970   4.355  15.123  1.4701  0.0242 -1.8083
 4460TIP3    H234872   0.910   4.432  15.007 -2.6004  0.2507  0.3332
 4461TIP3   OH234873   6.380   5.248  13.503  0.5175 -0.3973 -0.0786
 4461TIP3    H134874   6.355   5.181  13.440  1.0871 -0.7465  0.0591
 4461TIP3    H234875   6.298   5.286  13.533  0.2716  0.4441 -1.7646
 4462TIP3   OH234876   2.657   0.893   5.192 -0.0041 -0.0224 -0.1833
 4462TIP3    H134877   2.740   0.882   5.238 -0.1976  0.2024  0.2217
 4462TIP3    H234878   2.634   0.985   5.207 -1.0686 -0.4584  0.9611
 4463TIP3   OH234879   2.046   6.577  11.880 -0.4186 -0.0369  0.9715
 4463TIP3    H134880   2.139   6.583  11.858 -0.6571 -0.4843 -0.2072
 4463TIP3    H234881   2.027   6.483  11.875 -1.3329  0.2158 -0.5150
 4464TIP3   OH234882   4.856   2.505  11.583  0.2148 -0.4665  0.2034
 4464TIP3    H134883   4.823   2.580  11.632  0.8323 -0.3775  0.4862
 4464TIP3    H234884   4.879   2.441  11.650 -0.1597 -0.8467 -0.0322
 4465TIP3   OH234885   2.608   2.255  13.756  0.0664 -0.0126 -0.0116
 4465TIP3    H134886   2.552   2.277  13.830 -0.4765 -0.9461 -0.1404
 4465TIP3    H234887   2.614   2.336  13.705 -1.6896 -0.0760 -0.3478
 4466TIP3   OH234888   4.326   5.904   5.921 -0.0368  0.4027  0.6094
 4466TIP3    H134889   4.282   5.949   5.993 -0.1978  0.0421  0.7359
 4466TIP3    H234890   4.266   5.912   5.847  0.7605  2.0353  0.1070
 4467TIP3   OH234891   2.026   4.793   6.270  0.2711  0.3277 -0.0851
 4467TIP3    H134892   2.064   4.830   6.350 -0.2489 -0.1584  0.4009
 4467TIP3    H234893   2.025   4.865   6.208  3.5447 -0.0700 -0.6827
 4468TIP3   OH234894   0.467   1.588   0.206  0.2584 -0.5933  0.2876
 4468TIP3    H134895   0.557   1.609   0.180 -0.5779  0.5070 -1.8600
 4468TIP3    H234896   0.459   1.621   0.296  1.6394  0.4099  0.0544
 4469TIP3   OH234897   2.954   0.160  11.589 -0.2583 -0.0033 -0.7560
 4469TIP3    H134898   3.025   0.220  11.610 -1.2135  0.4829  1.1833
 4469TIP3    H234899   2.927   0.185  11.501  0.7767  0.9834 -0.8085
 4470TIP3   OH234900   5.860   0.921   4.210  0.2295  0.7635  0.0067
 4470TIP3    H134901   5.819   0.842   4.174  1.3510  0.3475 -0.4130
 4470TIP3    H234902   5.844   0.988   4.145 -0.6211  0.8475  0.3033
 4471TIP3   OH234903   2.227   1.909  11.647  0.4139 -0.1385  0.0796
 4471TIP3    H134904   2.273   1.825  11.635  1.4854  0.7216 -2.0970
 4471TIP3    H234905   2.195   1.932  11.560  0.8569  2.1249  0.4737
 4472TIP3   OH234906   1.351   5.247   5.293 -0.2255  0.2911  0.3756
 4472TIP3    H134907   1.331   5.160   5.328 -1.4949  1.4237  2.6213
 4472TIP3    H234908   1.378   5.231   5.203 -2.3181 -2.2610  0.1243
 4473TIP3   OH234909   2.881   4.840   1.532 -0.3922 -0.4013  0.4545
 4473TIP3    H134910   2.943   4.780   1.574  1.2636  0.9939  0.0702
 4473TIP3    H234911   2.906   4.926   1.565  0.6641  0.6800 -2.9900
 4474TIP3   OH234912   3.762   0.128  16.162 -0.7693 -0.2286 -0.1282
 4474TIP3    H134913   3.741   0.043  16.122  1.6452 -0.6656 -0.5409
 4474TIP3    H234914   3.785   0.107  16.252  0.8505 -0.1774 -0.5096
 4475TIP3   OH234915   0.668   0.810  16.006  0.0646 -0.3503  0.6449
 4475TIP3    H134916   0.584   0.772  16.032 -0.7776  0.8062 -0.3359
 4475TIP3    H234917   0.731   0.739  16.017 -0.9606 -1.0848  1.8484
 4476TIP3   OH234918   5.346   1.696  13.615 -0.1717 -0.0553  0.0301
 4476TIP3    H134919   5.320   1.630  13.550 -1.1360 -0.9042  1.2482
 4476TIP3    H234920   5.399   1.647  13.678 -1.8463  0.0542  1.5679
 4477TIP3   OH234921   6.225   2.681  11.819 -0.4309 -0.3230 -0.5277
 4477TIP3    H134922   6.180   2.696  11.736 -0.7482 -2.9761 -0.8727
 4477TIP3    H234923   6.269   2.596  11.808  0.7379 -0.0226  1.4973
 4478TIP3   OH234924   3.818   6.348  15.595 -0.3590  0.2921  0.5135
 4478TIP3    H134925   3.725   6.336  15.580 -0.5037 -0.0365  1.5911
 4478TIP3    H234926   3.840   6.282  15.661  0.4574  0.9248  0.8842
 4479TIP3   OH234927   3.767   1.194  15.282  0.3037 -0.1679 -0.5372
 4479TIP3    H134928   3.711   1.171  15.356  0.4402 -0.4820 -0.5338
 4479TIP3    H234929   3.707   1.202  15.208  0.2082 -0.1580 -0.4584
 4480TIP3   OH234930   3.391   1.183  11.944 -0.2988 -0.7763 -0.1821
 4480TIP3    H134931   3.457   1.249  11.923 -0.5320 -0.7449 -0.8395
 4480TIP3    H234932   3.380   1.133  11.862 -0.7816 -1.0454  0.0436
 4481TIP3   OH234933   5.531   6.365  10.364 -0.1165  0.3428 -0.3400
 4481TIP3    H134934   5.592   6.304  10.322 -1.2376  0.1413 -1.7054
 4481TIP3    H234935   5.555   6.364  10.457  1.6353 -0.1068 -0.7863
 4482TIP3   OH234936   3.478   4.468   0.925 -0.1315  0.2945 -0.3511
 4482TIP3    H134937   3.566   4.502   0.940 -1.4090  3.1453  1.0518
 4482TIP3    H234938   3.424   4.509   0.993 -2.0466 -3.6848  0.6542
 4483TIP3   OH234939   2.887   0.681   2.680  0.0812 -0.5873  0.1574
 4483TIP3    H134940   2.812   0.690   2.739 -0.4020  0.2406 -0.5673
 4483TIP3    H234941   2.950   0.746   2.711 -0.0259 -0.3980 -0.0241
 4484TIP3   OH234942   4.256   0.676   1.725 -0.0921 -0.2231 -0.4302
 4484TIP3    H134943   4.351   0.686   1.711 -0.2267  0.7454 -0.7371
 4484TIP3    H234944   4.243   0.582   1.733  1.0884 -0.2841  0.9469
 4485TIP3   OH234945   2.666   1.812  12.181  0.3227  0.7388 -0.5612
 4485TIP3    H134946   2.754   1.845  12.160  0.3070  0.8668 -0.4294
 4485TIP3    H234947   2.618   1.820  12.099  1.3805 -2.4640 -1.5554
 4486TIP3   OH234948   3.590   2.691  16.757 -0.1174 -0.2473 -0.6378
 4486TIP3    H134949   3.565   2.636  16.832  1.1698  3.2902  2.5539
 4486TIP3    H234950   3.683   2.672  16.745 -0.2459 -0.5674 -1.1095
 4487TIP3   OH234951   2.846   4.700   2.896 -0.2968 -0.3169 -0.2363
 4487TIP3    H134952   2.820   4.620   2.851 -0.5968  0.5235 -1.5732
 4487TIP3    H234953   2.936   4.716   2.867  1.2258 -2.2836  3.0612
 4488TIP3   OH234954   6.622   1.075   0.068  0.2506  0.0566 -0.1095
 4488TIP3    H134955   6.693   1.054   0.008 -1.2528 -0.3474 -1.8042
 4488TIP3    H234956   6.665   1.090   0.152  2.2742 -0.6491 -0.9853
 4489TIP3   OH234957   2.829   1.203   0.768 -0.0710  0.6244 -0.0802
 4489TIP3    H134958   2.798   1.150   0.695 -0.6252 -0.6567  1.0663
 4489TIP3    H234959   2.858   1.285   0.727  0.4451 -0.3965 -1.8228
 4490TIP3   OH234960   5.012   2.536   1.474 -0.2596  0.1578 -0.2459
 4490TIP3    H134961   4.989   2.443   1.476  2.1237 -0.4810 -0.3741
 4490TIP3    H234962   5.029   2.554   1.382  1.2407  0.1684  0.0122
 4491TIP3   OH234963   2.308   1.488  12.594  0.1124 -0.4467 -0.2739
 4491TIP3    H134964   2.247   1.448  12.656 -1.1990 -0.8028 -1.7388
 4491TIP3    H234965   2.287   1.581  12.597  0.7584 -0.3236  0.5621
 4492TIP3   OH234966   5.900   5.570  12.843 -0.3921 -0.3479 -0.6659
 4492TIP3    H134967   5.974   5.533  12.795 -0.4927 -0.5433 -0.6733
 4492TIP3    H234968   5.824   5.520  12.811 -0.1650 -2.0149  1.3091
 4493TIP3   OH234969   6.436   3.140   1.592  0.3535 -0.3027  0.0039
 4493TIP3    H134970   6.434   3.155   1.686  1.1113  0.4121 -0.0902
 4493TIP3    H234971   6.500   3.070   1.580  1.7153  0.9415 -0.1436
 4494TIP3   OH234972   3.325   5.784  12.563 -0.4840  0.0481  0.2245
 4494TIP3    H134973   3.274   5.863  12.576  2.2328  2.1199 -1.2652
 4494TIP3    H234974   3.396   5.810  12.503  0.3121 -3.5481 -0.5293
 4495TIP3   OH234975   0.742   3.761  15.429 -0.4901 -0.5734  0.3677
 4495TIP3    H134976   0.669   3.738  15.372  0.4100 -2.2635 -0.1396
 4495TIP3    H234977   0.809   3.794  15.369 -0.0985 -0.9313  0.6092
 4496TIP3   OH234978   2.092   6.575   2.619  0.1204 -0.0974 -0.8535
 4496TIP3    H134979   2.112   6.665   2.595  1.1331  0.0710  0.5254
 4496TIP3    H234980   2.022   6.549   2.560  0.2630  1.3771 -1.6954
 4497TIP3   OH234981   2.915   4.329   2.054  0.3299 -0.3458 -0.9828
 4497TIP3    H134982   2.876   4.404   2.009 -0.6312  0.2860  0.8227
 4497TIP3    H234983   2.850   4.260   2.044  0.6600 -0.5703 -1.5903
 4498TIP3   OH234984   1.972   6.149  12.991  0.2493  0.5004  0.0035
 4498TIP3    H134985   1.982   6.074  12.932 -1.3369  0.3362 -0.0707
 4498TIP3    H234986   1.940   6.111  13.072 -0.0372  1.0474  0.1447
 4499TIP3   OH234987   5.755   1.760  11.541  0.1752 -0.8658  0.0434
 4499TIP3    H134988   5.814   1.793  11.609 -1.3633 -0.7327  1.3389
 4499TIP3    H234989   5.765   1.665  11.544  0.5530 -0.8280  0.0396
 4500TIP3   OH234990   0.956   4.114   3.895 -0.3712 -0.5160  0.0981
 4500TIP3    H134991   1.027   4.050   3.900 -0.2654 -0.4713 -0.7686
 4500TIP3    H234992   0.892   4.074   3.836 -0.6506 -0.1501  0.1511
 4501TIP3   OH234993   1.318   1.994   3.494 -0.0452 -0.4627  0.3488
 4501TIP3    H134994   1.325   1.923   3.430  0.8146 -0.0461 -0.0314
 4501TIP3    H234995   1.312   2.073   3.441  3.0312  0.1045  0.7316
 4502TIP3   OH234996   1.568   5.966  16.183  0.3255  0.0277 -0.2259
 4502TIP3    H134997   1.652   5.988  16.144  0.7145 -1.1455 -0.0836
 4502TIP3    H234998   1.569   5.870  16.190 -0.2346  0.1230  1.5111
 4503TIP3   OH234999   2.763   5.199   1.017  0.0903  0.0269 -0.4901
 4503TIP3    H135000   2.712   5.143   0.958  0.9705 -0.5521 -0.7170
 4503TIP3    H235001   2.698   5.252   1.062 -0.7258 -0.8604 -0.6106
 4504TIP3   OH235002   0.175   0.951   4.409  0.5346 -0.4109 -0.4200
 4504TIP3    H135003   0.196   1.044   4.403  0.7833 -0.2215  2.6596
 4504TIP3    H235004   0.236   0.910   4.347  2.0122  1.2622 -0.1435
 4505TIP3   OH235005   5.151   1.765   1.234 -0.2725  0.0415 -0.0501
 4505TIP3    H135006   5.135   1.842   1.180  0.5955 -0.8792 -1.6373
 4505TIP3    H235007   5.219   1.717   1.188  0.2703 -0.9162  1.7174
 4506TIP3   OH235008   0.948   6.530  16.655  0.1807 -0.1835  0.1551
 4506TIP3    H135009   1.016   6.474  16.692  0.8258  1.1433  1.0430
 4506TIP3    H235010   0.996   6.593  16.601 -0.6235 -1.1153 -1.6945
 4507TIP3   OH235011   1.159   3.343   0.414 -0.1971 -0.5351  0.1750
 4507TIP3    H135012   1.075   3.299   0.417 -0.8818  0.6711 -0.6785
 4507TIP3    H235013   1.201   3.323   0.497 -1.9950  0.1412  1.2626
 4508TIP3   OH235014   4.793   1.687   0.487 -0.1602 -0.1063 -0.3661
 4508TIP3    H135015   4.749   1.626   0.547 -1.5096  0.6385 -0.5595
 4508TIP3    H235016   4.724   1.748   0.462  1.0475  1.1695 -0.6064
 4509TIP3   OH235017   3.377   2.419  16.276  0.6429 -0.2298  0.1603
 4509TIP3    H135018   3.423   2.351  16.325 -1.1236 -2.5016 -1.2734
 4509TIP3    H235019   3.323   2.463  16.342  0.8569 -1.0047  0.8633
 4510TIP3   OH235020   3.450   3.809   4.488  0.1130  0.3162 -0.3154
 4510TIP3    H135021   3.457   3.867   4.564  0.2962 -0.8458  0.5571
 4510TIP3    H235022   3.531   3.759   4.488  0.0123  0.1495 -1.1525
 4511TIP3   OH235023   4.921   2.696  15.012  0.7506 -0.1842  0.3694
 4511TIP3    H135024   4.892   2.605  15.003  0.0743  0.1739 -1.2088
 4511TIP3    H235025   5.004   2.700  14.965 -0.2073  0.4623 -1.3198
 4512TIP3   OH235026   1.932   6.220   3.832 -0.6541  0.4135 -0.1385
 4512TIP3    H135027   1.919   6.315   3.834 -1.1448  0.3563 -0.9011
 4512TIP3    H235028   1.978   6.202   3.915 -0.5610  1.3077  0.0197
 4513TIP3   OH235029   6.055   2.706   0.252  0.0035  0.2746  0.1039
 4513TIP3    H135030   6.130   2.669   0.206  0.0274 -1.6686  1.6191
 4513TIP3    H235031   6.092   2.766   0.317  0.2969 -0.8842  1.0303
 4514TIP3   OH235032   4.390   0.913  12.088 -0.2476  0.3396 -0.8760
 4514TIP3    H135033   4.368   1.002  12.062 -1.3803  0.4827  0.5301
 4514TIP3    H235034   4.465   0.922  12.146 -1.3786  0.5536  0.5964
 4515TIP3   OH235035   0.074   1.129  15.342  0.0396 -0.1341 -0.0985
 4515TIP3    H135036   0.089   1.212  15.387  0.9395  0.2387 -1.0887
 4515TIP3    H235037   0.161   1.098  15.319 -0.2031 -1.9319  1.2708
 4516TIP3   OH235038   1.441   3.860   5.630 -0.0836 -0.3503  0.2793
 4516TIP3    H135039   1.490   3.822   5.704  0.1790 -1.6311 -0.5361
 4516TIP3    H235040   1.377   3.917   5.671  0.4421 -0.6009  1.4850
 4517TIP3   OH235041   4.398   3.637  15.105  0.1454 -0.0156  0.6858
 4517TIP3    H135042   4.423   3.712  15.051  0.5634 -0.6452 -0.0035
 4517TIP3    H235043   4.475   3.580  15.103 -0.2321 -0.5385  1.0739
 4518TIP3   OH235044   2.143   0.978  11.418  0.0439 -0.4655 -0.7358
 4518TIP3    H135045   2.220   0.926  11.395  0.6282  0.3548 -0.6661
 4518TIP3    H235046   2.080   0.959  11.349  0.3971 -0.9562 -0.9259
 4519TIP3   OH235047   3.393   6.566  10.469  0.4314  0.3529  0.3465
 4519TIP3    H135048   3.298   6.560  10.474  0.4764 -1.0963 -0.2263
 4519TIP3    H235049   3.413   6.567  10.375  1.0010  0.2267  0.4617
 4520TIP3   OH235050   4.073   6.816   2.071  0.4578  0.1528 -0.0770
 4520TIP3    H135051   4.165   6.843   2.072  0.8162 -0.9967 -1.1788
 4520TIP3    H235052   4.050   6.807   2.164  1.4446  0.5008  0.2066
 4521TIP3   OH235053   6.332   3.651   0.725  0.2324  0.2525  0.1531
 4521TIP3    H135054   6.292   3.696   0.651 -0.4526 -0.0902  0.3080
 4521TIP3    H235055   6.426   3.665   0.714  0.0571  1.2644 -0.0894
 4522TIP3   OH235056   1.111   6.001   6.184  0.2532  0.4951  0.4286
 4522TIP3    H135057   1.105   6.086   6.140 -1.3558  0.5085  0.6179
 4522TIP3    H235058   1.028   5.994   6.232  1.2367 -0.2808  2.0566
 4523TIP3   OH235059   0.858   5.899   5.519 -0.0273  0.2801  0.0423
 4523TIP3    H135060   0.782   5.844   5.542  0.8913 -1.4259 -0.9000
 4523TIP3    H235061   0.827   5.956   5.449 -0.4656 -0.3911 -0.3173
 4524TIP3   OH235062   5.558   4.952   5.283 -0.2019  0.8402  0.3962
 4524TIP3    H135063   5.637   4.905   5.309 -0.0726  0.4289 -0.7204
 4524TIP3    H235064   5.507   4.888   5.234  0.0560  1.8842 -1.2776
 4525TIP3   OH235065   1.517   0.006   1.026 -0.6856 -1.0249  0.0582
 4525TIP3    H135066   1.423   0.023   1.027 -0.6202 -0.2082 -2.8008
 4525TIP3    H235067   1.524  -0.090   1.025 -1.4725 -1.0927  1.0127
 4526TIP3   OH235068   4.748   2.450   2.903  0.1495 -0.4173 -0.1826
 4526TIP3    H135069   4.731   2.387   2.974 -0.5602 -0.3101 -0.2490
 4526TIP3    H235070   4.683   2.519   2.917 -0.3289 -0.6477 -1.2264
 4527TIP3   OH235071   3.810   6.469   1.970  0.4582 -0.3278  0.1420
 4527TIP3    H135072   3.891   6.419   1.981  0.6783  0.0242  0.1239
 4527TIP3    H235073   3.803   6.520   2.051  0.1026 -0.5780  0.2685
 4528TIP3   OH235074   1.982   2.417  11.030 -0.0135 -0.2911  0.1481
 4528TIP3    H135075   1.939   2.425  11.116  0.3465 -0.0340  0.3056
 4528TIP3    H235076   2.073   2.396  11.050 -0.2247 -1.5461 -0.2115
 4529TIP3   OH235077   3.341   4.787  16.348 -0.4425  0.0672 -0.0896
 4529TIP3    H135078   3.360   4.796  16.255 -0.5754 -0.5478 -0.1762
 4529TIP3    H235079   3.340   4.877  16.381  0.5394  0.2333 -0.4977
 4530TIP3   OH235080   1.558   3.856  15.447  0.2992  0.2620  0.3588
 4530TIP3    H135081   1.598   3.936  15.412  1.0173  0.1431  0.8946
 4530TIP3    H235082   1.571   3.862  15.541  1.3572 -1.0092  0.3106
 4531TIP3   OH235083   6.129   4.447   5.961 -0.2560 -0.6531 -0.2182
 4531TIP3    H135084   6.037   4.436   5.940 -0.7513  1.3115  0.7742
 4531TIP3    H235085   6.134   4.430   6.055 -0.0774  1.7094  0.2339
 4532TIP3   OH235086   5.202   2.242  14.290  0.2440  0.2462  0.3791
 4532TIP3    H135087   5.267   2.177  14.262 -0.1220  0.6623 -1.5045
 4532TIP3    H235088   5.222   2.319  14.237 -1.1453  0.7101  0.5171
 4533TIP3   OH235089   6.674   4.390  14.950  0.9299 -0.7770  0.7024
 4533TIP3    H135090   6.612   4.376  15.023  0.8506  0.9990  0.9955
 4533TIP3    H235091   6.652   4.321  14.887 -0.7505 -0.7423  1.2159
 4534TIP3   OH235092   1.585   2.366  16.146  0.1029  0.4371  0.3845
 4534TIP3    H135093   1.667   2.408  16.172  0.2812  0.1607  0.2637
 4534TIP3    H235094   1.551   2.423  16.076  0.4568  0.2613  0.0663
 4535TIP3   OH235095   1.428   2.123  14.839 -0.5503  0.2006  0.3329
 4535TIP3    H135096   1.484   2.200  14.827 -1.0261  0.5003  0.0463
 4535TIP3    H235097   1.443   2.070  14.761  0.0448 -0.1691  0.6938
 4536TIP3   OH235098   6.423   0.153   1.677  0.4500  0.1271 -0.3550
 4536TIP3    H135099   6.364   0.168   1.603 -0.7097 -1.1105  0.3142
 4536TIP3    H235100   6.511   0.160   1.638 -0.1248  0.4302 -1.6538
 4537TIP3   OH235101   0.594   1.820   4.752 -0.1527  0.2920 -0.0003
 4537TIP3    H135102   0.549   1.810   4.668  0.4739  0.6010 -0.3729
 4537TIP3    H235103   0.586   1.913   4.773  0.2494  0.3350 -0.0336
 4538TIP3   OH235104   1.154   0.065   1.903 -0.0911  0.7238 -0.5005
 4538TIP3    H135105   1.155   0.136   1.967  0.0069  0.1560  0.1353
 4538TIP3    H235106   1.103   0.099   1.830  0.0388  1.4845 -0.2406
 4539TIP3   OH235107   2.062   1.259  16.200  0.0856  0.3790  0.5417
 4539TIP3    H135108   2.072   1.166  16.220  0.6414  0.2792 -0.1916
 4539TIP3    H235109   2.145   1.298  16.225 -0.0673  0.6426  0.6381
 4540TIP3   OH235110   1.857   1.645   3.242  0.3198 -0.1433  0.8654
 4540TIP3    H135111   1.946   1.658   3.208  0.4206 -1.3476  0.6661
 4540TIP3    H235112   1.834   1.730   3.280  1.0833  0.5506 -0.1773
 4541TIP3   OH235113   6.587   0.065  15.863  0.6121  0.0133 -0.3936
 4541TIP3    H135114   6.631   0.015  15.795  2.6051  0.7017  0.3634
 4541TIP3    H235115   6.624   0.153  15.857 -0.7899  0.6720  0.1536
 4542TIP3   OH235116   3.953   3.246   0.673 -0.2678  0.1049  0.8520
 4542TIP3    H135117   3.896   3.172   0.655 -1.3582  0.7853  1.4458
 4542TIP3    H235118   4.030   3.207   0.716 -1.1677 -0.5991  1.8427
 4543TIP3   OH235119   5.553   5.054   3.070 -0.3177  0.2615  0.3522
 4543TIP3    H135120   5.528   5.145   3.088 -3.5255 -0.5889  0.5322
 4543TIP3    H235121   5.570   5.052   2.975  0.6340  1.2221  0.4954
 4544TIP3   OH235122   2.741   1.273  17.014  0.5362 -0.3058  0.4301
 4544TIP3    H135123   2.714   1.322  17.092 -1.1474  1.8177 -1.4307
 4544TIP3    H235124   2.814   1.323  16.978  1.7107 -1.6209  0.9829
 4545TIP3   OH235125   1.744   3.039  11.223 -0.0472  0.3190  0.0743
 4545TIP3    H135126   1.680   2.970  11.242 -0.0218  0.8497  2.1735
 4545TIP3    H235127   1.709   3.083  11.146 -1.9464  0.2653  0.8843
 4546TIP3   OH235128   2.126   0.586   1.178 -0.4468 -0.2453 -0.6881
 4546TIP3    H135129   2.064   0.641   1.132 -1.1836  0.0261  0.6033
 4546TIP3    H235130   2.149   0.636   1.257  0.0626 -1.1080 -0.2809
 4547TIP3   OH235131   5.568   1.611   5.455 -0.0660 -0.4881  0.5620
 4547TIP3    H135132   5.524   1.582   5.375  1.6187 -1.7893  0.0850
 4547TIP3    H235133   5.631   1.542   5.475  0.6867  0.6037  2.0948
 4548TIP3   OH235134   5.435   3.087   6.539  0.3223  0.1651 -0.1181
 4548TIP3    H135135   5.405   3.072   6.628  2.2704  0.4002  0.5958
 4548TIP3    H235136   5.465   3.001   6.509 -0.3040  0.0913 -0.5453
 4549TIP3   OH235137   4.228   5.495   3.831 -0.0374  0.6818 -0.0814
 4549TIP3    H135138   4.218   5.410   3.787  1.0882  0.0885  0.7949
 4549TIP3    H235139   4.167   5.553   3.785  1.2382  0.1242 -2.5573
 4550TIP3   OH235140   1.587   1.787   3.852  0.0983 -0.4558  0.0124
 4550TIP3    H135141   1.633   1.715   3.808  1.3748  1.5475 -2.0138
 4550TIP3    H235142   1.655   1.829   3.906 -0.5008 -0.3983  0.7281
 4551TIP3   OH235143   1.957   1.447   4.526  0.0066  0.0927 -0.5274
 4551TIP3    H135144   1.992   1.444   4.615  1.4621 -0.4451 -1.1073
 4551TIP3    H235145   1.867   1.415   4.535  0.2064 -0.1502  0.7164
 4552TIP3   OH235146   4.673   5.700  11.922  0.4598 -0.0320  0.1641
 4552TIP3    H135147   4.744   5.727  11.980 -0.1561  1.1460  0.3875
 4552TIP3    H235148   4.670   5.766  11.854 -0.4275 -0.0617  0.1640
 4553TIP3   OH235149   6.122   0.430  15.087  0.4581 -0.5399 -0.1945
 4553TIP3    H135150   6.180   0.418  15.012 -1.9499 -1.3917 -1.9640
 4553TIP3    H235151   6.064   0.501  15.062  0.2399 -0.1794  1.2739
 4554TIP3   OH235152   6.513   5.484  15.953  0.8618  0.2328 -0.0556
 4554TIP3    H135153   6.449   5.414  15.939 -0.4016  1.3608  0.0187
 4554TIP3    H235154   6.583   5.442  16.003  0.0594 -0.9421  0.1130
 4555TIP3   OH235155   3.429   0.016   0.192  0.1869  0.1547  0.5615
 4555TIP3    H135156   3.431   0.107   0.220  0.4018  0.2871  0.1191
 4555TIP3    H235157   3.351   0.009   0.137  1.6132  0.7320 -1.6039
 4556TIP3   OH235158   2.254   2.739   6.345 -0.0483 -0.2680  0.2457
 4556TIP3    H135159   2.240   2.650   6.315 -0.1140  0.0081 -0.5582
 4556TIP3    H235160   2.338   2.764   6.307  0.1085 -0.0882  0.7061
 4557TIP3   OH235161   4.104   4.839   0.753  0.2138  0.2639 -0.0852
 4557TIP3    H135162   4.143   4.753   0.767  0.3537  0.4160  0.4820
 4557TIP3    H235163   4.175   4.901   0.772 -0.3312  0.5431  1.1383
 4558TIP3   OH235164   2.669   5.686  12.312  0.3677  0.0132 -0.1779
 4558TIP3    H135165   2.616   5.659  12.238 -1.2671  1.0734  0.5643
 4558TIP3    H235166   2.726   5.612  12.330 -1.2001 -1.3375 -0.6957
 4559TIP3   OH235167   5.294   5.491  16.101 -0.3757  0.3192 -0.1816
 4559TIP3    H135168   5.337   5.480  16.016 -2.5824  0.0287 -1.3030
 4559TIP3    H235169   5.273   5.584  16.106  3.1164  1.1183  1.7953
 4560TIP3   OH235170   0.077   3.482   1.299  0.4249  0.1088  0.3793
 4560TIP3    H135171   0.011   3.452   1.361  1.0939 -1.1059  0.5238
 4560TIP3    H235172   0.160   3.474   1.346  0.9530 -0.9177 -0.6865
 4561TIP3   OH235173   0.348   2.191  12.617 -0.2004  0.7160 -0.2999
 4561TIP3    H135174   0.413   2.212  12.549 -0.7382  0.0164 -1.0482
 4561TIP3    H235175   0.295   2.122  12.577  1.0136 -1.4899  1.7766
 4562TIP3   OH235176   2.026   2.617   1.560 -0.4806  0.5491 -0.0619
 4562TIP3    H135177   2.053   2.658   1.478  0.5215  0.6702  0.3214
 4562TIP3    H235178   2.029   2.523   1.543  0.0316  0.5664 -0.0667
 4563TIP3   OH235179   1.925   5.997   4.263 -0.2149 -0.3934  0.5279
 4563TIP3    H135180   1.989   5.926   4.267  0.5358  0.2472 -0.0958
 4563TIP3    H235181   1.840   5.953   4.272  0.2926 -1.2754  1.0443
 4564TIP3   OH235182   2.557   6.202   0.678 -0.0126 -0.4174  0.2731
 4564TIP3    H135183   2.541   6.118   0.721  3.1887 -1.7160 -0.9300
 4564TIP3    H235184   2.562   6.266   0.749 -1.2839 -1.4335  1.2852
 4565TIP3   OH235185   5.218   5.010  13.073  0.2856  0.0311  0.0052
 4565TIP3    H135186   5.288   4.962  13.117  1.4119 -0.4967 -2.2913
 4565TIP3    H235187   5.260   5.090  13.040 -0.7525  0.8754  0.7157
 4566TIP3   OH235188   3.414   2.666  15.644  0.1629 -0.2238  0.1149
 4566TIP3    H135189   3.351   2.601  15.675  0.7569 -0.7391  0.2542
 4566TIP3    H235190   3.363   2.727  15.592 -0.4303 -0.6985  0.1475
 4567TIP3   OH235191   6.361   0.531   4.408  0.4904  0.2669 -0.2841
 4567TIP3    H135192   6.431   0.596   4.415 -0.0845  0.7409  1.1195
 4567TIP3    H235193   6.312   0.538   4.490 -1.5486  0.3253 -1.4780
 4568TIP3   OH235194   6.212   3.532  15.433  0.7110  0.4494 -0.1148
 4568TIP3    H135195   6.296   3.543  15.479  0.8881  0.0336 -0.3299
 4568TIP3    H235196   6.232   3.551  15.341  0.5822  0.3075 -0.1732
 4569TIP3   OH235197   0.161   3.774   5.973 -0.1391 -0.1429  0.1814
 4569TIP3    H135198   0.253   3.770   5.946 -0.4785 -1.9240 -0.7709
 4569TIP3    H235199   0.124   3.845   5.921  0.2718 -0.6462 -0.8300
 4570TIP3   OH235200   4.163   5.815   2.996  0.0724  0.0047 -0.5373
 4570TIP3    H135201   4.213   5.834   3.075  1.2126 -0.2256 -1.1836
 4570TIP3    H235202   4.226   5.824   2.925 -0.3870 -1.9256 -1.2382
 4571TIP3   OH235203   4.660   2.180  15.440  0.1945  0.5206 -0.1266
 4571TIP3    H135204   4.720   2.197  15.512  0.2946  1.9514 -0.5222
 4571TIP3    H235205   4.592   2.247  15.449 -1.2364 -0.9439  0.1837
 4572TIP3   OH235206   4.932   6.346   1.961  0.2405  1.0160  0.5980
 4572TIP3    H135207   4.969   6.346   1.872  2.1158 -1.5343  1.3388
 4572TIP3    H235208   4.841   6.375   1.948  0.6008  1.1157 -2.0997
 4573TIP3   OH235209   0.785   3.796   0.932  0.0230 -0.3170 -0.0226
 4573TIP3    H135210   0.821   3.785   0.844  0.1538  3.0706 -0.4500
 4573TIP3    H235211   0.694   3.768   0.924  0.9045 -3.3014 -0.3547
 4574TIP3   OH235212   0.311   4.246   6.313  0.2118  0.1780  0.2431
 4574TIP3    H135213   0.338   4.155   6.329  0.4516  0.5620  2.0512
 4574TIP3    H235214   0.370   4.298   6.367 -1.5220  1.2679  1.0835
 4575TIP3   OH235215   2.125   1.356  14.832  0.0086  0.1225 -0.3353
 4575TIP3    H135216   2.124   1.404  14.915  0.2239 -0.1572 -0.1704
 4575TIP3    H235217   2.045   1.304  14.833  0.3429 -0.4001  0.0084
 4576TIP3   OH235218   4.269   5.950  12.682  0.2543  0.3156 -0.1422
 4576TIP3    H135219   4.316   5.890  12.740 -0.7313 -0.3761 -0.0626
 4576TIP3    H235220   4.230   6.015  12.741 -1.7567 -1.0723  0.0962
 4577TIP3   OH235221   1.017   3.068   2.133  0.2598  0.1212  0.4350
 4577TIP3    H135222   1.096   3.068   2.079 -0.4804  2.7540 -0.7173
 4577TIP3    H235223   0.946   3.053   2.071 -0.4913  2.0506  0.7897
 4578TIP3   OH235224   4.599   2.931  12.673 -0.3406  0.5757  0.1329
 4578TIP3    H135225   4.518   2.903  12.631 -0.2862 -1.3652  1.2340
 4578TIP3    H235226   4.666   2.872  12.639  0.4138  1.4769  0.0306
 4579TIP3   OH235227   1.143   2.038  10.537  0.1052 -0.0264  0.0891
 4579TIP3    H135228   1.123   2.125  10.569 -0.5441 -0.6289  1.3656
 4579TIP3    H235229   1.235   2.024  10.561  0.0559  0.1026  0.3565
 4580TIP3   OH235230   4.703   5.360   5.196 -0.4753  0.4128 -0.2288
 4580TIP3    H135231   4.694   5.451   5.168 -2.8557  0.0225 -0.8206
 4580TIP3    H235232   4.753   5.318   5.126 -1.7492  0.6597 -1.3064
 4581TIP3   OH235233   6.779   4.295   5.108  0.0381  0.9544 -0.0706
 4581TIP3    H135234   6.830   4.217   5.086  0.5055  1.0706  0.5631
 4581TIP3    H235235   6.780   4.298   5.204 -0.7088  1.2629 -0.0664
 4582TIP3   OH235236   5.548   6.538   3.344 -0.0756  0.5531 -0.2883
 4582TIP3    H135237   5.561   6.522   3.250 -0.9401 -0.2943 -0.2708
 4582TIP3    H235238   5.454   6.554   3.353 -0.1820 -0.5146  0.5945
 4583TIP3   OH235239   1.891   5.475   0.002  0.2565 -0.1768 -0.1855
 4583TIP3    H135240   1.820   5.482  -0.062 -0.5175  2.4168  0.9130
 4583TIP3    H235241   1.853   5.426   0.075  0.4369 -1.1370 -0.7304
 4584TIP3   OH235242   0.681   1.373  16.338 -0.0873 -0.0507  0.3867
 4584TIP3    H135243   0.588   1.393  16.330 -0.7457 -2.9562 -0.0091
 4584TIP3    H235244   0.706   1.344  16.250  0.3146 -2.5759  1.3058
 4585TIP3   OH235245   2.275   4.832   3.607 -0.0248 -0.4456 -0.1952
 4585TIP3    H135246   2.334   4.897   3.645 -0.0996  0.2141 -1.1968
 4585TIP3    H235247   2.333   4.769   3.564  0.0738 -1.3471  1.2339
 4586TIP3   OH235248   1.616   2.500   5.249  0.3737  0.0243 -0.6241
 4586TIP3    H135249   1.676   2.512   5.323  0.6366 -0.6909 -0.7220
 4586TIP3    H235250   1.665   2.448   5.186 -0.3720 -0.6182 -0.6809
 4587TIP3   OH235251   5.933   1.722   3.859 -0.0045  0.4075 -0.2567
 4587TIP3    H135252   5.887   1.639   3.877 -0.0726  0.2247 -1.2493
 4587TIP3    H235253   5.864   1.782   3.832 -0.0349  0.9734  1.0315
 4588TIP3   OH235254   3.338   5.005  17.274  0.0012  0.0053  0.4876
 4588TIP3    H135255   3.358   4.924  17.321  0.5153  1.1278  2.2844
 4588TIP3    H235256   3.264   5.043  17.322  1.4375  1.8846  1.2932
 4589TIP3   OH235257   4.524   0.233  14.448  0.4165 -0.3298  0.0908
 4589TIP3    H135258   4.451   0.171  14.435 -0.3634  0.6563 -0.2815
 4589TIP3    H235259   4.482   0.310  14.487  1.1414  0.5529 -0.8652
 4590TIP3   OH235260   6.755   4.143   2.517 -0.1864  0.3682  0.0313
 4590TIP3    H135261   6.762   4.069   2.578  0.6881  0.5331  0.1317
 4590TIP3    H235262   6.789   4.218   2.566  0.5763  0.4908 -0.6771
 4591TIP3   OH235263   3.821   4.694  15.426 -0.0223  0.1505 -0.0795
 4591TIP3    H135264   3.805   4.747  15.348  1.6502 -0.5793 -0.9392
 4591TIP3    H235265   3.733   4.672  15.459 -0.7834 -0.8064 -2.6188
 4592TIP3   OH235266   2.263   2.449   4.251 -0.0432 -0.1896 -0.9838
 4592TIP3    H135267   2.169   2.436   4.253 -0.3308  1.7394  2.7283
 4592TIP3    H235268   2.300   2.362   4.266 -1.3614 -0.3613  1.5119
 4593TIP3   OH235269   4.912   4.472   5.897  0.2939 -0.2311 -0.3645
 4593TIP3    H135270   4.828   4.509   5.868 -0.0539 -1.0271 -0.3941
 4593TIP3    H235271   4.908   4.476   5.993  0.1782 -0.3640 -0.3639
 4594TIP3   OH235272   4.431   6.272   4.222  0.3436 -0.0103  0.1726
 4594TIP3    H135273   4.445   6.200   4.282  1.6044  1.8309  2.1667
 4594TIP3    H235274   4.513   6.280   4.174  0.4619  0.5334  0.4573
 4595TIP3   OH235275   6.035   5.694   1.578  0.2922 -0.2358 -0.6956
 4595TIP3    H135276   6.034   5.743   1.495  2.7040 -0.1506 -0.6925
 4595TIP3    H235277   5.989   5.612   1.558  0.5967 -0.0915 -2.0365
 4596TIP3   OH235278   3.262   1.180  11.679  0.2117 -0.4577  0.1603
 4596TIP3    H135279   3.172   1.155  11.658  0.0863 -0.3686  0.5812
 4596TIP3    H235280   3.294   1.224  11.600  0.2079 -1.3339 -0.3356
 4597TIP3   OH235281   1.374   5.802   1.187 -0.0645  0.1151  0.0234
 4597TIP3    H135282   1.372   5.749   1.107  1.1048 -1.3829  0.9504
 4597TIP3    H235283   1.312   5.872   1.170 -0.5447 -0.7038 -1.8372
 4598TIP3   OH235284   5.093   1.434   3.221  0.5821 -0.1995 -0.2733
 4598TIP3    H135285   5.055   1.379   3.152  1.6576 -1.1585 -0.1129
 4598TIP3    H235286   5.187   1.421   3.213  0.7176 -0.3400  1.4049
 4599TIP3   OH235287   2.595   1.707   2.000  0.3061  0.1835  0.3218
 4599TIP3    H135288   2.670   1.755   1.965  0.7783  1.1753  2.5984
 4599TIP3    H235289   2.523   1.770   1.997  0.6807  0.7541  2.3508
 4600TIP3   OH235290   5.371   1.002   5.270 -0.3817 -0.5156 -0.2735
 4600TIP3    H135291   5.437   1.071   5.271 -1.1214  0.2152 -0.9024
 4600TIP3    H235292   5.377   0.964   5.182 -0.6927 -0.5392 -0.2878
 4601TIP3   OH235293   3.073   2.714  16.569 -0.0248 -0.4534 -0.3215
 4601TIP3    H135294   3.082   2.729  16.475  1.4979 -1.9871 -0.4381
 4601TIP3    H235295   2.990   2.756  16.592 -0.4238 -0.0825 -2.3390
 4602TIP3   OH235296   2.696   4.417  14.847  0.0475 -0.1272  0.1309
 4602TIP3    H135297   2.731   4.385  14.764  0.7109 -1.1965  0.8053
 4602TIP3    H235298   2.764   4.395  14.911 -0.2618  1.0810  0.8856
 4603TIP3   OH235299   1.306   4.225   0.290 -0.1819  0.1866 -0.4975
 4603TIP3    H135300   1.229   4.281   0.279 -0.3340 -0.4523 -3.0584
 4603TIP3    H235301   1.371   4.262   0.230  0.4154 -1.1488 -0.6852
 4604TIP3   OH235302   3.014   3.640   3.718  0.1092 -0.2330  0.2173
 4604TIP3    H135303   3.079   3.697   3.759 -0.4809  0.8640 -0.3679
 4604TIP3    H235304   3.050   3.552   3.729  0.2278  0.0807  2.5986
 4605TIP3   OH235305   4.965   0.753  13.010 -0.2275  0.0420 -0.0601
 4605TIP3    H135306   4.968   0.716  13.098 -0.1374  0.7729  0.2460
 4605TIP3    H235307   5.018   0.694  12.957 -0.2430 -0.3724  0.3822
 4606TIP3   OH235308   3.585   0.755  16.667  0.3984  0.2506 -0.0055
 4606TIP3    H135309   3.563   0.701  16.591  2.2672 -3.0191  1.6616
 4606TIP3    H235310   3.673   0.789  16.649  1.3723 -1.5552  1.1589
 4607TIP3   OH235311   4.160   0.797   3.683 -0.1121  0.0524 -0.4183
 4607TIP3    H135312   4.081   0.846   3.659 -1.1852 -2.1102 -1.3969
 4607TIP3    H235313   4.211   0.794   3.602 -1.0361 -2.2337 -0.9493
 4608TIP3   OH235314   1.541   4.990  14.686 -0.4178 -0.3201 -0.2505
 4608TIP3    H135315   1.491   5.003  14.767  0.7826  0.9781  0.3168
 4608TIP3    H235316   1.479   4.950  14.625 -1.2383 -1.6747  1.4345
 4609TIP3   OH235317   5.252   3.683   6.133 -0.2491  0.2213  0.2186
 4609TIP3    H135318   5.209   3.619   6.189 -0.0171 -0.2110 -0.0960
 4609TIP3    H235319   5.185   3.749   6.115 -0.3904  0.2410  0.8108
 4610TIP3   OH235320   1.190   1.052   3.198 -0.1806 -0.4228  0.0109
 4610TIP3    H135321   1.132   1.124   3.174  2.2659  1.1003 -1.5714
 4610TIP3    H235322   1.229   1.024   3.115  0.3646 -2.2578  0.8728
 4611TIP3   OH235323   5.111   2.735  17.217 -0.6190 -0.3246  0.1028
 4611TIP3    H135324   5.179   2.796  17.245 -1.6330  0.1284  1.5962
 4611TIP3    H235325   5.043   2.790  17.178 -0.4607 -0.7241 -0.7712
 4612TIP3   OH235326   6.329   2.511  13.027 -0.5535 -0.2017  0.5302
 4612TIP3    H135327   6.412   2.518  12.980 -0.6199 -1.8958  0.1419
 4612TIP3    H235328   6.353   2.484  13.115 -0.5683  1.2205  0.9907
 4613TIP3   OH235329   6.292   4.291   1.379  1.1374  0.1836 -0.6671
 4613TIP3    H135330   6.307   4.343   1.300  0.3182  1.7067  0.1515
 4613TIP3    H235331   6.329   4.206   1.359  4.3430  1.6496 -1.3304
 4614TIP3   OH235332   5.598   1.334  16.585 -0.7432 -0.0531 -0.3077
 4614TIP3    H135333   5.687   1.301  16.575 -1.2614 -1.5157 -0.2430
 4614TIP3    H235334   5.590   1.403  16.520  1.2878  1.9366  1.4752
 4615TIP3   OH235335   6.481   0.410  16.023  0.6383 -0.0213  0.2858
 4615TIP3    H135336   6.409   0.452  16.070  0.4396  0.0662 -0.0905
 4615TIP3    H235337   6.521   0.480  15.972 -0.5902 -0.5301 -1.4633
 4616TIP3   OH235338   4.536   3.528   3.698 -0.8113 -0.1519  0.3595
 4616TIP3    H135339   4.630   3.542   3.683 -0.3402 -0.7365  2.6231
 4616TIP3    H235340   4.494   3.603   3.656  0.8355  1.3676  1.3421
 4617TIP3   OH235341   1.629   3.944  17.044  0.1666  0.5807  0.1440
 4617TIP3    H135342   1.704   3.885  17.052  0.3688  0.7690 -0.3611
 4617TIP3    H235343   1.556   3.888  17.019  0.0532  0.3406  0.9988
 4618TIP3   OH235344   6.367   1.078  17.049  0.3661 -0.0716 -0.0643
 4618TIP3    H135345   6.298   1.136  17.020  0.6440  0.8736  1.1493
 4618TIP3    H235346   6.446   1.133  17.051  0.4346 -0.2221  2.0393
 4619TIP3   OH235347   2.536   1.577  15.967  0.5634  0.0040 -0.1070
 4619TIP3    H135348   2.540   1.670  15.944 -2.4737  0.5767  1.4575
 4619TIP3    H235349   2.584   1.571  16.049 -2.2940  0.9160  1.7039
 4620TIP3   OH235350   4.647   2.976   1.265 -0.5649  0.4927 -0.2617
 4620TIP3    H135351   4.652   3.011   1.354  1.8938 -2.4694  0.8563
 4620TIP3    H235352   4.684   3.045   1.210 -0.6589  1.7425  1.2201
 4621TIP3   OH235353   3.918   0.280   6.014  0.6972  0.3532 -0.1150
 4621TIP3    H135354   3.983   0.212   6.003  0.7578  0.3858  0.0437
 4621TIP3    H235355   3.935   0.342   5.943 -0.1706 -0.4475 -1.0389
 4622TIP3   OH235356   5.655   6.245  16.449 -0.0228 -0.7623 -0.5089
 4622TIP3    H135357   5.673   6.238  16.542  2.2678  2.0440 -0.6655
 4622TIP3    H235358   5.628   6.336  16.437  1.0135 -0.7246 -2.7705
 4623TIP3   OH235359   2.703   2.860  12.211  0.5426 -0.0203  0.1623
 4623TIP3    H135360   2.690   2.952  12.187 -1.1840 -0.6664 -1.5490
 4623TIP3    H235361   2.792   2.840  12.183 -0.3174  0.1572 -2.8774
 4624TIP3   OH235362   5.274   1.322  13.797  0.4359  0.2441  0.8079
 4624TIP3    H135363   5.277   1.265  13.875 -0.8855  1.1202  1.5174
 4624TIP3    H235364   5.201   1.382  13.814 -0.5954 -0.2620 -1.6092
 4625TIP3   OH235365   2.712   4.144   2.453  0.0148 -0.2173 -0.3202
 4625TIP3    H135366   2.805   4.160   2.441 -0.2476  2.4138  0.7431
 4625TIP3    H235367   2.674   4.153   2.366  0.3533  1.8103 -0.2658
 4626TIP3   OH235368   0.089   5.762  12.202  0.3598  0.1557 -0.2391
 4626TIP3    H135369   0.022   5.795  12.142  0.1885  1.0090  0.3966
 4626TIP3    H235370   0.151   5.715  12.147  0.0004  0.6052 -1.0334
 4627TIP3   OH235371   0.800   3.038  12.141 -0.8958  0.7918 -0.2159
 4627TIP3    H135372   0.867   3.102  12.164 -1.3204  1.2692 -0.3131
 4627TIP3    H235373   0.827   3.005  12.055 -1.3688  1.7753 -0.7497
 4628TIP3   OH235374   6.301   4.493  15.373 -0.1179 -0.4377  0.2492
 4628TIP3    H135375   6.246   4.447  15.437  0.3001 -0.6900  0.4284
 4628TIP3    H235376   6.361   4.544  15.427 -0.9323  0.7523  0.0573
 4629TIP3   OH235377   3.448   2.785   4.308 -0.7523  0.0627  0.0415
 4629TIP3    H135378   3.417   2.711   4.256  0.8663  0.9794 -2.3143
 4629TIP3    H235379   3.369   2.818   4.351 -1.8072 -1.8873 -0.3229
 4630TIP3   OH235380   4.084   5.886   5.300 -0.9653  0.1023  0.1441
 4630TIP3    H135381   4.004   5.935   5.317 -0.7622  2.5092 -5.0238
 4630TIP3    H235382   4.054   5.801   5.266 -1.3007  0.1302  0.3689
 4631TIP3   OH235383   0.465   4.832  11.209  0.1489 -0.2282 -0.1677
 4631TIP3    H135384   0.485   4.925  11.196  2.5093 -0.3810  2.1910
 4631TIP3    H235385   0.499   4.789  11.130  1.1308  0.6081 -0.1999
 4632TIP3   OH235386   0.235   3.007   0.742 -0.1618  0.1210 -0.4487
 4632TIP3    H135387   0.219   3.087   0.692 -1.6017  0.1793  0.0903
 4632TIP3    H235388   0.317   3.024   0.789 -1.9853  2.4976  2.0356
 4633TIP3   OH235389   1.848   3.047  15.833 -0.1381 -0.3663  0.2229
 4633TIP3    H135390   1.857   3.021  15.925 -1.6879 -1.2588  0.1345
 4633TIP3    H235391   1.879   2.971  15.784  0.4636  0.0206  0.0042
 4634TIP3   OH235392   5.997   5.356  12.613 -0.4637 -0.2740 -0.6595
 4634TIP3    H135393   6.042   5.343  12.530 -0.0283  0.6323 -0.5671
 4634TIP3    H235394   5.963   5.269  12.636 -0.9797 -0.4290 -2.0029
 4635TIP3   OH235395   4.257   4.040   1.581 -0.0767 -0.0804 -0.5222
 4635TIP3    H135396   4.184   4.089   1.544  0.4018 -0.0748 -1.4808
 4635TIP3    H235397   4.247   3.952   1.546  0.1912 -0.1615 -0.4000
 4636TIP3   OH235398   2.247   3.353  14.347 -0.3714 -0.4439  0.8542
 4636TIP3    H135399   2.267   3.260  14.350 -1.1395 -0.6826 -0.9187
 4636TIP3    H235400   2.272   3.380  14.258 -1.6317  0.6904  0.8272
 4637TIP3   OH235401   3.324   5.687  13.379 -0.2482 -0.0466 -0.3444
 4637TIP3    H135402   3.283   5.605  13.406 -1.2889  0.1644 -1.2341
 4637TIP3    H235403   3.271   5.717  13.305  0.7707  0.8783 -0.7136
 4638TIP3   OH235404   5.925   4.574  12.468  0.0925 -0.1551  0.4230
 4638TIP3    H135405   5.907   4.527  12.549  1.1692  1.8186  1.8527
 4638TIP3    H235406   5.960   4.507  12.409  1.6701 -1.1563  2.4228
 4639TIP3   OH235407   2.350   1.439  15.811  0.4259  0.0165  0.0073
 4639TIP3    H135408   2.419   1.491  15.853 -0.6709  1.0268  0.6097
 4639TIP3    H235409   2.346   1.358  15.863  0.8923  0.1280  0.2161
 4640TIP3   OH235410   6.068   3.206  16.786 -0.4513  0.5827  0.1474
 4640TIP3    H135411   5.986   3.163  16.763 -0.5966  1.2935 -0.7021
 4640TIP3    H235412   6.134   3.164  16.731 -0.0796 -0.6142  1.4783
 4641TIP3   OH235413   1.512   1.866  13.637  0.3339  0.6622 -0.2339
 4641TIP3    H135414   1.579   1.801  13.616 -0.1690 -0.0796  0.4115
 4641TIP3    H235415   1.481   1.897  13.552 -2.5979 -3.2218 -0.7325
 4642TIP3   OH235416   5.052   5.023   4.318  0.0397  0.3663  0.5180
 4642TIP3    H135417   5.038   4.957   4.386  0.2456  0.1214  0.3213
 4642TIP3    H235418   5.103   4.978   4.251  1.3605  1.1213  1.0002
 4643TIP3   OH235419   2.004   5.947  15.793  0.2279 -0.3732  0.2287
 4643TIP3    H135420   1.928   6.005  15.788  0.1076 -0.2721  2.5525
 4643TIP3    H235421   1.977   5.868  15.745 -0.4858  0.5707 -0.9286
 4644TIP3   OH235422   5.117   0.306   6.066 -0.1219 -0.7617 -0.1411
 4644TIP3    H135423   5.093   0.346   6.150  3.1366  1.5366 -0.2330
 4644TIP3    H235424   5.034   0.299   6.018 -1.3694  2.1404  1.5004
 4645TIP3   OH235425   0.858   6.684  12.589 -0.1566 -0.2642 -0.3238
 4645TIP3    H135426   0.929   6.741  12.557  1.9779 -1.1824  2.5345
 4645TIP3    H235427   0.800   6.674  12.515  0.9110  3.3514 -1.7544
 4646TIP3   OH235428   5.098   2.680  11.879  0.2071  0.4140  0.8949
 4646TIP3    H135429   5.082   2.727  11.797 -0.2967 -0.6273  0.3865
 4646TIP3    H235430   5.013   2.647  11.905  0.4967  0.0998  1.4454
 4647TIP3   OH235431   1.016   5.750   5.677 -0.2058 -0.4624 -0.5722
 4647TIP3    H135432   1.100   5.795   5.691 -0.4356 -0.6194  1.4082
 4647TIP3    H235433   0.967   5.809   5.619  0.6545  0.4152 -0.4228
 4648TIP3   OH235434   4.981   1.474   0.485 -0.2780 -0.4412  0.4788
 4648TIP3    H135435   4.921   1.548   0.493  0.2001  0.0296 -0.2591
 4648TIP3    H235436   4.991   1.441   0.575  0.2025  0.9465  0.9422
 4649TIP3   OH235437   4.038   5.151  16.329  0.0232  0.3262  0.4412
 4649TIP3    H135438   4.040   5.233  16.281  0.2099  1.0974  1.7376
 4649TIP3    H235439   4.119   5.151  16.381 -0.2136 -0.4384  0.8201
 4650TIP3   OH235440   0.497   4.659  12.285 -0.2601 -0.4192 -0.3600
 4650TIP3    H135441   0.558   4.706  12.342 -3.0307  3.3601 -0.2911
 4650TIP3    H235442   0.462   4.590  12.341  2.0389 -1.0271  0.3753
 4651TIP3   OH235443   3.241   0.970   2.122  0.3763  0.3355  0.0253
 4651TIP3    H135444   3.335   0.983   2.136 -0.0757  0.1833  3.8600
 4651TIP3    H235445   3.233   0.877   2.098  1.1653  0.1166  0.5790
 4652TIP3   OH235446   0.509   3.900   2.850  0.2176 -0.7657  0.0288
 4652TIP3    H135447   0.572   3.838   2.813 -0.8844 -2.0908  0.3434
 4652TIP3    H235448   0.481   3.860   2.932  0.1821  0.5991  0.7070
 4653TIP3   OH235449   1.033   4.471  15.662  0.0465  0.3046 -0.7637
 4653TIP3    H135450   1.069   4.485  15.575  1.6502  0.0034 -0.1648
 4653TIP3    H235451   1.105   4.491  15.722 -0.1334 -2.2520  0.3905
 4654TIP3   OH235452   5.911   4.541   0.277 -0.4838 -0.2369  0.0087
 4654TIP3    H135453   5.856   4.583   0.210  0.6736  0.2501 -0.6576
 4654TIP3    H235454   5.988   4.512   0.229  0.1778 -0.2466  1.0647
 4655TIP3   OH235455   6.386   3.860  17.030 -0.0525  0.1849 -0.0250
 4655TIP3    H135456   6.467   3.889  17.073  0.4827  0.0290 -0.9125
 4655TIP3    H235457   6.411   3.845  16.939 -1.2302  0.7827 -0.4716
 4656TIP3   OH235458   6.005   2.797   1.507  0.5685  0.2983 -1.0831
 4656TIP3    H135459   6.080   2.799   1.447  0.9652 -0.6795 -0.6308
 4656TIP3    H235460   5.935   2.756   1.456  0.5138  0.6658 -1.3064
 4657TIP3   OH235461   5.762   2.539  12.345  0.0930  0.2419  0.2757
 4657TIP3    H135462   5.672   2.538  12.377 -0.1948  0.4360 -0.5202
 4657TIP3    H235463   5.770   2.459  12.293  0.1766  0.5794 -0.2273
 4658TIP3   OH235464   0.414   0.843   1.527 -0.0853  0.2406 -0.2743
 4658TIP3    H135465   0.406   0.875   1.437 -2.3902 -0.1832 -0.2512
 4658TIP3    H235466   0.372   0.911   1.581  0.9114  0.2987  0.4344
 4659TIP3   OH235467   5.450   4.057  16.994 -0.0987  0.1030  0.0809
 4659TIP3    H135468   5.513   4.115  16.952 -1.5010  0.9665 -0.8609
 4659TIP3    H235469   5.367   4.105  16.991 -0.0729  0.7962  4.9473
 4660TIP3   OH235470   2.810   5.878   4.040  0.4279 -0.0685  0.5589
 4660TIP3    H135471   2.774   5.938   3.975  1.4616 -0.3364 -0.2892
 4660TIP3    H235472   2.869   5.932   4.093  0.5950 -0.1232  0.4298
 4661TIP3   OH235473   3.198   5.325   4.632  0.1775 -0.1280 -0.0380
 4661TIP3    H135474   3.195   5.323   4.536 -1.8058  0.1472  0.0157
 4661TIP3    H235475   3.223   5.415   4.654 -2.2062  0.6014 -0.2384
 4662TIP3   OH235476   5.907   1.978   5.683 -0.0903  0.1550 -0.1943
 4662TIP3    H135477   5.937   1.891   5.655  0.8554  0.0924  1.0122
 4662TIP3    H235478   5.891   2.025   5.601  0.2966 -0.8483 -0.8530
 4663TIP3   OH235479   0.778   1.203   2.514 -0.2979 -0.0601 -0.7467
 4663TIP3    H135480   0.740   1.271   2.458  0.9414  0.2815 -1.1889
 4663TIP3    H235481   0.858   1.177   2.470 -0.9746 -2.1643 -0.8294
 4664TIP3   OH235482   1.090   3.533  14.301  0.1903 -0.0177 -0.4128
 4664TIP3    H135483   1.029   3.462  14.279  0.4386  0.4290 -2.7283
 4664TIP3    H235484   1.160   3.525  14.236 -1.1302  3.9757 -2.5427
 4665TIP3   OH235485   4.590   4.647  10.717  0.2415  0.1725 -0.2841
 4665TIP3    H135486   4.601   4.608  10.631 -0.1446 -0.0546 -0.2311
 4665TIP3    H235487   4.675   4.636  10.760  0.1422 -0.5898 -0.2747
 4666TIP3   OH235488   0.091   5.083   3.296 -0.3729 -0.0560  0.6592
 4666TIP3    H135489   0.045   5.158   3.256  0.4489  0.4283  0.6133
 4666TIP3    H235490   0.132   5.120   3.374  0.0861 -0.4509  0.6020
 4667TIP3   OH235491   2.016   2.239  15.323  0.4594  0.1605 -0.1659
 4667TIP3    H135492   2.016   2.334  15.320 -0.7842  0.2087  1.0170
 4667TIP3    H235493   1.939   2.216  15.376  0.4904 -1.5050 -0.8015
 4668TIP3   OH235494   1.382   5.473  15.972 -0.6447  0.3195 -0.2248
 4668TIP3    H135495   1.331   5.541  16.017 -1.0873 -0.1554 -0.0098
 4668TIP3    H235496   1.327   5.395  15.976  0.0903 -0.1947 -0.0029
 4669TIP3   OH235497   2.991   1.336  14.646  0.0929 -0.3721  0.2223
 4669TIP3    H135498   2.940   1.373  14.717  1.1862  1.9449 -0.1369
 4669TIP3    H235499   2.926   1.304  14.583 -0.8736 -0.4358  1.2437
 4670TIP3   OH235500   2.810   1.661   3.408 -0.7891  0.2569  0.5168
 4670TIP3    H135501   2.839   1.698   3.492 -4.6900  0.7484  1.7662
 4670TIP3    H235502   2.811   1.566   3.422  1.5962  0.1676 -0.0104
 4671TIP3   OH235503   3.758   0.389   1.062  0.2675 -0.2533  0.3051
 4671TIP3    H135504   3.852   0.376   1.073 -0.1966 -2.1340  2.3764
 4671TIP3    H235505   3.733   0.330   0.990  0.5845 -0.1578  0.1195
 4672TIP3   OH235506   1.046   2.358   5.997 -0.6520 -0.7586  0.1015
 4672TIP3    H135507   1.089   2.437   6.030 -0.5770 -0.3032 -1.0437
 4672TIP3    H235508   1.095   2.286   6.035  0.1730 -0.2386  0.0292
 4673TIP3   OH235509   1.716   5.232  16.373  0.3158 -0.4578 -0.4089
 4673TIP3    H135510   1.744   5.189  16.453  0.1965  0.8846  0.3684
 4673TIP3    H235511   1.623   5.212  16.365  0.1859 -0.0678  0.1288
 4674TIP3   OH235512   6.079   0.308   5.105  0.0384  0.0138  0.2995
 4674TIP3    H135513   5.993   0.318   5.065  0.0026  0.7663  0.5554
 4674TIP3    H235514   6.141   0.319   5.033 -0.1083 -1.4952 -0.0553
 4675TIP3   OH235515   3.401   3.505   5.882  0.3308 -0.4035  0.2987
 4675TIP3    H135516   3.456   3.481   5.956 -0.9827  0.7349  1.6633
 4675TIP3    H235517   3.367   3.421   5.850 -0.5825 -0.7619  2.1464
 4676TIP3   OH235518   0.813   1.730  15.170  0.4437 -0.5765  0.3765
 4676TIP3    H135519   0.898   1.739  15.127  0.6367  0.5830  0.9932
 4676TIP3    H235520   0.832   1.681  15.250  0.7035  0.5813  1.0289
 4677TIP3   OH235521   3.849   6.162   1.358 -0.3527 -0.1342  0.0693
 4677TIP3    H135522   3.817   6.189   1.272 -1.5944 -0.6903  0.3365
 4677TIP3    H235523   3.886   6.241   1.396  0.7741 -0.0145 -1.2081
 4678TIP3   OH235524   1.382   0.718   1.044 -0.5263 -0.4599  0.3457
 4678TIP3    H135525   1.390   0.684   1.133 -2.5385  1.5160  1.3489
 4678TIP3    H235526   1.455   0.779   1.035 -0.2430 -0.7606  0.6147
 4679TIP3   OH235527   4.545   2.052   1.344 -0.0619 -0.2200 -0.3683
 4679TIP3    H135528   4.494   2.125   1.380 -0.4264  0.3474 -2.0040
 4679TIP3    H235529   4.623   2.093   1.306 -0.6064 -0.6007 -1.9129
 4680TIP3   OH235530   1.273   4.631  11.028 -0.8769 -0.0086 -0.3186
 4680TIP3    H135531   1.231   4.696  10.971 -1.2499  0.0693  0.0396
 4680TIP3    H235532   1.344   4.596  10.976  0.8601  2.4371  0.3248
 4681TIP3   OH235533   3.862   5.835  16.089 -0.6725 -0.1331  0.5287
 4681TIP3    H135534   3.889   5.925  16.075 -2.3927 -0.0965 -3.1492
 4681TIP3    H235535   3.936   5.782  16.059 -0.5823  0.0161  0.4943
 4682TIP3   OH235536   6.378   5.035   3.047  0.3932 -0.4694  0.5449
 4682TIP3    H135537   6.314   5.099   3.015  0.7321  0.2785  1.3548
 4682TIP3    H235538   6.325   4.967   3.090  0.2389  1.2471  3.1662
 4683TIP3   OH235539   5.756   1.210   0.393 -0.1137 -0.1767  0.0014
 4683TIP3    H135540   5.757   1.120   0.359 -1.2626 -0.1898  0.0076
 4683TIP3    H235541   5.688   1.210   0.460 -0.3793  0.7999 -0.2644
 4684TIP3   OH235542   3.514   0.272   0.645  0.5115  0.1472 -0.0154
 4684TIP3    H135543   3.578   0.298   0.579 -0.4942  0.6189 -0.8328
 4684TIP3    H235544   3.527   0.334   0.717  1.4722 -0.2349  0.1479
 4685TIP3   OH235545   3.101   4.686  16.487 -0.1882  0.0159 -0.0432
 4685TIP3    H135546   3.039   4.758  16.475  0.0396  0.0723 -0.9385
 4685TIP3    H235547   3.176   4.710  16.433  1.2658  0.6804  2.2110
 4686TIP3   OH235548   5.530   6.703  13.096  0.0427 -0.0787  0.0731
 4686TIP3    H135549   5.498   6.623  13.138  2.1281 -0.1823  1.5736
 4686TIP3    H235550   5.452   6.755  13.079 -0.8917  0.1013  4.4333
 4687TIP3   OH235551   5.644   2.951  16.611 -0.9424 -0.3851 -0.6919
 4687TIP3    H135552   5.590   2.917  16.682 -0.9118 -2.6233 -1.6862
 4687TIP3    H235553   5.643   3.046  16.622 -1.4650 -0.6749  1.8964
 4688TIP3   OH235554   4.462   3.056  11.823 -0.6007  0.6615 -0.3758
 4688TIP3    H135555   4.393   3.113  11.790 -2.3101 -1.1325 -0.0196
 4688TIP3    H235556   4.415   2.982  11.863  1.5053 -0.0800  0.8278
 4689TIP3   OH235557   2.629   3.240  11.038  0.5548  0.4191  0.2370
 4689TIP3    H135558   2.703   3.179  11.036  0.5466  0.3273  1.8641
 4689TIP3    H235559   2.656   3.309  11.099 -0.2348  1.0013 -0.0548
 4690TIP3   OH235560   3.051   0.721   0.341  0.1617 -0.1175  0.1721
 4690TIP3    H135561   3.072   0.663   0.269  0.1189  0.1200 -0.0320
 4690TIP3    H235562   3.131   0.770   0.358 -0.7818  2.3341 -2.0256
 4691TIP3   OH235563   1.038   2.851  11.976  0.1180 -0.1778 -0.1882
 4691TIP3    H135564   1.066   2.808  12.057  0.2124  0.1337 -0.0562
 4691TIP3    H235565   1.059   2.788  11.907  1.7833  0.3180 -0.1604
 4692TIP3   OH235566   4.483   1.495  13.069 -0.1150  0.5635  0.0722
 4692TIP3    H135567   4.517   1.578  13.038 -2.2394  1.4254 -0.0485
 4692TIP3    H235568   4.516   1.488  13.159 -1.1225  2.2582  0.6030
 4693TIP3   OH235569   3.789   4.250  13.006 -0.3202 -0.0729 -1.2473
 4693TIP3    H135570   3.765   4.215  13.092 -1.1798 -0.6875 -1.7338
 4693TIP3    H235571   3.713   4.302  12.979 -0.2971 -0.3731 -1.9021
 4694TIP3   OH235572   3.787   1.294   4.083  0.3490 -0.2649 -0.2612
 4694TIP3    H135573   3.705   1.245   4.081 -0.3113  0.8591 -2.5094
 4694TIP3    H235574   3.801   1.314   4.175 -1.2663 -1.5040  0.2834
 4695TIP3   OH235575   1.686   4.724  16.444  0.0117  0.4633  0.1767
 4695TIP3    H135576   1.698   4.712  16.350 -1.8034 -0.4121  0.0330
 4695TIP3    H235577   1.695   4.818  16.458 -0.4264  0.6855 -0.9734
 4696TIP3   OH235578   1.028   6.103   0.481 -0.4758 -0.0133 -0.0628
 4696TIP3    H135579   1.069   6.017   0.486 -0.1179  0.2120  1.1641
 4696TIP3    H235580   0.936   6.085   0.467 -0.3538 -0.5935 -0.1229
 4697TIP3   OH235581   3.894   0.199  17.003 -0.5658 -0.2339 -0.3445
 4697TIP3    H135582   3.917   0.291  16.994  1.0518 -0.5525  0.3047
 4697TIP3    H235583   3.964   0.162  17.057 -0.9922 -1.9213 -0.9118
 4698TIP3   OH235584   2.976   5.390   3.432  0.2416 -0.4421 -0.1435
 4698TIP3    H135585   3.050   5.355   3.383  0.1080 -0.6685 -0.1839
 4698TIP3    H235586   2.918   5.425   3.365  0.6790  0.4525 -0.0647
 4699TIP3   OH235587   5.608   1.085   5.679 -0.8081  0.1704  0.0353
 4699TIP3    H135588   5.666   1.119   5.747 -0.0655  1.5874 -1.2715
 4699TIP3    H235589   5.667   1.063   5.606 -1.7205 -0.1238 -0.6248
 4700TIP3   OH235590   1.070   4.008   1.736  0.3878 -0.2781  0.4009
 4700TIP3    H135591   1.011   4.061   1.789 -1.3463 -0.2946 -1.4715
 4700TIP3    H235592   1.115   4.070   1.679 -1.1196 -0.6802 -1.2883
 4701TIP3   OH235593   4.983   0.081  12.119 -0.3141 -0.7265  0.4009
 4701TIP3    H135594   5.061   0.129  12.090  1.3276 -3.0057  0.9455
 4701TIP3    H235595   5.001  -0.010  12.096 -2.5717 -1.3803  1.1092
 4702TIP3   OH235596   0.610   0.371  12.315 -0.3070  0.3990  0.2278
 4702TIP3    H135597   0.701   0.371  12.288 -0.7263  1.1686 -1.1899
 4702TIP3    H235598   0.576   0.286  12.288 -0.6419  1.0446 -1.4039
 4703TIP3   OH235599   3.728   0.923   6.200 -0.0801 -0.7919 -0.2868
 4703TIP3    H135600   3.747   0.846   6.147  1.0825  0.1647 -1.2780
 4703TIP3    H235601   3.788   0.991   6.168  1.8535 -0.6612  3.3313
 4704TIP3   OH235602   1.520   6.470   1.715 -0.3252  0.8982  0.0186
 4704TIP3    H135603   1.475   6.430   1.641  1.3765  0.0094 -0.5778
 4704TIP3    H235604   1.548   6.555   1.683 -1.0719  1.2104  0.1967
 4705TIP3   OH235605   0.316   6.204   0.507  0.7181  0.0767 -0.0043
 4705TIP3    H135606   0.363   6.276   0.465 -1.2451  0.5710 -1.4265
 4705TIP3    H235607   0.268   6.162   0.435 -0.2697 -0.9808  1.2519
 4706TIP3   OH235608   4.747   3.591   2.595 -0.2918 -0.3650  0.0481
 4706TIP3    H135609   4.715   3.544   2.518 -0.7603  1.0897 -0.6580
 4706TIP3    H235610   4.735   3.530   2.667  1.2766 -2.2185 -1.2014
 4707TIP3   OH235611   0.003   3.651   5.211  0.1866 -0.0264  0.5502
 4707TIP3    H135612  -0.011   3.700   5.293 -0.1999 -0.3006  0.6508
 4707TIP3    H235613   0.030   3.564   5.240  1.3017  0.2579  0.3635
 4708TIP3   OH235614   3.076   3.352  16.172  0.1209 -0.1729 -0.6275
 4708TIP3    H135615   3.164   3.339  16.139  1.1757  1.4567  1.4433
 4708TIP3    H235616   3.053   3.441  16.147 -0.9838 -0.6009 -1.2074
 4709TIP3   OH235617   5.961   6.809  12.829  0.2390 -0.1165  0.3979
 4709TIP3    H135618   6.031   6.873  12.840  0.1914  0.1158 -0.6272
 4709TIP3    H235619   5.880   6.861  12.831  0.1762 -0.1971  0.0570
 4710TIP3   OH235620   1.269   0.488   1.692  0.3423 -0.3550 -0.0691
 4710TIP3    H135621   1.193   0.516   1.742  0.6111  1.5326 -0.6552
 4710TIP3    H235622   1.343   0.498   1.753  0.3825 -0.1413 -0.1502
 4711TIP3   OH235623   6.428   3.230   3.537 -0.1895  0.2162 -0.2740
 4711TIP3    H135624   6.405   3.281   3.615 -0.4941  0.4568 -0.5159
 4711TIP3    H235625   6.368   3.155   3.539  0.1674 -0.0673  0.0095
 4712TIP3   OH235626   3.780   6.268   1.083  0.2310  0.5470 -0.2809
 4712TIP3    H135627   3.727   6.208   1.031  0.9749 -1.0765  0.7790
 4712TIP3    H235628   3.848   6.298   1.023 -0.8269  1.2583 -1.1454
 4713TIP3   OH235629   3.130   0.302   4.423 -0.3551  0.3175 -0.1229
 4713TIP3    H135630   3.079   0.224   4.401  0.3317 -0.8752  2.3474
 4713TIP3    H235631   3.078   0.375   4.388 -1.9577 -1.0944 -0.7701
 4714TIP3   OH235632   0.833   4.947  13.912 -0.2388  0.1954 -0.0800
 4714TIP3    H135633   0.925   4.937  13.888 -0.1377  2.4951 -0.7627
 4714TIP3    H235634   0.788   4.875  13.867  1.0178 -0.0433 -0.9653
 4715TIP3   OH235635   1.614   4.017  16.070  0.1911 -0.1498  0.2771
 4715TIP3    H135636   1.612   3.937  16.017  0.5918  0.3321 -0.4811
 4715TIP3    H235637   1.704   4.022  16.102 -0.0341 -0.4022  0.9499
 4716TIP3   OH235638   5.404   2.153  14.690  0.0176  0.1101 -0.1811
 4716TIP3    H135639   5.459   2.213  14.740 -0.4292  0.2905  0.0992
 4716TIP3    H235640   5.414   2.068  14.734 -0.4979  0.3031  0.3133
 4717TIP3   OH235641   2.713   4.762   1.814  0.1967  0.5647  0.2006
 4717TIP3    H135642   2.790   4.721   1.855  1.4902  1.6274 -1.1058
 4717TIP3    H235643   2.641   4.742   1.874  1.4816 -0.4465  1.4677
 4718TIP3   OH235644   3.658   0.361   4.811  0.0717 -0.6013  0.2326
 4718TIP3    H135645   3.751   0.380   4.798  0.1503  0.2651  1.9331
 4718TIP3    H235646   3.628   0.429   4.872 -1.9370 -0.1930 -1.1505
 4719TIP3   OH235647   3.575   4.659   4.613  0.3859 -0.7586  0.0593
 4719TIP3    H135648   3.490   4.703   4.611 -0.2485 -1.9736 -0.1136
 4719TIP3    H235649   3.632   4.721   4.658 -0.7510 -0.2104  0.7965
 4720TIP3   OH235650   1.098   5.788  11.653 -0.7111  0.2364  0.5755
 4720TIP3    H135651   1.183   5.833  11.646 -0.7364  0.5505  2.1098
 4720TIP3    H235652   1.047   5.821  11.579 -0.0759  1.3255  0.6122
 4721TIP3   OH235653   5.834   2.201   0.061  0.1258 -0.1950  0.2742
 4721TIP3    H135654   5.757   2.176   0.112  0.5793  0.4841  1.3021
 4721TIP3    H235655   5.872   2.274   0.109  0.0651  1.0523 -1.5129
 4722TIP3   OH235656   3.945   0.477  16.964 -0.2145  0.3944  0.1609
 4722TIP3    H135657   4.030   0.482  16.922 -0.7002  0.4591 -0.8401
 4722TIP3    H235658   3.915   0.568  16.968 -0.8750  0.2275 -0.8474
 4723TIP3   OH235659   6.212   0.592   1.505 -0.2820  0.2276  0.3765
 4723TIP3    H135660   6.241   0.599   1.596  0.7295  0.7341  0.0185
 4723TIP3    H235661   6.134   0.536   1.510  0.8116 -1.2702  1.3435
 4724TIP3   OH235662   4.164   3.188   1.854 -0.6127  0.4278 -0.4438
 4724TIP3    H135663   4.183   3.116   1.794  0.2638  0.7163 -0.5139
 4724TIP3    H235664   4.110   3.248   1.803 -0.3289  0.4085 -0.7651
 4725TIP3   OH235665   3.961   6.794   1.286  0.0084  0.9301 -0.2544
 4725TIP3    H135666   3.879   6.779   1.334 -0.3880 -0.0404 -1.2254
 4725TIP3    H235667   3.938   6.779   1.195  1.4315 -0.0243 -0.4651
 4726TIP3   OH235668   0.004   3.157  14.168 -0.2355 -0.7753 -0.1542
 4726TIP3    H135669   0.008   3.066  14.197 -0.2643 -0.1149  1.9741
 4726TIP3    H235670  -0.041   3.152  14.084  2.3556 -3.0273 -1.5255
 4727TIP3   OH235671   6.434   3.575  15.597 -0.3328  0.0908  0.4793
 4727TIP3    H135672   6.524   3.554  15.572 -0.0291  1.2061  0.6171
 4727TIP3    H235673   6.429   3.553  15.690 -1.2427 -3.3307 -0.2942
 4728TIP3   OH235674   1.503   5.121   4.790 -0.3797  0.5164  0.4395
 4728TIP3    H135675   1.587   5.104   4.749  0.2814 -0.2324  2.0717
 4728TIP3    H235676   1.444   5.056   4.752  0.4310 -0.7432  1.3127
 4729TIP3   OH235677   1.753   0.307  12.623  0.0988 -0.0930  0.3538
 4729TIP3    H135678   1.837   0.289  12.581  2.5189  3.4867  3.2980
 4729TIP3    H235679   1.715   0.378  12.571  1.7613  2.3671  2.3802
 4730TIP3   OH235680   1.469   2.291   1.279  0.5049 -0.3594 -0.3205
 4730TIP3    H135681   1.407   2.304   1.351  0.4549 -2.0422 -0.0401
 4730TIP3    H235682   1.436   2.347   1.209  0.3481  1.0251  0.8346
 4731TIP3   OH235683   2.310   0.883   2.254 -0.3519 -0.1928  0.2195
 4731TIP3    H135684   2.382   0.940   2.226 -2.0709  1.3931 -1.0853
 4731TIP3    H235685   2.317   0.806   2.198  0.3476 -0.0408  0.0949
 4732TIP3   OH235686   1.699   4.863   6.004 -0.2819  0.6770 -0.4834
 4732TIP3    H135687   1.628   4.870   6.068 -0.4782  3.1493 -0.9071
 4732TIP3    H235688   1.655   4.862   5.919  0.0222 -1.6766 -0.6391
 4733TIP3   OH235689   6.041   5.400  14.322  0.3631 -0.3442  0.0171
 4733TIP3    H135690   6.091   5.319  14.323 -0.1150 -0.6439  0.7869
 4733TIP3    H235691   5.956   5.376  14.284 -0.5283 -0.7001  2.1156
 4734TIP3   OH235692   1.891   0.908   2.302 -0.3770  0.1908  0.9825
 4734TIP3    H135693   1.957   0.937   2.239 -1.5099  2.9631  1.0002
 4734TIP3    H235694   1.913   0.954   2.383 -0.7283 -1.0091  1.7791
 4735TIP3   OH235695   6.454   4.639  12.751  0.3392  1.0679 -0.0483
 4735TIP3    H135696   6.371   4.676  12.723  1.0447  1.3346 -1.8962
 4735TIP3    H235697   6.432   4.579  12.822 -1.5026  0.5874 -1.0069
 4736TIP3   OH235698   6.697   2.473   5.699 -0.0423 -0.7860  0.3092
 4736TIP3    H135699   6.675   2.547   5.642  0.0494 -0.2237  0.9982
 4736TIP3    H235700   6.669   2.396   5.649 -0.0590 -0.2976 -0.4512
 4737TIP3   OH235701   2.059   1.441  13.735 -0.1427  0.1640  0.2767
 4737TIP3    H135702   2.100   1.378  13.677  0.0880  0.9961 -0.4670
 4737TIP3    H235703   1.966   1.436  13.714 -0.0812  0.3335 -0.0379
 4738TIP3   OH235704   5.171   5.345   5.605 -0.3153 -0.0623  0.0594
 4738TIP3    H135705   5.266   5.347   5.589 -0.4536 -0.1583 -0.8110
 4738TIP3    H235706   5.145   5.257   5.580 -1.1502  0.9326 -2.8595
 4739TIP3   OH235707   6.324   3.387   0.893 -0.0380 -0.4943  0.8186
 4739TIP3    H135708   6.414   3.369   0.920  0.0036 -0.0699  0.9792
 4739TIP3    H235709   6.332   3.462   0.834 -0.1841 -1.1046  0.0230
 4740TIP3   OH235710   4.739   4.106   2.196 -0.3535 -0.1721 -0.1003
 4740TIP3    H135711   4.666   4.167   2.204  0.0135  0.1810  0.6417
 4740TIP3    H235712   4.817   4.160   2.207 -0.0307 -0.8047  0.7791
 4741TIP3   OH235713   4.882   1.849   2.732 -0.2330 -0.0690  0.1212
 4741TIP3    H135714   4.899   1.755   2.735  0.2779 -0.0499 -1.5734
 4741TIP3    H235715   4.805   1.858   2.676  0.8220  0.6268 -1.2584
 4742TIP3   OH235716   1.180   1.394  15.804  0.0300  0.3195 -0.0657
 4742TIP3    H135717   1.272   1.367  15.798 -0.1264 -0.9914  2.8057
 4742TIP3    H235718   1.130   1.317  15.779 -0.3143  0.5592 -0.1253
 4743TIP3   OH235719   0.053   3.362   1.042  0.2173 -0.0680  0.0919
 4743TIP3    H135720   0.076   3.433   0.981  3.3799 -1.3158 -0.2719
 4743TIP3    H235721   0.065   3.399   1.129 -0.7486  0.6313 -0.0703
 4744TIP3   OH235722   1.659   1.426  15.482 -0.1227  0.4196  0.4686
 4744TIP3    H135723   1.663   1.341  15.526  1.6820  0.2822  0.0934
 4744TIP3    H235724   1.751   1.450  15.468 -0.6285  1.5615 -1.0711
 4745TIP3   OH235725   3.301   3.772  15.845 -0.1053  0.0109  0.2722
 4745TIP3    H135726   3.238   3.844  15.837 -1.4901 -0.9613  2.0173
 4745TIP3    H235727   3.257   3.698  15.803  2.1134  0.5975 -3.2661
 4746TIP3   OH235728   0.464   2.071   5.262 -0.4049  0.4453 -0.4109
 4746TIP3    H135729   0.522   2.006   5.222 -0.7438 -0.2852  0.2863
 4746TIP3    H235730   0.406   2.098   5.191  0.4271  0.7864 -0.9771
 4747TIP3   OH235731   2.420   4.847  12.793  0.9476  0.0829  0.4024
 4747TIP3    H135732   2.450   4.920  12.847  1.2639  1.9378 -2.1855
 4747TIP3    H235733   2.326   4.840  12.811  0.9348  1.0694  0.7357
 4748TIP3   OH235734   2.583   0.840  11.416 -0.8828  0.0035 -0.1314
 4748TIP3    H135735   2.617   0.822  11.328 -0.4045  2.9915 -0.5950
 4748TIP3    H235736   2.622   0.772  11.471  1.9498  0.4192 -1.5535
 4749TIP3   OH235737   0.850   3.612   3.360  0.1655 -0.1703 -0.2536
 4749TIP3    H135738   0.896   3.695   3.347 -1.4496  0.7858  0.1243
 4749TIP3    H235739   0.772   3.619   3.305  0.2251 -1.6206 -0.5397
 4750TIP3   OH235740   0.151   0.419   2.391 -0.0549  0.2673  0.0095
 4750TIP3    H135741   0.127   0.336   2.349 -0.4629  1.1847 -1.6148
 4750TIP3    H235742   0.076   0.440   2.447 -0.9846  0.6673 -1.3340
 4751TIP3   OH235743   3.810   6.263   5.509  0.1377 -0.0402  0.9074
 4751TIP3    H135744   3.895   6.234   5.476  0.2716  0.9930  0.3353
 4751TIP3    H235745   3.746   6.210   5.461  0.4786 -1.9388  2.4540
 4752TIP3   OH235746   2.458   0.801   4.190  0.9993 -0.1737  0.0793
 4752TIP3    H135747   2.528   0.822   4.128 -0.6870  3.7403 -0.6399
 4752TIP3    H235748   2.499   0.811   4.276  1.5706  1.4137 -0.3444
 4753TIP3   OH235749   4.543   0.358   4.992 -0.1508  0.6651 -0.1317
 4753TIP3    H135750   4.598   0.324   5.063  2.4885  0.9101 -1.9979
 4753TIP3    H235751   4.503   0.437   5.029 -0.5932 -0.4383  1.8052
 4754TIP3   OH235752   2.208   6.415  15.071  0.0712  0.1058  0.5059
 4754TIP3    H135753   2.152   6.470  15.016  0.0534 -0.9623 -0.5672
 4754TIP3    H235754   2.171   6.327  15.062  1.3274 -0.4368  0.5922
 4755TIP3   OH235755   4.879   1.642  17.244 -0.4753  0.1178  0.0516
 4755TIP3    H135756   4.974   1.646  17.261 -0.5582 -0.6808  0.7082
 4755TIP3    H235757   4.839   1.673  17.325 -0.7949 -0.7178  0.2212
 4756TIP3   OH235758   3.797   0.389   4.444  0.0430 -0.0021  0.1464
 4756TIP3    H135759   3.873   0.345   4.406  0.3214 -0.3242  1.0497
 4756TIP3    H235760   3.809   0.482   4.424  0.0114 -0.2126 -0.8312
 4757TIP3   OH235761   6.454   5.550   2.961  0.0661 -0.6584  0.0741
 4757TIP3    H135762   6.395   5.546   2.886 -1.3993 -1.0715  1.2384
 4757TIP3    H235763   6.401   5.522   3.036  1.1361  1.0329  1.5073
 4758TIP3   OH235764   4.738   6.431  11.353  0.2830 -0.0303 -0.3493
 4758TIP3    H135765   4.654   6.467  11.383  1.2664  1.8893  0.2501
 4758TIP3    H235766   4.801   6.460  11.420  1.8497  0.8551 -2.1427
 4759TIP3   OH235767   5.035   3.912  10.730 -0.8737  0.2813  0.2190
 4759TIP3    H135768   5.028   3.853  10.655  0.6372 -1.7919  1.6407
 4759TIP3    H235769   5.057   3.997  10.692 -3.0648 -0.0272 -1.8767
 4760TIP3   OH235770   2.677   5.575   4.354  0.2520  0.2054  0.4321
 4760TIP3    H135771   2.760   5.589   4.310  0.7103  0.2690  1.3123
 4760TIP3    H235772   2.649   5.662   4.382 -0.9755  0.4269 -1.3777
 4761TIP3   OH235773   2.148   4.795   5.931 -0.3295 -0.4060  0.0300
 4761TIP3    H135774   2.209   4.754   5.992 -0.4475  2.7555  2.3848
 4761TIP3    H235775   2.175   4.887   5.928 -3.5163  0.5592 -0.6768
 4762TIP3   OH235776   1.195   3.871   1.929 -0.6063 -0.3197  0.2866
 4762TIP3    H135777   1.151   3.916   1.857 -2.3874 -1.1258  0.8260
 4762TIP3    H235778   1.286   3.899   1.924 -0.9557  0.5368 -1.5573
 4763TIP3   OH235779   2.837   3.114  17.150 -1.0320 -0.1691 -0.2496
 4763TIP3    H135780   2.799   3.031  17.180  0.5149 -0.8073 -0.0372
 4763TIP3    H235781   2.897   3.140  17.219  0.6952 -0.3855 -1.6293
 4764TIP3   OH235782   2.884   6.574  15.868 -0.2963 -0.3052 -0.5760
 4764TIP3    H135783   2.808   6.546  15.817 -1.8968 -1.0723  2.1355
 4764TIP3    H235784   2.854   6.572  15.959  2.3187  1.5185  0.3847
 4765TIP3   OH235785   0.472   6.018  16.166 -0.0384  0.0374  0.0933
 4765TIP3    H135786   0.505   5.983  16.248  0.7579  0.9719  0.1875
 4765TIP3    H235787   0.551   6.040  16.116 -0.5015  1.7473  0.0827
 4766TIP3   OH235788   4.442   4.780   0.787 -0.1658  0.0296 -0.9947
 4766TIP3    H135789   4.434   4.847   0.720  0.1265  2.2778  1.1456
 4766TIP3    H235790   4.536   4.762   0.791 -0.2621 -0.6477 -1.6853
 4767TIP3   OH235791   2.287   4.515  11.675  0.4911  0.4352  0.1181
 4767TIP3    H135792   2.382   4.517  11.660  0.3945  1.1212 -0.4224
 4767TIP3    H235793   2.277   4.467  11.757  1.1188 -2.2436 -1.3251
 4768TIP3   OH235794   4.367   4.470  16.873  0.4871 -0.5996 -0.0092
 4768TIP3    H135795   4.413   4.542  16.829 -0.3647 -0.1065 -0.1173
 4768TIP3    H235796   4.277   4.502  16.883  0.0510 -1.7205 -0.2193
 4769TIP3   OH235797   3.724   3.649  16.307  0.1115  0.2570 -0.0632
 4769TIP3    H135798   3.721   3.660  16.402  1.0280  1.5640 -0.1640
 4769TIP3    H235799   3.643   3.603  16.285 -1.6635  2.7115  1.0198
 4770TIP3   OH235800   3.056   2.363   6.120  0.2119  0.1343  0.0531
 4770TIP3    H135801   3.016   2.425   6.182  1.2156  0.8942 -0.0539
 4770TIP3    H235802   2.990   2.351   6.052 -0.9940 -0.8730  1.3639
 4771TIP3   OH235803   2.217   6.321   0.367 -0.2964 -0.5843  0.2513
 4771TIP3    H135804   2.300   6.322   0.320  0.0203  0.8974  0.8193
 4771TIP3    H235805   2.151   6.301   0.300  0.3762 -0.5711 -0.4135
 4772TIP3   OH235806   0.015   2.963   3.513  0.2146  1.0070 -0.5188
 4772TIP3    H135807  -0.046   3.032   3.541  1.1761  1.8539 -0.4719
 4772TIP3    H235808   0.091   2.975   3.569 -0.6256 -1.7845  1.3172
 4773TIP3   OH235809   1.674   0.738  14.302  0.3994  0.2091 -0.5041
 4773TIP3    H135810   1.588   0.716  14.267  0.9505  0.0514 -1.7640
 4773TIP3    H235811   1.712   0.654  14.327  0.0801  0.3050  0.3519
 4774TIP3   OH235812   1.628   6.365   0.740  0.6043 -0.0103 -0.1552
 4774TIP3    H135813   1.682   6.403   0.809  1.3800 -2.9370  0.9134
 4774TIP3    H235814   1.691   6.322   0.681 -0.3472 -1.3080 -0.2579
 4775TIP3   OH235815   3.654   5.110   1.341 -0.3476  0.6586  0.3448
 4775TIP3    H135816   3.575   5.058   1.354 -0.2545  0.4852  0.2205
 4775TIP3    H235817   3.665   5.115   1.246 -2.2400  3.7911  0.2344
 4776TIP3   OH235818   3.390   0.949   4.433 -0.5390 -0.6290 -0.2369
 4776TIP3    H135819   3.395   0.960   4.528 -1.5445  1.8874 -0.4389
 4776TIP3    H235820   3.480   0.931   4.406  0.4360  2.5130  0.7640
 4777TIP3   OH235821   5.049   3.645  13.967  0.0985 -0.3800  0.3242
 4777TIP3    H135822   5.104   3.569  13.946 -0.0271 -0.2024 -0.7119
 4777TIP3    H235823   5.080   3.713  13.907  0.6769  0.6008  1.7242
 4778TIP3   OH235824   5.303   5.665   5.570  0.2987  0.2665 -0.7116
 4778TIP3    H135825   5.342   5.750   5.590 -0.6231  0.5358 -0.0173
 4778TIP3    H235826   5.282   5.628   5.656  0.8181 -0.7229 -1.0034
 4779TIP3   OH235827   5.503   0.579   6.529  0.1021  0.2266  0.0822
 4779TIP3    H135828   5.478   0.538   6.611  1.5781  0.5976  0.7359
 4779TIP3    H235829   5.423   0.580   6.477 -0.4392 -1.6173  0.8296
 4780TIP3   OH235830   5.171   0.284  12.080  0.1768  0.6468 -0.0223
 4780TIP3    H135831   5.144   0.375  12.070 -0.7505  0.0372 -3.4456
 4780TIP3    H235832   5.265   0.288  12.093 -0.0708  2.1524  1.5317
 4781TIP3   OH235833   6.605   1.127   3.234  0.3547  0.2200 -0.5324
 4781TIP3    H135834   6.522   1.085   3.255 -0.3246  2.1272  0.7747
 4781TIP3    H235835   6.598   1.150   3.141 -0.9923  1.2163 -0.1973
 4782TIP3   OH235836   4.822   0.772   4.462  0.5667  0.0888  0.5053
 4782TIP3    H135837   4.802   0.835   4.392 -1.3707 -0.7002  0.3303
 4782TIP3    H235838   4.879   0.820   4.521 -0.0255  1.6766 -0.1854
 4783TIP3   OH235839   6.141   2.566  17.033  0.2091 -0.1733 -0.3859
 4783TIP3    H135840   6.096   2.500  16.980  0.1741  0.0526 -0.6338
 4783TIP3    H235841   6.153   2.524  17.118 -1.4956  0.1936  0.0403
 4784TIP3   OH235842   6.673   1.118  15.974 -0.0943 -0.7595  0.1954
 4784TIP3    H135843   6.673   1.106  15.879 -0.0624  0.9862 -0.0472
 4784TIP3    H235844   6.765   1.129  15.997 -0.3074  1.9375 -0.0393
 4785TIP3   OH235845   3.469   0.557  17.166 -0.0025  0.6788 -0.5256
 4785TIP3    H135846   3.482   0.614  17.242  1.1768 -0.2711  0.0068
 4785TIP3    H235847   3.456   0.617  17.093  3.6938  1.7388 -0.4390
 4786TIP3   OH235848   0.281   4.999   3.637 -0.0204  0.3052 -0.0709
 4786TIP3    H135849   0.225   5.077   3.637  0.2447  0.5001 -0.3889
 4786TIP3    H235850   0.285   4.973   3.545  0.8743  0.6296 -0.1266
 4787TIP3   OH235851   1.916   5.885  10.981  0.0460  0.5131  0.6068
 4787TIP3    H135852   1.982   5.933  11.031  1.5748 -0.2370 -0.6772
 4787TIP3    H235853   1.880   5.823  11.044 -1.0618  2.4455  1.9379
 4788TIP3   OH235854   5.576   0.345   4.945  0.0941  0.2071 -0.2894
 4788TIP3    H135855   5.577   0.372   4.854  0.7694  0.4189 -0.2190
 4788TIP3    H235856   5.483   0.334   4.966 -0.0249 -0.9083 -1.3193
 4789TIP3   OH235857   2.448   1.151   2.514  0.6767  0.2427 -0.1944
 4789TIP3    H135858   2.472   1.072   2.562  1.1638 -1.2540 -2.8234
 4789TIP3    H235859   2.353   1.146   2.505  0.3225  1.5799  2.3318
 4790TIP3   OH235860   1.572   2.598  15.527  0.0860 -0.2630  0.1092
 4790TIP3    H135861   1.553   2.664  15.593 -0.0682 -0.6831  0.4949
 4790TIP3    H235862   1.612   2.646  15.454  0.4278  0.1731  0.5866
 4791TIP3   OH235863   6.020   0.901  11.761  0.1973  1.1032 -0.1520
 4791TIP3    H135864   5.976   0.840  11.702  1.8243  0.7107 -0.9805
 4791TIP3    H235865   6.018   0.857  11.846  0.7117  0.2189 -0.5881
 4792TIP3   OH235866   3.049   1.500   3.237  0.0040  0.3987 -0.7481
 4792TIP3    H135867   3.085   1.483   3.324 -0.2725  1.3620 -0.4445
 4792TIP3    H235868   2.995   1.578   3.247  0.6476  1.0304 -1.9532
 4793TIP3   OH235869   4.059   5.812  10.810  0.9637 -0.3411 -0.4095
 4793TIP3    H135870   4.005   5.756  10.754  0.9665  0.1396 -0.8996
 4793TIP3    H235871   4.063   5.895  10.763  1.6012 -0.1755 -0.0618
 4794TIP3   OH235872   1.553   6.128  14.667  0.0495 -0.3998  0.1097
 4794TIP3    H135873   1.552   6.160  14.577  0.8362 -0.0594  0.2173
 4794TIP3    H235874   1.510   6.197  14.718  1.2791  0.2532  0.2660
 4795TIP3   OH235875   1.881   2.480   3.957 -0.1437 -0.4097 -0.3946
 4795TIP3    H135876   1.844   2.392   3.944 -0.6632 -0.0110 -1.7029
 4795TIP3    H235877   1.896   2.512   3.868 -0.4539  1.0436  0.0772
 4796TIP3   OH235878   6.672   2.317  13.585  0.6519 -0.1631  0.6479
 4796TIP3    H135879   6.716   2.234  13.567 -1.5056 -1.3602  0.7419
 4796TIP3    H235880   6.696   2.338  13.676 -0.7549 -1.9691  1.4655
 4797TIP3   OH235881   2.393   3.717   1.393  0.2308 -0.0111  0.0143
 4797TIP3    H135882   2.329   3.732   1.324  0.2202 -0.7186 -0.1329
 4797TIP3    H235883   2.354   3.755   1.472 -0.2668 -0.2466 -0.1207
 4798TIP3   OH235884   3.378   6.572  16.083  0.2391  0.4431  0.0047
 4798TIP3    H135885   3.365   6.659  16.045  0.7975  0.2787 -0.5768
 4798TIP3    H235886   3.461   6.542  16.045 -0.4456 -0.7464 -0.5628
 4799TIP3   OH235887   5.453   6.156  12.052 -0.1873  0.0209  0.2668
 4799TIP3    H135888   5.479   6.151  11.960 -1.0235 -1.7720  0.1133
 4799TIP3    H235889   5.378   6.215  12.052  1.1106  1.7372  0.1224
 4800TIP3   OH235890   3.672   3.133  15.445  0.0645  0.4549  0.2898
 4800TIP3    H135891   3.602   3.190  15.477 -0.2498  0.2015  0.0564
 4800TIP3    H235892   3.741   3.193  15.418 -0.8453  0.8080 -1.3293
 4801TIP3   OH235893   2.407   2.315   0.170  0.3155 -0.0512 -0.1476
 4801TIP3    H135894   2.325   2.321   0.121 -0.0043  1.9868  0.5896
 4801TIP3    H235895   2.385   2.264   0.248 -0.0569 -0.2288 -0.3687
 4802TIP3   OH235896   3.772   0.812  11.896 -0.0570 -0.4039 -0.1935
 4802TIP3    H135897   3.807   0.824  11.808  0.8311  0.0786  0.2148
 4802TIP3    H235898   3.677   0.822  11.886  0.1328  0.7584 -0.9121
 4803TIP3   OH235899   3.394   1.649  15.814  0.4793 -0.5041  0.5552
 4803TIP3    H135900   3.435   1.563  15.824  0.3973 -0.6267 -0.1599
 4803TIP3    H235901   3.378   1.678  15.904  2.1498 -0.4328  0.8358
 4804TIP3   OH235902   4.194   6.119  15.210  0.1961  0.6095 -0.1123
 4804TIP3    H135903   4.130   6.125  15.139 -0.9972 -1.4777  0.7611
 4804TIP3    H235904   4.167   6.186  15.272  0.8985  2.0511 -1.3362
 4805TIP3   OH235905   2.464   2.972   3.627  0.2711 -0.3788  0.5936
 4805TIP3    H135906   2.432   2.899   3.573  0.7070 -1.9276  2.3446
 4805TIP3    H235907   2.537   3.008   3.578 -0.3557 -0.7044 -0.6128
 4806TIP3   OH235908   2.115   1.381   0.275  0.7267 -0.6485 -0.5510
 4806TIP3    H135909   2.048   1.373   0.343  0.7993  1.4962 -0.2104
 4806TIP3    H235910   2.193   1.340   0.314  1.0563  1.4590  1.0726
 4807TIP3   OH235911   4.452   3.887   1.740  0.5794  0.0466  0.0655
 4807TIP3    H135912   4.447   3.895   1.836 -0.7282  0.6558 -0.0402
 4807TIP3    H235913   4.393   3.955   1.707  2.9033  1.5025 -1.2464
 4808TIP3   OH235914   1.915   5.107  14.314 -0.3177 -0.2774 -0.2528
 4808TIP3    H135915   1.979   5.037  14.324 -0.0215  0.1133  0.7411
 4808TIP3    H235916   1.861   5.101  14.393 -0.9174 -0.0314 -0.6497
 4809TIP3   OH235917   6.228   3.664   5.012  0.4553  0.2358 -0.4885
 4809TIP3    H135918   6.277   3.694   5.089 -0.3347  1.9335 -0.6311
 4809TIP3    H235919   6.286   3.681   4.938  0.4234  0.4525 -0.4637
 4810TIP3   OH235920   5.283   4.065  16.374  0.3169  0.2120 -0.7217
 4810TIP3    H135921   5.377   4.069  16.355  0.9400 -1.4906  1.7463
 4810TIP3    H235922   5.241   4.065  16.288  2.4406  2.9386 -1.8687
 4811TIP3   OH235923   6.820   4.855  16.705 -0.1523 -0.5372 -0.1784
 4811TIP3    H135924   6.876   4.784  16.675  0.3887 -0.7812  1.3868
 4811TIP3    H235925   6.854   4.933  16.661  1.3847 -0.6943  0.6862
 4812TIP3   OH235926   2.696   2.015   4.648 -0.0436 -0.1528  0.3025
 4812TIP3    H135927   2.616   2.013   4.701  0.5203 -2.0847  1.1071
 4812TIP3    H235928   2.683   1.947   4.583  0.7385 -0.1191  0.1053
 4813TIP3   OH235929   6.337   5.282  15.897 -0.1048 -0.7015 -0.3485
 4813TIP3    H135930   6.257   5.286  15.844 -0.2956  0.7858  0.0424
 4813TIP3    H235931   6.325   5.204  15.951 -1.6372 -0.0821  0.2340
 4814TIP3   OH235932   3.222   2.587   1.045  0.2711 -0.4416  0.2876
 4814TIP3    H135933   3.308   2.626   1.028 -0.1871  1.6280  2.4296
 4814TIP3    H235934   3.160   2.650   1.008 -0.3979 -0.8438  0.7206
 4815TIP3   OH235935   4.645   0.341   3.984  0.3010  0.1190 -0.7710
 4815TIP3    H135936   4.574   0.398   3.954 -0.0256  0.4146  0.5401
 4815TIP3    H235937   4.712   0.401   4.017  0.3245 -0.2221 -0.1875
 4816TIP3   OH235938   1.947   3.379  14.163 -0.2031  0.0724  0.3793
 4816TIP3    H135939   1.977   3.423  14.083 -2.1792 -1.1191 -1.0655
 4816TIP3    H235940   1.948   3.448  14.230 -0.1644  1.5213 -1.0673
 4817TIP3   OH235941   2.165   2.213   4.886  0.2434  0.3202  0.2785
 4817TIP3    H135942   2.144   2.150   4.955 -1.3541  1.5831  0.9961
 4817TIP3    H235943   2.222   2.277   4.928  0.1031  0.5260  0.1595
 4818TIP3   OH235944   0.750   4.887   4.490 -0.3315 -0.2087  0.2569
 4818TIP3    H135945   0.792   4.899   4.405 -0.0264 -0.4789  0.3694
 4818TIP3    H235946   0.797   4.946   4.549  1.0152 -1.7426  0.7570
 4819TIP3   OH235947   1.176   2.352   4.727 -0.9596  0.0685  0.2246
 4819TIP3    H135948   1.230   2.301   4.787 -2.7325 -1.5335  0.5311
 4819TIP3    H235949   1.148   2.428   4.779 -0.3680  0.0329  0.5963
 4820TIP3   OH235950   3.876   1.288   2.612  0.5785  0.3541 -0.6543
 4820TIP3    H135951   3.855   1.362   2.669  0.1316 -0.0021 -0.3530
 4820TIP3    H235952   3.823   1.303   2.533 -1.8205 -1.1842  0.5914
 4821TIP3   OH235953   2.250   3.535  11.449  0.0628 -0.1030 -0.5578
 4821TIP3    H135954   2.224   3.480  11.375 -0.4249 -0.9316  0.2318
 4821TIP3    H235955   2.265   3.621  11.410  0.1991 -0.6276 -1.6906
 4822TIP3   OH235956   4.143   4.525  12.938 -0.0945  0.4398  0.5476
 4822TIP3    H135957   4.181   4.506  12.852  0.6494  0.4604  0.8683
 4822TIP3    H235958   4.049   4.508  12.927  0.1840 -0.8783  0.1029
 4823TIP3   OH235959   2.142   4.654  15.346 -0.1262  0.0497  0.5977
 4823TIP3    H135960   2.063   4.707  15.356  0.0120  0.6352 -1.1690
 4823TIP3    H235961   2.120   4.592  15.276  0.7911 -0.1458  0.4802
 4824TIP3   OH235962   6.326   6.531  14.181 -0.6203  0.0844  0.2394
 4824TIP3    H135963   6.340   6.491  14.096  1.6950  1.0162  0.1658
 4824TIP3    H235964   6.361   6.468  14.244 -1.3087 -0.0992  0.4532
 4825TIP3   OH235965   1.976   5.621   5.016  0.3648  0.0259  0.5838
 4825TIP3    H135966   2.008   5.628   4.926  0.6977  0.2497  0.7196
 4825TIP3    H235967   1.908   5.688   5.022  1.0552  0.7083  0.8056
 4826TIP3   OH235968   6.744   6.564  12.119  0.0330 -0.1611 -0.0162
 4826TIP3    H135969   6.835   6.569  12.150  0.2107  0.4897 -0.6426
 4826TIP3    H235970   6.743   6.488  12.060  0.4994  0.6530 -1.0878
 4827TIP3   OH235971   1.306   0.163  14.143 -0.4000  0.1955  0.3058
 4827TIP3    H135972   1.219   0.128  14.165 -0.5515  0.4540  0.1268
 4827TIP3    H235973   1.363   0.133  14.213 -0.4980 -0.5358  0.0756
 4828TIP3   OH235974   5.110   2.049  17.168 -0.3357 -0.4391  0.6424
 4828TIP3    H135975   5.091   1.983  17.101 -0.8771 -0.8422  1.1805
 4828TIP3    H235976   5.024   2.070  17.206  0.0680 -0.9250  1.8566
 4829TIP3   OH235977   4.786   6.740  16.840  0.3012  0.4318 -0.5930
 4829TIP3    H135978   4.738   6.756  16.921  2.8144 -0.1112  1.0827
 4829TIP3    H235979   4.790   6.825  16.796  1.0220  1.2739  1.0744
 4830TIP3   OH235980   0.410   5.654  12.295  0.0891  0.8249  0.0932
 4830TIP3    H135981   0.399   5.746  12.319 -1.6425  0.6883 -0.1340
 4830TIP3    H235982   0.461   5.617  12.367 -0.3163  1.6807  0.8318
 4831TIP3   OH235983   4.023   2.456  13.279  0.0663 -0.2868 -0.3220
 4831TIP3    H135984   3.985   2.425  13.197  0.2839 -1.8202  0.1525
 4831TIP3    H235985   4.115   2.430  13.275 -0.3048 -1.9484  1.1566
 4832TIP3   OH235986   4.297   0.385  14.164 -0.3976  0.3110 -0.0713
 4832TIP3    H135987   4.285   0.479  14.154 -1.5970  0.2106  0.3641
 4832TIP3    H235988   4.261   0.365  14.251  0.7568 -0.3899  0.2609
 4833TIP3   OH235989   4.812   5.431  11.495  0.6337  0.0307 -1.0326
 4833TIP3    H135990   4.738   5.391  11.450  1.3082 -0.8638 -1.3655
 4833TIP3    H235991   4.852   5.360  11.545  0.6345  0.7386  0.0088
 4834TIP3   OH235992   4.031   0.748   0.012  0.8978 -0.2782 -0.1264
 4834TIP3    H135993   4.043   0.767   0.105 -0.1263 -2.1791  0.4218
 4834TIP3    H235994   4.086   0.672  -0.005 -2.2058 -2.6750  0.0150
 4835TIP3   OH235995   4.421   3.741   3.450  0.1692  0.5351 -0.4398
 4835TIP3    H135996   4.333   3.775   3.465  0.2986  0.6781  0.0175
 4835TIP3    H235997   4.475   3.785   3.517  0.4018 -0.2903 -0.0764
 4836TIP3   OH235998   4.831   2.901  16.700 -0.0219  0.0683  0.0789
 4836TIP3    H135999   4.842   2.912  16.606 -1.2537  0.6927 -0.0098
 4836TIP3    H236000   4.877   2.820  16.721 -0.0817 -0.2836 -1.1213
 4837TIP3   OH236001   1.783   4.622  17.079  0.7164 -0.4580 -0.1570
 4837TIP3    H136002   1.850   4.662  17.024 -1.2210  0.9527 -1.5755
 4837TIP3    H236003   1.735   4.565  17.018  1.1289 -2.1098  1.0291
 4838TIP3   OH236004   3.107   1.536   5.335 -0.1475  0.1083 -0.6197
 4838TIP3    H136005   3.116   1.441   5.340  1.9260  0.2002 -2.1087
 4838TIP3    H236006   3.119   1.566   5.426 -0.5204 -1.0054 -0.1903
 4839TIP3   OH236007   3.975   2.011  16.723  0.6538  0.3425 -0.4026
 4839TIP3    H136008   3.901   2.016  16.784  0.6498 -0.3281 -0.3548
 4839TIP3    H236009   3.989   2.102  16.696 -0.4313  0.4198 -0.7173
 4840TIP3   OH236010   1.293   0.327  12.014 -0.0303  0.1993 -0.7008
 4840TIP3    H136011   1.380   0.336  12.054 -0.1808  0.7566 -0.4880
 4840TIP3    H236012   1.267   0.417  11.993  0.4007 -0.1647 -2.8281
 4841TIP3   OH236013   6.516   0.468   1.704  0.5511 -0.2216  0.1982
 4841TIP3    H136014   6.499   0.413   1.628  1.8061 -1.2854  0.6697
 4841TIP3    H236015   6.574   0.537   1.671  0.1328  0.0140 -0.0603
 4842TIP3   OH236016   1.324   6.661  15.676 -0.1874  0.3467 -0.4650
 4842TIP3    H136017   1.317   6.651  15.581 -0.2703  0.8598 -0.5166
 4842TIP3    H236018   1.393   6.601  15.702  0.8727  1.2904 -1.0433
 4843TIP3   OH236019   1.916   1.697  12.852 -0.2055  0.0620  0.0844
 4843TIP3    H136020   1.881   1.786  12.848 -0.3194  0.0911  1.4167
 4843TIP3    H236021   1.989   1.703  12.914  1.7042 -0.1579 -2.0514
 4844TIP3   OH236022   4.482   1.810   2.177 -1.0550  0.5810 -1.0796
 4844TIP3    H136023   4.496   1.740   2.241  1.0059  2.3459  0.4773
 4844TIP3    H236024   4.413   1.776   2.119 -1.3435 -1.9942  0.6769
 4845TIP3   OH236025   4.901   2.195   3.593 -0.3690  0.0846  0.6537
 4845TIP3    H136026   4.944   2.267   3.546 -0.4775 -0.2590  0.0329
 4845TIP3    H236027   4.967   2.163   3.653  0.4633 -0.8754 -0.7593
 4846TIP3   OH236028   1.010   6.639  11.773  0.1365  0.1881  0.1914
 4846TIP3    H136029   0.937   6.685  11.814 -0.2703  0.8035 -1.1925
 4846TIP3    H236030   1.044   6.581  11.841 -2.7376 -1.3755  0.3827
 4847TIP3   OH236031   4.360   5.034  13.671  0.0598 -0.1708 -0.1350
 4847TIP3    H136032   4.375   5.045  13.578  2.8368  2.0752  0.5080
 4847TIP3    H236033   4.408   5.106  13.712 -1.1106 -1.0920  3.0276
 4848TIP3   OH236034   1.688   0.557   0.192 -0.2898 -0.4908  0.5972
 4848TIP3    H136035   1.644   0.609   0.259  0.6251  0.9907  0.0771
 4848TIP3    H236036   1.619   0.540   0.127 -0.1062  1.9483 -0.2912
 4849TIP3   OH236037   1.442   3.112  11.243  0.0750 -0.5423  0.2807
 4849TIP3    H136038   1.512   3.111  11.308  1.8671  0.1643 -1.5754
 4849TIP3    H236039   1.485   3.143  11.163 -2.8121  1.8443 -0.3964
 4850TIP3   OH236040   1.129   6.675  15.015  0.0820  0.6381  0.6840
 4850TIP3    H136041   1.185   6.746  14.984  2.2000 -1.0672  0.4841
 4850TIP3    H236042   1.070   6.657  14.941  0.9467  0.7704 -0.0502
 4851TIP3   OH236043   2.876   0.164   1.595  0.1539  0.8010  0.5805
 4851TIP3    H136044   2.803   0.107   1.620 -1.0567  1.2899 -1.7083
 4851TIP3    H236045   2.847   0.205   1.514  2.7989  1.3849 -0.0889
 4852TIP3   OH236046   4.252   3.062   2.730  0.5063 -0.5823  0.0370
 4852TIP3    H136047   4.263   3.096   2.641 -2.4730  0.2194 -0.0751
 4852TIP3    H236048   4.307   2.984   2.733  2.3410  0.5928 -1.8015
 4853TIP3   OH236049   1.903   1.883  15.869 -0.1318 -0.1660 -0.0388
 4853TIP3    H136050   1.833   1.870  15.933 -0.2356 -0.3689 -0.1928
 4853TIP3    H236051   1.942   1.968  15.892 -0.7094  0.1473 -0.2225
 4854TIP3   OH236052   3.494   5.833   3.855 -0.2206 -0.5332  0.1595
 4854TIP3    H136053   3.494   5.838   3.759  0.9372 -2.8854  0.0197
 4854TIP3    H236054   3.530   5.918   3.883  0.8999 -0.4332 -1.5287
 4855TIP3   OH236055   6.293   1.330  15.340 -0.0298 -0.3151 -0.0472
 4855TIP3    H136056   6.349   1.363  15.270 -1.4542 -1.9078 -1.9907
 4855TIP3    H236057   6.226   1.397  15.351 -1.2373 -1.2002 -1.9533
 4856TIP3   OH236058   4.855   0.171   1.050  0.5660 -0.1706  0.1646
 4856TIP3    H136059   4.784   0.132   1.100  0.0049 -0.3734 -0.7752
 4856TIP3    H236060   4.817   0.188   0.964  0.4486  3.4260  0.8417
 4857TIP3   OH236061   3.432   3.341  14.541 -0.0898  0.2085 -0.0463
 4857TIP3    H136062   3.460   3.301  14.459  0.3911  0.4497 -0.0002
 4857TIP3    H236063   3.345   3.375  14.523 -1.4501 -2.7390  0.5141
 4858TIP3   OH236064   5.974   6.719  14.951 -0.4712 -0.4138  0.0771
 4858TIP3    H136065   6.014   6.803  14.974 -3.9273  0.2684  4.1032
 4858TIP3    H236066   6.026   6.654  15.000  0.3652 -0.3271 -0.6899
 4859TIP3   OH236067   4.012   4.324   3.185 -0.0570  0.7317 -0.1621
 4859TIP3    H136068   4.052   4.354   3.103  1.3784 -0.2432  0.1670
 4859TIP3    H236069   4.079   4.340   3.252 -0.9897  0.9572  0.7294
 4860TIP3   OH236070   1.498   1.638   3.497  0.3023  0.0801  0.3883
 4860TIP3    H136071   1.564   1.698   3.531  1.4116 -1.3923  0.8932
 4860TIP3    H236072   1.433   1.632   3.567  1.1742 -0.7857  1.1415
 4861TIP3   OH236073   2.447   4.439  15.077  0.1923 -0.2895 -0.3038
 4861TIP3    H136074   2.430   4.482  14.993  1.1921 -0.5149 -0.6340
 4861TIP3    H236075   2.539   4.459  15.096 -0.0210 -0.2750  0.7154
 4862TIP3   OH236076   2.527   0.443   2.642 -0.0361  0.6853 -0.1038
 4862TIP3    H136077   2.568   0.438   2.555  1.6643  1.2585  0.6585
 4862TIP3    H236078   2.554   0.361   2.685 -0.8276  0.4319 -0.0842
 4863TIP3   OH236079   3.625   5.432   1.409  0.2998  0.5151  0.4223
 4863TIP3    H136080   3.592   5.521   1.418 -1.3669 -0.2776  2.5717
 4863TIP3    H236081   3.701   5.429   1.466  2.8171  1.6535 -2.7154
 4864TIP3   OH236082   1.106   0.499  16.940 -0.8768 -0.3322  0.7023
 4864TIP3    H136083   1.035   0.515  17.001 -4.0027  0.4836 -2.9507
 4864TIP3    H236084   1.115   0.404  16.937  1.2459 -0.3347  4.3882
 4865TIP3   OH236085   1.383   2.061   2.316  0.0640  0.6786  1.0692
 4865TIP3    H136086   1.423   1.974   2.320 -1.1889  0.0771  0.8158
 4865TIP3    H236087   1.457   2.122   2.323  1.0318 -0.4044  0.4857
 4866TIP3   OH236088   5.258   2.169  15.190  0.4456 -0.0760  0.1137
 4866TIP3    H136089   5.236   2.226  15.116  0.7602 -0.3346 -0.1773
 4866TIP3    H236090   5.174   2.155  15.234  0.1258 -0.5046 -0.6061
 4867TIP3   OH236091   6.484   5.030  15.755 -0.1767 -0.2635 -0.1125
 4867TIP3    H136092   6.472   5.104  15.696 -0.5228 -0.9474 -0.9110
 4867TIP3    H236093   6.578   5.010  15.749 -0.0425  0.2419  0.2703
 4868TIP3   OH236094   4.184   0.554   1.140 -0.0069  0.1528 -0.3348
 4868TIP3    H136095   4.216   0.632   1.186 -0.1958 -0.5318  0.9678
 4868TIP3    H236096   4.098   0.579   1.108 -1.3711 -0.4794  2.6711
 4869TIP3   OH236097   4.246   2.015   0.825  0.8664  0.6300 -0.4200
 4869TIP3    H136098   4.157   2.035   0.853  0.7882  2.3966 -1.8761
 4869TIP3    H236099   4.301   2.051   0.894  0.4959  0.5374 -0.0724
 4870TIP3   OH236100   2.261   5.262   1.468  0.0393 -0.4570  0.0369
 4870TIP3    H136101   2.283   5.200   1.397  1.6610  0.8557 -0.6404
 4870TIP3    H236102   2.229   5.206   1.539  0.9765 -2.0472 -0.7465
 4871TIP3   OH236103   2.408   4.618   4.421 -0.0339  0.1935 -0.1677
 4871TIP3    H136104   2.392   4.650   4.332 -0.2823  0.4726 -0.0264
 4871TIP3    H236105   2.321   4.594   4.453  0.1160 -0.3471 -0.1672
 4872TIP3   OH236106   1.859   6.565   0.854 -0.2286  0.4559 -0.5144
 4872TIP3    H136107   1.953   6.563   0.870 -0.6016 -1.2161  1.6251
 4872TIP3    H236108   1.830   6.649   0.889  0.0976 -0.1224  1.2018
 4873TIP3   OH236109   1.599   3.162   3.022 -0.0411  0.1560 -0.0813
 4873TIP3    H136110   1.512   3.200   3.036 -0.0145  0.3962 -0.5688
 4873TIP3    H236111   1.594   3.076   3.064 -0.8557 -0.2580 -1.0053
 4874TIP3   OH236112   5.940   1.157  11.699  0.2061  0.4143  0.1032
 4874TIP3    H136113   6.022   1.205  11.685  0.4833  0.1989  0.9240
 4874TIP3    H236114   5.968   1.071  11.732 -0.3720  0.6870  1.3381
 4875TIP3   OH236115   6.646   5.784   5.750 -0.6460 -0.2199  0.1973
 4875TIP3    H136116   6.695   5.721   5.803 -0.4255  0.5436  0.9110
 4875TIP3    H236117   6.615   5.849   5.813  1.0686  1.6462 -0.8337
 4876TIP3   OH236118   4.101   0.783  15.852  0.2602 -0.1004 -0.3417
 4876TIP3    H136119   4.086   0.778  15.757  0.3499  2.2878 -0.5005
 4876TIP3    H236120   4.190   0.750  15.863  0.5087  0.2823 -1.1706
 4877TIP3   OH236121   5.817   4.582  14.207 -0.0006  0.0930 -0.0496
 4877TIP3    H136122   5.905   4.599  14.241  0.0424  1.3137 -0.7205
 4877TIP3    H236123   5.758   4.614  14.275  0.0627 -1.7568  0.8877
 4878TIP3   OH236124   3.408   6.457  15.754  1.2621  0.2089  0.1337
 4878TIP3    H136125   3.329   6.506  15.776  0.8995 -0.6541  0.8157
 4878TIP3    H236126   3.478   6.499  15.805  0.7989 -0.4950  1.3810
 4879TIP3   OH236127   2.189   5.421  17.243 -0.7295 -0.2055 -0.5053
 4879TIP3    H136128   2.186   5.332  17.210 -0.4471  0.3100 -1.9465
 4879TIP3    H236129   2.123   5.468  17.192 -1.6575  0.1776  0.9983
 4880TIP3   OH236130   4.891   2.866  17.073 -0.1967 -0.3940 -0.4416
 4880TIP3    H136131   4.864   2.903  17.157  0.8401  0.1304 -0.3359
 4880TIP3    H236132   4.948   2.933  17.035  1.0695 -1.5660 -0.6085
 4881TIP3   OH236133   4.399   0.738   0.091  0.5791  0.4735  0.3353
 4881TIP3    H136134   4.362   0.820   0.059  1.4388  0.6046 -0.3558
 4881TIP3    H236135   4.475   0.765   0.143 -0.0687  0.1921  1.4501
 4882TIP3   OH236136   3.223   5.588   0.667 -0.2655 -0.5123  0.3872
 4882TIP3    H136137   3.132   5.616   0.678 -0.4106 -0.2724 -1.2739
 4882TIP3    H236138   3.271   5.635   0.735 -1.3865 -0.7030  1.3310
 4883TIP3   OH236139   3.367   0.482   3.092 -0.1038  0.6961 -0.2975
 4883TIP3    H136140   3.324   0.483   3.178 -0.9567  0.0210 -0.7084
 4883TIP3    H236141   3.323   0.412   3.044 -0.2353  1.6560 -1.5921
 4884TIP3   OH236142   4.395   1.848  15.646 -0.7588 -0.7649 -0.4250
 4884TIP3    H136143   4.469   1.804  15.606 -0.0804 -1.7499  1.8368
 4884TIP3    H236144   4.392   1.934  15.603  0.9071 -1.1721 -1.4048
 4885TIP3   OH236145   4.862   0.765  13.258 -0.3225 -0.6127  0.0647
 4885TIP3    H136146   4.916   0.844  13.270 -1.2433 -0.1058  0.9652
 4885TIP3    H236147   4.778   0.788  13.297 -0.9543 -1.6674 -0.6573
 4886TIP3   OH236148   2.632   2.450  12.117 -0.2373  0.5237 -0.1362
 4886TIP3    H136149   2.709   2.407  12.154 -0.6936  2.2459  2.9455
 4886TIP3    H236150   2.667   2.515  12.057  0.6927  0.6227  0.4990
 4887TIP3   OH236151   3.902   4.973  12.397  0.1404 -0.2322  0.0453
 4887TIP3    H136152   3.873   4.965  12.487 -0.8668  2.4682 -0.0003
 4887TIP3    H236153   3.986   5.019  12.403  0.6311 -1.0504 -0.3513
 4888TIP3   OH236154   5.178   1.344   5.328 -0.1707  0.6330 -0.1909
 4888TIP3    H136155   5.222   1.391   5.400  2.2833 -0.2525 -1.0500
 4888TIP3    H236156   5.151   1.261   5.367 -0.4708  0.8921  0.1606
 4889TIP3   OH236157   3.045   0.747   0.916 -0.4443 -0.1347 -0.5224
 4889TIP3    H136158   3.060   0.653   0.924 -0.2169 -0.1087 -0.6542
 4889TIP3    H236159   3.096   0.773   0.840 -2.7461 -0.4130 -2.2156
 4890TIP3   OH236160   1.353   3.916   1.617 -0.0202 -0.0139 -0.0817
 4890TIP3    H136161   1.416   3.931   1.546  1.0971  0.7230  1.0487
 4890TIP3    H236162   1.292   3.990   1.612  2.1698  2.0200  1.9447
 4891TIP3   OH236163   6.702   5.334  15.276  0.1789  0.1770  0.0225
 4891TIP3    H136164   6.668   5.260  15.327  0.9782 -0.3653 -0.2194
 4891TIP3    H236165   6.636   5.403  15.287  0.2274  0.0006  1.6162
 4892TIP3   OH236166   4.783   3.182   1.132 -0.2025  0.1979  0.3515
 4892TIP3    H136167   4.843   3.244   1.091 -0.1344  0.1522  0.3811
 4892TIP3    H236168   4.812   3.178   1.223 -0.8386  0.8911  0.5898
 4893TIP3   OH236169   5.600   5.628   3.823 -0.4892  0.4459 -0.3958
 4893TIP3    H136170   5.659   5.659   3.891  2.4118 -1.7893 -1.8249
 4893TIP3    H236171   5.655   5.613   3.746 -2.8709 -1.6797 -1.8067
 4894TIP3   OH236172   6.227   6.542   4.592  0.0646  0.6369  0.3306
 4894TIP3    H136173   6.230   6.468   4.653 -1.0690  0.5404  0.2888
 4894TIP3    H236174   6.136   6.572   4.596  0.0308  0.7742 -1.1412
 4895TIP3   OH236175   4.487   6.327  15.501  0.1255  0.2917 -0.2729
 4895TIP3    H136176   4.477   6.257  15.437 -0.1352  1.7142 -1.8417
 4895TIP3    H236177   4.549   6.388  15.460  0.9835  0.5903  1.4133
 4896TIP3   OH236178   4.176   6.352   0.208  0.1332  0.2973  1.0948
 4896TIP3    H136179   4.099   6.322   0.159  0.9351  1.0363 -0.6622
 4896TIP3    H236180   4.154   6.440   0.237  0.8413  1.0816 -0.6658
 4897TIP3   OH236181   1.819   2.872   1.066  0.4055  0.1951 -0.2576
 4897TIP3    H136182   1.761   2.796   1.056 -0.3814  0.8745 -0.9578
 4897TIP3    H236183   1.816   2.892   1.159  1.3747 -1.2033  0.1056
 4898TIP3   OH236184   0.586   0.138  13.200 -0.6832  0.8967  0.1348
 4898TIP3    H136185   0.671   0.180  13.210  0.3593 -0.8419 -1.1577
 4898TIP3    H236186   0.542   0.189  13.131 -0.2049  1.0514 -0.0605
 4899TIP3   OH236187   2.738   2.220  11.433 -0.2490  0.4746 -0.3400
 4899TIP3    H136188   2.748   2.129  11.463  0.8267  0.6347 -0.1911
 4899TIP3    H236189   2.827   2.247  11.410 -0.8631  0.7896 -2.4579
 4900TIP3   OH236190   5.200   5.110  15.334  0.0090 -0.6619 -0.3539
 4900TIP3    H136191   5.199   5.190  15.387 -0.7379 -0.5012 -0.6017
 4900TIP3    H236192   5.109   5.080  15.334  0.1988 -1.2582 -0.6542
 4901TIP3   OH236193   2.391   0.328   1.139 -0.0633  0.1890 -0.0359
 4901TIP3    H136194   2.330   0.398   1.163 -0.4523  0.1958 -1.0309
 4901TIP3    H236195   2.477   0.364   1.157 -0.3344  0.2827  1.1271
 4902TIP3   OH236196   1.004   5.145   1.342  0.3325 -0.2862  0.1324
 4902TIP3    H136197   1.021   5.103   1.427  0.6373 -1.1681 -0.3640
 4902TIP3    H236198   0.926   5.101   1.309  0.0847  0.2111  0.0525
 4903TIP3   OH236199   0.186   6.000   2.038  0.3922 -0.0969 -0.0975
 4903TIP3    H136200   0.252   6.032   2.100  1.4018  2.2660 -2.2539
 4903TIP3    H236201   0.235   5.988   1.956 -1.2160 -1.5358 -0.8655
 4904TIP3   OH236202   2.305   5.777  15.242  0.3206 -0.2884 -0.1375
 4904TIP3    H136203   2.322   5.767  15.148  0.4787  1.1701 -0.2806
 4904TIP3    H236204   2.318   5.870  15.258  1.5369 -0.7462  1.5918
 4905TIP3   OH236205   3.631   5.593   3.117  0.3193  0.2767  0.6727
 4905TIP3    H136206   3.716   5.593   3.162  0.2751  1.9343  0.7919
 4905TIP3    H236207   3.567   5.606   3.187  0.1701  1.7574  0.2730
 4906TIP3   OH236208   0.313   1.135  16.213  0.3455  0.1642  0.5120
 4906TIP3    H136209   0.381   1.092  16.265  1.0996 -1.3776 -1.6425
 4906TIP3    H236210   0.356   1.213  16.178  0.2186  0.5392  1.1850
 4907TIP3   OH236211   4.374   5.137  17.160 -0.5747 -0.0009 -0.4435
 4907TIP3    H136212   4.424   5.060  17.132 -1.6224 -0.7282 -0.3462
 4907TIP3    H236213   4.330   5.109  17.241 -1.5682  0.4508 -0.8154
 4908TIP3   OH236214   5.677   1.254  16.230 -0.2969 -0.2149 -0.7983
 4908TIP3    H136215   5.734   1.240  16.155 -0.2317 -1.3967 -0.5305
 4908TIP3    H236216   5.712   1.333  16.272  0.3795 -0.2225 -1.3392
 4909TIP3   OH236217   0.713   5.189   5.080 -0.0747 -0.2110  0.8750
 4909TIP3    H136218   0.774   5.247   5.033 -1.6693 -0.1874 -1.2403
 4909TIP3    H236219   0.750   5.181   5.168  2.2257  0.9180  0.0399
 4910TIP3   OH236220   4.730   2.796   0.467  0.3962  0.3308  0.5816
 4910TIP3    H136221   4.779   2.786   0.549 -0.7133  2.5159  1.5457
 4910TIP3    H236222   4.797   2.806   0.400  1.3078  0.4672  1.5026
 4911TIP3   OH236223   6.269   2.473   2.937  0.3310 -0.3328  0.3433
 4911TIP3    H136224   6.205   2.435   2.877 -0.9593  1.1060  0.7562
 4911TIP3    H236225   6.268   2.416   3.013 -0.9286  0.0042  0.5922
 4912TIP3   OH236226   0.534   5.735   1.449  0.4878 -0.3545 -0.4368
 4912TIP3    H136227   0.623   5.701   1.435 -0.1892 -2.6682  0.5245
 4912TIP3    H236228   0.478   5.677   1.397 -0.4525  1.2890 -1.2877
 4913TIP3   OH236229   0.436   5.381  12.458  0.3357 -0.7504  0.2456
 4913TIP3    H136230   0.353   5.348  12.491 -0.4760  0.0741 -0.9291
 4913TIP3    H236231   0.467   5.441  12.526 -0.4747 -0.3823  0.2993
 4914TIP3   OH236232   5.857   3.264   0.440 -0.4153  0.1499  0.1157
 4914TIP3    H136233   5.803   3.321   0.386  0.5328 -0.4692 -1.5421
 4914TIP3    H236234   5.825   3.175   0.422 -0.0742 -0.0643  0.5480
 4915TIP3   OH236235   4.320   5.578   5.819 -0.7493  0.3181 -0.1837
 4915TIP3    H136236   4.226   5.593   5.804 -1.0489 -1.6592 -0.4760
 4915TIP3    H236237   4.361   5.600   5.735 -1.1421 -0.1925 -0.5211
 4916TIP3   OH236238   2.723   4.096   5.470 -0.6692  0.2174 -0.4291
 4916TIP3    H136239   2.681   4.032   5.412 -1.9936  0.9096 -0.2515
 4916TIP3    H236240   2.805   4.053   5.497 -2.4455 -2.2490  1.2599
 4917TIP3   OH236241   6.422   2.427   6.014  0.1669  0.3804 -0.5979
 4917TIP3    H136242   6.365   2.497   5.981 -0.2968  0.0325 -0.5505
 4917TIP3    H236243   6.457   2.461   6.096  0.3796  0.7743 -0.8489
 4918TIP3   OH236244   0.930   2.835  13.047 -0.1513  0.5124 -0.6092
 4918TIP3    H136245   0.940   2.891  12.971  1.0500 -0.0899 -0.9112
 4918TIP3    H236246   1.003   2.773  13.041 -0.3341  0.1457  0.7575
 4919TIP3   OH236247   2.567   1.807   5.279  0.5520 -0.2084 -0.3810
 4919TIP3    H136248   2.569   1.811   5.374 -2.5213  0.6134 -0.2924
 4919TIP3    H236249   2.561   1.714   5.258  0.9941 -0.3725  0.2148
 4920TIP3   OH236250   0.927   4.012   2.924 -0.2285  0.2088  0.0671
 4920TIP3    H136251   0.933   3.917   2.940  1.4265  0.0585 -1.3076
 4920TIP3    H236252   0.837   4.025   2.894 -0.3344 -1.0210 -0.1963
 4921TIP3   OH236253   0.930   1.127  11.094 -0.0705  0.1465 -0.7863
 4921TIP3    H136254   0.869   1.197  11.070  1.3081  1.6998  0.1379
 4921TIP3    H236255   0.998   1.131  11.027  0.5329  0.3641 -0.1649
 4922TIP3   OH236256   3.047   4.697   4.305  0.1587 -0.4349  0.0914
 4922TIP3    H136257   2.958   4.731   4.300  0.4272  0.2767  0.1553
 4922TIP3    H236258   3.071   4.678   4.214 -0.1367 -0.8479  0.0955
 4923TIP3   OH236259   4.530   6.061  12.587 -0.1884 -0.4264 -0.1633
 4923TIP3    H136260   4.451   6.021  12.621  0.6452 -1.9303  0.0276
 4923TIP3    H236261   4.575   6.097  12.663 -1.6460  2.2430 -0.4881
 4924TIP3   OH236262   2.867   3.881   4.098  0.1848  0.1025  0.6993
 4924TIP3    H136263   2.897   3.874   4.189  0.0483 -0.0546  0.7324
 4924TIP3    H236264   2.913   3.958   4.063  0.5225 -0.0612  0.7894
 4925TIP3   OH236265   2.426   3.243   3.265 -0.4990  0.0294  0.6875
 4925TIP3    H136266   2.365   3.214   3.198 -0.1730  0.4036  0.2244
 4925TIP3    H236267   2.436   3.337   3.250  1.1618 -0.2420 -0.0473
 4926TIP3   OH236268   2.312   0.055  12.809 -0.5087  0.5626 -0.3206
 4926TIP3    H136269   2.252   0.016  12.873  1.3938 -0.9785  0.5403
 4926TIP3    H236270   2.399   0.046  12.848  0.4055  1.9671 -1.9644
 4927TIP3   OH236271   2.007   5.196  16.283  0.4727  0.3147  0.4476
 4927TIP3    H136272   2.006   5.226  16.374 -0.2373  1.4959  0.0591
 4927TIP3    H236273   2.099   5.183  16.262  0.8556  2.9450  0.3978
 4928TIP3   OH236274   3.581   5.820   0.866  0.1331 -0.6918 -0.2102
 4928TIP3    H136275   3.607   5.729   0.878  1.3114 -0.1936  1.1557
 4928TIP3    H236276   3.619   5.866   0.941 -1.8516  0.6455  0.0025
 4929TIP3   OH236277   0.305   6.273   1.825 -0.6746 -0.4873 -0.0773
 4929TIP3    H136278   0.386   6.311   1.858 -0.2426 -1.0639 -0.4637
 4929TIP3    H236279   0.246   6.348   1.813  0.6552  0.2635 -2.2176
 4930TIP3   OH236280   6.530   6.134  16.463 -0.2212  0.9680 -0.1780
 4930TIP3    H136281   6.448   6.091  16.437 -0.2950  0.0802  1.5204
 4930TIP3    H236282   6.583   6.133  16.383 -0.6129 -1.3575 -0.4417
 4931TIP3   OH236283   2.492   5.578   5.693  0.5747 -0.4062  0.0597
 4931TIP3    H136284   2.457   5.613   5.775  0.9013  0.2588 -0.0801
 4931TIP3    H236285   2.532   5.654   5.650  1.5791 -1.0145 -0.0947
 4932TIP3   OH236286   3.970   1.237   3.710  0.0293  0.5990 -0.4746
 4932TIP3    H136287   3.944   1.152   3.745  0.7788  0.1091 -1.0940
 4932TIP3    H236288   4.013   1.281   3.783  0.7560 -0.0512 -0.5094
 4933TIP3   OH236289   0.742   0.402   1.155 -0.2685 -0.6241 -0.1625
 4933TIP3    H136290   0.676   0.373   1.092  1.6265 -1.2918 -1.8669
 4933TIP3    H236291   0.730   0.497   1.160  1.0404 -0.2592 -3.2675
 4934TIP3   OH236292   1.297   3.622  15.215 -0.3117  0.1038 -0.0008
 4934TIP3    H136293   1.354   3.553  15.250  1.6225  1.3205 -0.6476
 4934TIP3    H236294   1.284   3.598  15.123 -1.3729 -0.5042  0.3028
 4935TIP3   OH236295   3.374   6.326  13.235 -0.0096  0.6224 -0.7679
 4935TIP3    H136296   3.343   6.355  13.320  1.5223 -1.2365  0.4651
 4935TIP3    H236297   3.421   6.402  13.200  1.6452  0.5815  1.2361
 4936TIP3   OH236298   1.614   6.535   2.362 -0.5568  0.1448  0.3219
 4936TIP3    H136299   1.616   6.607   2.299 -3.1594 -0.3602 -0.4074
 4936TIP3    H236300   1.575   6.573   2.441  0.4450  0.1501  0.8325
 4937TIP3   OH236301   1.962   4.713   1.320 -0.1411  0.4692 -0.3476
 4937TIP3    H136302   2.021   4.684   1.250  2.4552  1.1410  1.4764
 4937TIP3    H236303   1.938   4.633   1.367  0.4798  0.3532 -0.2271
 4938TIP3   OH236304   1.370   5.297   2.177 -0.1264  0.3919  0.1437
 4938TIP3    H136305   1.305   5.227   2.170 -0.9050  1.0893  0.2708
 4938TIP3    H236306   1.355   5.334   2.264  0.1910  0.8082  0.0222
 4939TIP3   OH236307   1.266   0.607   2.104  0.0559  0.0310 -0.6019
 4939TIP3    H136308   1.195   0.628   2.044 -2.2565  0.4477  2.1852
 4939TIP3    H236309   1.327   0.681   2.096 -0.9909  0.8359 -1.2562
 4940TIP3   OH236310   2.813   4.503   0.481 -0.3094  0.2246  0.1865
 4940TIP3    H136311   2.854   4.579   0.522 -0.2850  0.0144  0.5583
 4940TIP3    H236312   2.879   4.434   0.485 -0.2573  0.2401 -0.3359
 4941TIP3   OH236313   1.907   2.898   3.319 -0.1614  0.2708 -0.1869
 4941TIP3    H136314   1.967   2.959   3.362 -1.1919  1.2399 -0.1088
 4941TIP3    H236315   1.820   2.925   3.349 -0.7604 -0.0978 -1.5666
 4942TIP3   OH236316   2.429   4.859   1.680 -0.2986  0.2427  0.0016
 4942TIP3    H136317   2.431   4.951   1.708 -0.5518 -0.0840  1.0988
 4942TIP3    H236318   2.516   4.825   1.702 -1.0118 -0.4362  1.8561
 4943TIP3   OH236319   5.636   0.283  12.319  0.4604  0.4226  0.6599
 4943TIP3    H136320   5.641   0.379  12.312 -0.7122  0.3773 -1.0011
 4943TIP3    H236321   5.727   0.255  12.328  1.1446  1.4445 -2.4446
 4944TIP3   OH236322   0.741   1.773  16.749  0.6055  0.4220  0.5730
 4944TIP3    H136323   0.799   1.698  16.737 -2.0077 -1.7719  1.4073
 4944TIP3    H236324   0.696   1.781  16.665  1.1723  1.3627  0.3456
 4945TIP3   OH236325   5.691   0.023  13.367 -0.0189 -0.6291 -0.0699
 4945TIP3    H136326   5.693   0.095  13.304 -0.3855 -2.8898 -2.7351
 4945TIP3    H236327   5.765   0.041  13.426  0.1857  1.6379 -0.9491
 4946TIP3   OH236328   6.020   6.474   6.109  1.1331  0.0853  0.9515
 4946TIP3    H136329   6.116   6.472   6.110  1.1997  0.5626 -1.2230
 4946TIP3    H236330   5.998   6.545   6.047 -0.6013 -1.4433 -0.2383
 4947TIP3   OH236331   3.144   5.262   3.220  0.1434  0.0152 -0.7921
 4947TIP3    H136332   3.219   5.303   3.178 -0.0322  0.1691 -0.9561
 4947TIP3    H236333   3.182   5.203   3.286  0.4153 -0.1272 -1.0748
 4948TIP3   OH236334   2.327   1.118   5.897 -0.3165  0.1799  0.0483
 4948TIP3    H136335   2.270   1.084   5.966 -1.0550 -1.3956 -1.3169
 4948TIP3    H236336   2.363   1.040   5.855 -0.0105  1.1211 -1.4588
 4949TIP3   OH236337   0.659   1.832   4.325  0.1357 -0.2105 -0.2904
 4949TIP3    H136338   0.722   1.801   4.260 -0.9747 -2.8184 -0.1575
 4949TIP3    H236339   0.709   1.835   4.407  0.4180 -1.0231 -0.4362
 4950TIP3   OH236340   2.847   6.249   3.699 -0.3122  0.0875  0.0353
 4950TIP3    H136341   2.905   6.189   3.652  0.9436  0.6214  0.8985
 4950TIP3    H236342   2.821   6.313   3.633  0.9424  0.4732 -0.0972
 4951TIP3   OH236343   4.709   0.316   5.211  0.2790  0.2279  0.3381
 4951TIP3    H136344   4.776   0.353   5.153 -0.3733 -3.0586 -2.6982
 4951TIP3    H236345   4.732   0.223   5.217 -2.3159 -0.3613  1.7089
 4952TIP3   OH236346   3.954   3.374  12.359 -0.1671  0.6733 -0.2136
 4952TIP3    H136347   4.024   3.430  12.392  1.0850 -1.1973  0.3926
 4952TIP3    H236348   3.889   3.373  12.430  0.3222  0.4661  0.2374
 4953TIP3   OH236349   4.572   2.148  17.228  0.3107 -0.6760 -0.2673
 4953TIP3    H136350   4.543   2.062  17.196 -1.5898  0.4665 -1.6726
 4953TIP3    H236351   4.495   2.185  17.271  0.7023  0.9639 -0.9676
 4954TIP3   OH236352   1.483   5.104   4.288 -0.3576  0.5836 -0.2646
 4954TIP3    H136353   1.467   5.133   4.198  0.5083  0.6717 -0.3960
 4954TIP3    H236354   1.558   5.156   4.316  1.4029 -1.6839 -0.5920
 4955TIP3   OH236355   0.610   2.386   4.496  0.2049  0.7967  0.0559
 4955TIP3    H136356   0.689   2.398   4.443 -0.3112  1.3844 -0.5844
 4955TIP3    H236357   0.641   2.389   4.586  1.0246  0.2548 -0.2033
 4956TIP3   OH236358   4.422   0.357  12.839  0.1905 -0.0650 -0.1498
 4956TIP3    H136359   4.413   0.334  12.931  1.0284 -2.2493 -0.5879
 4956TIP3    H236360   4.492   0.300  12.807 -0.3789  0.3749 -2.2417
 4957TIP3   OH236361   4.832   6.439  11.994  0.0899  0.3254  0.0539
 4957TIP3    H136362   4.859   6.382  12.066 -0.0826  0.8302  0.5216
 4957TIP3    H236363   4.914   6.458  11.946 -0.3096 -2.9195 -2.0346
 4958TIP3   OH236364   0.436   5.798   4.664 -0.5772 -0.2281  0.0122
 4958TIP3    H136365   0.527   5.797   4.695 -0.2294  1.6515 -0.8658
 4958TIP3    H236366   0.419   5.890   4.644 -2.1533 -0.8019 -1.3553
 4959TIP3   OH236367   3.847   0.511  12.937  0.0713 -0.1469  0.5726
 4959TIP3    H136368   3.907   0.584  12.951 -0.4325  0.3681  0.0845
 4959TIP3    H236369   3.890   0.436  12.979  0.6085  0.4163  1.0433
 4960TIP3   OH236370   6.283   1.136  14.185  0.4585 -0.0639 -0.0329
 4960TIP3    H136371   6.201   1.087  14.186  0.8109 -0.6426  0.6796
 4960TIP3    H236372   6.272   1.202  14.253  0.4803  0.0336 -0.1244
 4961TIP3   OH236373   1.165   1.865  15.600  0.6763  0.3047 -0.0257
 4961TIP3    H136374   1.259   1.881  15.589  0.4347  2.2394  0.4894
 4961TIP3    H236375   1.159   1.806  15.675  1.3977  1.5324  1.0131
 4962TIP3   OH236376   4.973   3.926  11.424  0.2828  0.5904  0.2596
 4962TIP3    H136377   4.920   3.853  11.391  1.0307  0.2028 -0.0999
 4962TIP3    H236378   4.912   3.999  11.431 -0.4987 -0.0988  0.7133
 4963TIP3   OH236379   4.154   0.087  15.483  0.1978  0.2522  0.1656
 4963TIP3    H136380   4.207   0.163  15.458  2.0379 -0.8539  0.6272
 4963TIP3    H236381   4.122   0.107  15.571  1.2285  0.1918  0.5501
 4964TIP3   OH236382   1.955   1.029  16.620  0.4230 -0.1980 -0.0466
 4964TIP3    H136383   1.904   1.067  16.692  2.4830  1.8092  0.3823
 4964TIP3    H236384   2.029   0.986  16.663  2.1448  1.7639 -1.0026
 4965TIP3   OH236385   4.961   3.890  14.457 -0.4780 -0.1088  0.3112
 4965TIP3    H136386   5.055   3.906  14.458 -0.3286 -0.9876  0.6207
 4965TIP3    H236387   4.937   3.880  14.549 -0.4879 -2.0730  0.1112
 4966TIP3   OH236388   0.027   3.259   4.002  0.5842 -0.0490  0.0581
 4966TIP3    H136389  -0.026   3.288   3.929 -2.2098 -1.6488  1.3835
 4966TIP3    H236390   0.088   3.195   3.965 -0.8778 -0.9201 -0.8508
 4967TIP3   OH236391   0.752   6.031  10.888  0.0077 -0.3050 -0.6996
 4967TIP3    H136392   0.807   5.996  10.819 -0.0816  0.7912 -1.3362
 4967TIP3    H236393   0.795   6.112  10.915 -1.6022  0.9192 -1.6690
 4968TIP3   OH236394   0.218   0.861   5.075  0.0952  0.1088  0.0298
 4968TIP3    H136395   0.178   0.930   5.022  1.1830  0.4578 -0.3474
 4968TIP3    H236396   0.236   0.791   5.012  0.4604  0.1214  0.1210
 4969TIP3   OH236397   1.390   2.042  13.098  0.0699  0.0210 -0.4171
 4969TIP3    H136398   1.315   2.055  13.156 -0.5248 -2.2583 -0.6166
 4969TIP3    H236399   1.351   2.020  13.013  0.9421 -0.0117 -0.8174
 4970TIP3   OH236400   5.899   4.602   2.599 -0.4070 -0.7640  0.8509
 4970TIP3    H136401   5.877   4.628   2.688 -0.8232 -1.0488  0.8312
 4970TIP3    H236402   5.817   4.571   2.561 -0.0655 -1.4350  0.6402
 4971TIP3   OH236403   6.404   0.636   5.953  0.4209 -0.1972  0.2950
 4971TIP3    H136404   6.424   0.610   6.043 -0.5407 -0.7345  0.3603
 4971TIP3    H236405   6.343   0.570   5.922 -1.3582  1.4428  0.1664
 4972TIP3   OH236406   0.696   5.312  14.592 -0.6213 -0.2614  0.4733
 4972TIP3    H136407   0.733   5.241  14.645  1.7424  0.8925  0.4141
 4972TIP3    H236408   0.640   5.360  14.653 -0.2191 -0.6769  1.1739
 4973TIP3   OH236409   4.493   1.985   4.094  0.0436  0.3282  0.1169
 4973TIP3    H136410   4.443   2.045   4.040 -0.0930  1.7082  1.7619
 4973TIP3    H236411   4.585   2.008   4.077  0.0642 -0.4528 -0.8892
 4974TIP3   OH236412   0.718   6.068   3.186 -0.6439 -0.3364  0.1223
 4974TIP3    H136413   0.767   5.991   3.217  1.2606  0.9372  0.3994
 4974TIP3    H236414   0.681   6.040   3.102  0.5948 -1.3574 -0.1180
 4975TIP3   OH236415   0.369   3.671   1.670  0.0986  0.1472  0.1048
 4975TIP3    H136416   0.331   3.643   1.753 -0.1964  0.5757  0.1150
 4975TIP3    H236417   0.447   3.617   1.660 -0.2452 -0.3886  0.3241
 4976TIP3   OH236418   2.990   1.398   5.760  0.0668 -0.0386  0.3316
 4976TIP3    H136419   2.953   1.363   5.841  0.2595  0.4661  0.6338
 4976TIP3    H236420   3.013   1.320   5.709  0.9473 -0.3537  1.2050
 4977TIP3   OH236421   4.095   2.247   0.854 -0.2517  0.2961  0.1873
 4977TIP3    H136422   4.137   2.320   0.809 -0.7954  0.0872 -0.6747
 4977TIP3    H236423   4.032   2.288   0.912 -3.4235  0.4416 -3.1938
 4978TIP3   OH236424   4.026   2.720  14.622 -0.0997 -0.4002 -0.1255
 4978TIP3    H136425   3.962   2.728  14.552  1.7833 -0.7675 -1.9554
 4978TIP3    H236426   4.094   2.783  14.599  1.5361 -1.9966  0.2321
 4979TIP3   OH236427   4.350   1.061   2.852  0.1362 -0.6507  0.1696
 4979TIP3    H136428   4.445   1.059   2.840  0.0639 -1.1952 -0.3133
 4979TIP3    H236429   4.314   1.044   2.765 -0.4191  1.3799 -0.0432
 4980TIP3   OH236430   2.746   0.410   2.436  0.3389  0.2534 -0.3222
 4980TIP3    H136431   2.785   0.343   2.379  1.6050  1.1600 -0.5517
 4980TIP3    H236432   2.788   0.492   2.408  0.1211  0.8758  1.1521
 4981TIP3   OH236433   1.287   4.482   3.899 -0.3764 -0.1634  0.0477
 4981TIP3    H136434   1.264   4.564   3.942 -2.0581 -0.3057 -0.5426
 4981TIP3    H236435   1.377   4.494   3.869 -0.8881  1.7810 -0.7490
 4982TIP3   OH236436   6.623   3.337  13.288 -0.0079  0.0252 -0.6723
 4982TIP3    H136437   6.545   3.389  13.268  0.1323  0.9142  0.9700
 4982TIP3    H236438   6.680   3.349  13.211 -1.0243  0.2479 -1.4062
 4983TIP3   OH236439   6.049   2.220  14.343  0.1928  0.5794  0.2583
 4983TIP3    H136440   6.135   2.257  14.323 -0.1286  1.3758  0.3188
 4983TIP3    H236441   5.991   2.297  14.350 -0.1437  0.1957  2.0829
 4984TIP3   OH236442   2.197   6.327  12.214  0.4101 -0.0681 -0.6386
 4984TIP3    H136443   2.172   6.379  12.138  0.8834 -0.6474 -1.1926
 4984TIP3    H236444   2.287   6.355  12.233 -0.3973  1.5589  0.9694
 4985TIP3   OH236445   2.468   3.679  15.490 -0.6253 -0.9727 -0.3573
 4985TIP3    H136446   2.496   3.763  15.528  0.2409 -1.1565 -0.5693
 4985TIP3    H236447   2.433   3.630  15.564  0.9031 -1.2664  0.1898
 4986TIP3   OH236448   4.651   0.100  11.971  0.4439  0.1703  0.1749
 4986TIP3    H136449   4.728   0.103  12.028 -0.2064  1.0675  1.0364
 4986TIP3    H236450   4.679   0.143  11.890 -0.3626  4.6240  2.0633
 4987TIP3   OH236451   6.300   6.339   4.363 -0.0731 -0.1543 -0.1038
 4987TIP3    H136452   6.252   6.393   4.426 -0.7023  0.8201 -1.3789
 4987TIP3    H236453   6.266   6.250   4.377 -1.2832  0.2971 -0.0739
 4988TIP3   OH236454   5.082   5.867   1.087 -0.4342  0.0967  0.3323
 4988TIP3    H136455   5.083   5.825   1.173 -0.2593  0.9396  0.7362
 4988TIP3    H236456   5.123   5.952   1.100 -0.4559  0.2541 -0.5722
 4989TIP3   OH236457   3.364   4.687  14.171 -0.5293  0.2289  0.6765
 4989TIP3    H136458   3.446   4.736  14.158 -0.7049 -0.0720 -1.8961
 4989TIP3    H236459   3.383   4.599  14.138 -1.3887 -0.3337  1.6506
 4990TIP3   OH236460   5.789   6.227  13.138  0.4746  0.0696 -0.3963
 4990TIP3    H136461   5.864   6.284  13.150  1.4784 -1.3483  0.2895
 4990TIP3    H236462   5.736   6.240  13.217  0.1225  0.8620 -0.7544
 4991TIP3   OH236463   2.283   0.252   5.318  0.0749  0.2017  0.6237
 4991TIP3    H136464   2.348   0.230   5.252  2.0206  1.5534  2.0162
 4991TIP3    H236465   2.226   0.316   5.275 -0.5765 -1.2317 -0.7084
 4992TIP3   OH236466   1.144   5.816   5.166 -0.3786 -0.5247 -0.3257
 4992TIP3    H136467   1.195   5.896   5.176  0.9325 -1.3209 -0.4634
 4992TIP3    H236468   1.082   5.835   5.095 -0.4672  0.5407  0.0268
 4993TIP3   OH236469   5.530   5.651  12.065  0.0221 -0.0753 -0.2943
 4993TIP3    H136470   5.547   5.700  12.145 -0.3146 -0.9602  0.3247
 4993TIP3    H236471   5.615   5.613  12.042 -0.3560 -1.6815  0.9038
 4994TIP3   OH236472   5.936   5.746  13.079 -0.4344 -0.7118 -0.4304
 4994TIP3    H136473   6.018   5.719  13.121  0.0337 -0.0498 -0.9134
 4994TIP3    H236474   5.930   5.693  13.000 -0.1138 -0.2621 -0.7595
 4995TIP3   OH236475   1.408   5.943  14.878 -0.4190  0.1846  0.4833
 4995TIP3    H136476   1.415   6.030  14.838  3.2549 -0.3321 -0.2089
 4995TIP3    H236477   1.398   5.883  14.804  3.0909 -0.4585  0.4060
 4996TIP3   OH236478   5.350   6.236  14.642  0.1480 -0.2555  0.2101
 4996TIP3    H136479   5.277   6.254  14.702  1.1102  0.4697  1.1615
 4996TIP3    H236480   5.343   6.304  14.575  0.9566  0.8349  1.2257
 4997TIP3   OH236481   2.316   3.902  14.323  0.0141 -0.0023  0.3783
 4997TIP3    H136482   2.377   3.902  14.250 -0.3075 -0.2798  0.1066
 4997TIP3    H236483   2.251   3.835  14.300 -0.0356 -0.1561  0.9596
 4998TIP3   OH236484   5.236   2.544  16.420 -0.2120  0.8472  0.2393
 4998TIP3    H136485   5.172   2.613  16.405 -1.4653 -0.8586 -2.6941
 4998TIP3    H236486   5.321   2.583  16.399 -0.8731  1.6046 -1.0053
 4999TIP3   OH236487   4.279   3.962   0.800 -0.1159 -0.3852 -0.6876
 4999TIP3    H136488   4.207   4.009   0.758 -0.0417  0.8811  0.5692
 4999TIP3    H236489   4.320   4.027   0.857 -0.2186 -2.0642  1.3299
 5000TIP3   OH236490   0.337   1.147   0.517 -0.1803  0.3839 -0.1866
 5000TIP3    H136491   0.420   1.102   0.528 -0.5298 -0.5645 -1.3299
 5000TIP3    H236492   0.347   1.198   0.436 -0.8761 -0.1231 -0.5968
 5001TIP3   OH236493   6.793   5.528   2.116  0.0673 -0.0519  0.3525
 5001TIP3    H136494   6.887   5.532   2.102 -0.0152  0.0242 -0.1770
 5001TIP3    H236495   6.766   5.620   2.125  0.2787 -0.1472  2.0691
 5002TIP3   OH236496   3.158   1.502   3.494 -0.2912 -0.6735  0.1647
 5002TIP3    H136497   3.165   1.590   3.531 -2.7786 -0.4504  0.1630
 5002TIP3    H236498   3.191   1.445   3.563 -4.1930 -0.1914  2.5802
 5003TIP3   OH236499   5.628   0.479   4.454  0.0804 -0.2042 -0.0777
 5003TIP3    H136500   5.571   0.451   4.383  0.0074 -2.1715  0.7079
 5003TIP3    H236501   5.578   0.546   4.500  0.1424  1.1083 -1.8742
 5004TIP3   OH236502   5.422   1.285   1.938  0.1951 -0.3283 -0.1789
 5004TIP3    H136503   5.338   1.282   1.985  0.2101 -1.4755 -0.2018
 5004TIP3    H236504   5.404   1.336   1.860 -0.1588  0.5260  0.4474
 5005TIP3   OH236505   2.681   4.094  14.900  0.3617 -0.1073 -0.1799
 5005TIP3    H136506   2.681   3.999  14.909  3.1655 -0.1075  0.2155
 5005TIP3    H236507   2.621   4.111  14.827  0.7296 -2.2610 -1.0289
 5006TIP3   OH236508   0.954   1.405   3.370  0.0052 -0.2239  0.7482
 5006TIP3    H136509   0.901   1.483   3.353 -0.0135  0.0944  2.2178
 5006TIP3    H236510   0.998   1.423   3.453  1.0243 -1.2398  0.4492
 5007TIP3   OH236511   5.261   3.088   2.171  0.0553 -0.0269  0.2178
 5007TIP3    H136512   5.209   3.167   2.158 -0.2969 -0.3782 -0.6002
 5007TIP3    H236513   5.209   3.035   2.231 -0.7987 -0.6037 -1.0090
 5008TIP3   OH236514   5.421   3.906   2.037 -0.1419 -0.3288 -0.1700
 5008TIP3    H136515   5.432   3.886   1.944 -0.4977 -0.8379 -0.1038
 5008TIP3    H236516   5.507   3.889   2.076 -0.2796 -1.1497 -0.2189
 5009TIP3   OH236517   0.216   3.181   5.184 -0.5086  0.1014  0.2269
 5009TIP3    H136518   0.271   3.260   5.193 -0.4170  0.5653 -3.7653
 5009TIP3    H236519   0.279   3.109   5.181 -0.2420  0.3787 -1.4090
 5010TIP3   OH236520   0.377   1.828  16.784  0.0212 -0.2553 -0.3496
 5010TIP3    H136521   0.413   1.848  16.871 -1.2423  1.3015 -0.1812
 5010TIP3    H236522   0.431   1.879  16.724 -0.7995  0.7316 -0.2484
 5011TIP3   OH236523   3.753   0.340  14.626 -0.3483 -0.3084  0.0914
 5011TIP3    H136524   3.754   0.434  14.643  0.1400 -0.5151  1.2464
 5011TIP3    H236525   3.800   0.302  14.700 -0.7221 -1.4783 -0.2654
 5012TIP3   OH236526   2.811   3.391   1.650 -0.0877  0.9171  0.2108
 5012TIP3    H136527   2.770   3.339   1.581  0.9914  0.4789 -0.1143
 5012TIP3    H236528   2.857   3.461   1.604  0.1760  0.9483  0.5186
 5013TIP3   OH236529   5.655   3.272  12.298 -0.0832  0.4237  0.0347
 5013TIP3    H136530   5.661   3.213  12.222  0.8466  1.5677 -0.7880
 5013TIP3    H236531   5.578   3.325  12.281  1.2381  2.0359 -1.1145
 5014TIP3   OH236532   0.564   0.890  10.906 -0.3485 -0.1272 -0.6450
 5014TIP3    H136533   0.545   0.846  10.823  1.2848  0.0555 -1.1329
 5014TIP3    H236534   0.659   0.882  10.917 -0.5385 -0.1353  1.2047
 5015TIP3   OH236535   4.837   6.087   0.963  0.1452  0.4020  0.2056
 5015TIP3    H136536   4.906   6.069   0.899 -0.7588  0.2971 -0.7687
 5015TIP3    H236537   4.813   6.178   0.947 -1.7087 -0.2974 -1.2528
 5016TIP3   OH236538   3.403   5.689  11.305 -0.2124  0.0039 -0.0057
 5016TIP3    H136539   3.385   5.700  11.399 -2.4676 -0.9958 -0.2967
 5016TIP3    H236540   3.355   5.760  11.263 -2.2124 -1.7040 -0.6643
 5017TIP3   OH236541   2.120   2.598  15.603  0.2962 -0.1560  0.3095
 5017TIP3    H136542   2.197   2.636  15.646  0.0538  0.8086 -0.0927
 5017TIP3    H236543   2.154   2.560  15.522  0.3620  0.2297  0.1530
 5018TIP3   OH236544   5.263   3.809  12.883  0.3642 -0.3940 -0.2844
 5018TIP3    H136545   5.210   3.861  12.823  2.4659  1.5958 -0.5093
 5018TIP3    H236546   5.319   3.756  12.826  0.2495 -0.7505 -0.0672
 5019TIP3   OH236547   0.881   4.632  12.272  0.1771 -0.0517 -0.1585
 5019TIP3    H136548   0.975   4.625  12.285  0.6960  1.2061 -2.8086
 5019TIP3    H236549   0.849   4.542  12.270  1.3385 -0.4821  0.5593
 5020TIP3   OH236550   0.427   0.712  10.311 -0.8697 -0.2531 -0.4342
 5020TIP3    H136551   0.352   0.688  10.366 -0.1326 -1.1624  0.1840
 5020TIP3    H236552   0.504   0.691  10.365 -0.1761  1.9135 -0.5395
 5021TIP3   OH236553   2.882   5.864   4.627 -0.2566  0.0933 -0.0816
 5021TIP3    H136554   2.886   5.927   4.699  0.5559 -0.3659  0.2866
 5021TIP3    H236555   2.966   5.875   4.581 -1.0328  0.8361 -1.3493
 5022TIP3   OH236556   6.757   1.694   1.154  0.2001 -0.2281 -0.0932
 5022TIP3    H136557   6.718   1.607   1.150 -1.6736  0.5575  0.4752
 5022TIP3    H236558   6.739   1.732   1.068  1.5661 -0.6123 -0.5621
 5023TIP3   OH236559   4.513   0.701  14.651 -0.3381 -0.1540 -1.0416
 5023TIP3    H136560   4.605   0.713  14.675 -0.3827  2.0369 -1.8317
 5023TIP3    H236561   4.515   0.669  14.561 -0.3377  0.6230 -1.3266
 5024TIP3   OH236562   0.810   2.566  15.583  0.2927 -0.3051 -0.5053
 5024TIP3    H136563   0.750   2.509  15.630  0.0002  0.5402  0.1711
 5024TIP3    H236564   0.883   2.578  15.644  0.7646 -0.6748 -0.9978
 5025TIP3   OH236565   2.975   4.416   6.134  0.2536 -0.1667 -0.2530
 5025TIP3    H136566   2.937   4.363   6.205  0.2354 -0.8359 -0.7552
 5025TIP3    H236567   3.044   4.361   6.097 -0.3574 -0.2004 -1.3584
 5026TIP3   OH236568   2.260   4.789  13.146 -0.1238  0.1995 -0.5675
 5026TIP3    H136569   2.282   4.856  13.082  0.8902 -0.9965 -1.4971
 5026TIP3    H236570   2.336   4.731  13.147 -0.0407  0.3092  1.8770
 5027TIP3   OH236571   4.486   0.697   1.442 -0.0208 -0.2586  0.5001
 5027TIP3    H136572   4.466   0.658   1.527 -1.5634 -1.8193 -0.5399
 5027TIP3    H236573   4.567   0.655   1.414  0.9985  0.9315  1.5751
 5028TIP3   OH236574   0.543   3.306  12.839 -0.5299  0.7364 -0.6770
 5028TIP3    H136575   0.563   3.219  12.875  0.0392  0.7846 -0.8767
 5028TIP3    H236576   0.483   3.288  12.766  0.9707  0.3645 -1.8308
 5029TIP3   OH236577   6.080   0.111  14.497 -0.1567  0.3866  0.2887
 5029TIP3    H136578   6.017   0.137  14.564 -0.3034  0.6353  0.0549
 5029TIP3    H236579   6.062   0.018  14.482 -1.3397  0.7612 -0.7075
 5030TIP3   OH236580   6.031   1.237  15.876  0.3666  0.0431 -0.2173
 5030TIP3    H136581   6.115   1.214  15.914 -0.3540 -0.1628  1.2778
 5030TIP3    H236582   6.043   1.224  15.782  1.8369 -0.5094  0.0386
 5031TIP3   OH236583   5.210   3.957   1.133 -0.2583 -0.2947 -0.4914
 5031TIP3    H136584   5.127   3.958   1.180 -0.0366 -0.0790 -0.1053
 5031TIP3    H236585   5.274   3.927   1.198  0.2011  0.8852 -0.3945
 5032TIP3   OH236586   0.485   3.837  16.669  0.3340 -0.8091 -0.2179
 5032TIP3    H136587   0.490   3.746  16.700  0.5256 -0.4576  0.8213
 5032TIP3    H236588   0.501   3.890  16.748  0.2426  0.1265 -0.8188
 5033TIP3   OH236589   2.287   4.137  14.461 -0.1986  0.4597 -0.0975
 5033TIP3    H136590   2.272   4.051  14.422  1.1209 -0.1429  0.7037
 5033TIP3    H236591   2.365   4.170  14.416 -0.8574  1.3669 -0.5994
 5034TIP3   OH236592   2.901   1.048   2.644 -0.5877 -0.4015 -0.3726
 5034TIP3    H136593   2.893   1.026   2.552 -1.6345  0.0180 -0.3935
 5034TIP3    H236594   2.975   0.996   2.676 -0.9857 -1.4603 -1.1592
 5035TIP3   OH236595   5.771   1.806  14.185 -0.5210  0.2234  0.2711
 5035TIP3    H136596   5.728   1.892  14.175 -1.5352 -0.3195 -0.1750
 5035TIP3    H236597   5.763   1.766  14.098 -0.0931 -0.3470  0.4942
 5036TIP3   OH236598   6.679   6.295   3.171  0.7669  0.2703 -0.0927
 5036TIP3    H136599   6.589   6.306   3.139  0.6186  1.5225  0.6982
 5036TIP3    H236600   6.729   6.363   3.125  0.7336  1.4690  1.6044
 5037TIP3   OH236601   1.262   2.777  12.573 -0.2625 -0.2695 -1.3072
 5037TIP3    H136602   1.260   2.699  12.628  0.5780  1.4846  1.3055
 5037TIP3    H236603   1.173   2.811  12.575 -0.0290  0.3132 -0.1959
 5038TIP3   OH236604   0.911   2.267  16.436  0.2127  0.0394 -0.1107
 5038TIP3    H136605   1.004   2.264  16.456  0.0061 -2.5020  0.6579
 5038TIP3    H236606   0.906   2.263  16.341  0.8710 -0.2521 -0.1297
 5039TIP3   OH236607   2.267   2.297   3.438 -0.0270  0.7384 -0.3267
 5039TIP3    H136608   2.308   2.369   3.487  0.2113  0.0249  0.5253
 5039TIP3    H236609   2.186   2.335   3.403  0.5495  1.6875 -0.6579
 5040TIP3   OH236610   1.295   3.217  10.979  0.0674  0.1138  0.1153
 5040TIP3    H136611   1.331   3.287  10.924 -0.5029  1.2263  1.1430
 5040TIP3    H236612   1.307   3.248  11.069 -1.4126 -0.5140  0.5402
 5041TIP3   OH236613   5.735   0.771  11.636 -0.0032 -0.0321 -0.1162
 5041TIP3    H136614   5.748   0.738  11.547 -0.7245  0.2145 -0.3180
 5041TIP3    H236615   5.679   0.848  11.625  0.9339  0.7334  0.4365
 5042TIP3   OH236616   4.677   2.240  11.636 -0.1814  0.3256  0.9114
 5042TIP3    H136617   4.746   2.227  11.701 -1.1836 -1.6397  1.6423
 5042TIP3    H236618   4.604   2.278  11.686 -1.3866 -2.3158  1.2639
 5043TIP3   OH236619   1.255   6.660  17.161 -0.3903 -0.0561  0.1759
 5043TIP3    H136620   1.258   6.569  17.190  0.5033 -0.6212 -1.5995
 5043TIP3    H236621   1.182   6.698  17.209 -0.5241 -1.5990  1.2442
 5044TIP3   OH236622   5.494   1.491   5.240 -0.6499 -0.0994 -0.0578
 5044TIP3    H136623   5.447   1.440   5.174 -0.0905 -0.6310 -0.0575
 5044TIP3    H236624   5.586   1.468   5.227 -0.5799 -0.6767  1.2854
 5045TIP3   OH236625   6.818   2.095   3.599  0.5267  0.0858 -0.1055
 5045TIP3    H136626   6.885   2.139   3.546  0.6250  1.1059  0.8423
 5045TIP3    H236627   6.848   2.107   3.690 -1.7359  1.9315  0.4550
 5046TIP3   OH236628   4.648   4.854  13.576  0.2213  0.2171  0.2212
 5046TIP3    H136629   4.593   4.857  13.654 -0.4142  0.3819 -0.2270
 5046TIP3    H236630   4.726   4.904  13.599  0.5388 -0.6712  1.1242
 5047TIP3   OH236631   6.413   0.943   2.942 -0.0684  0.8230  0.1725
 5047TIP3    H136632   6.441   1.032   2.960 -1.8700  1.2707  0.8513
 5047TIP3    H236633   6.493   0.891   2.949  0.9888  2.3573 -0.1850
 5048TIP3   OH236634   4.314   0.728  12.562 -0.1198  0.0138  0.0918
 5048TIP3    H136635   4.227   0.736  12.600 -0.1831  0.0823 -0.0671
 5048TIP3    H236636   4.373   0.724  12.638 -0.2369  0.2441  0.1940
 5049TIP3   OH236637   5.788   1.384  13.614  0.9604 -0.3434 -0.1222
 5049TIP3    H136638   5.725   1.318  13.643  0.3372 -0.0250 -0.7512
 5049TIP3    H236639   5.788   1.378  13.519 -2.1143  3.3139 -0.4334
 5050TIP3   OH236640   3.850   6.413   1.706 -0.6615 -0.0890 -0.1579
 5050TIP3    H136641   3.789   6.438   1.776  0.4021  1.3610  0.2770
 5050TIP3    H236642   3.936   6.430   1.743 -0.0045 -1.4717 -1.0173
 5051TIP3   OH236643   0.973   2.074   5.382  0.1072  0.3496  0.2126
 5051TIP3    H136644   0.986   2.166   5.361  2.4255 -0.2653 -1.2087
 5051TIP3    H236645   0.912   2.075   5.456  0.5634  3.0354  0.6065
 5052TIP3   OH236646   4.188   3.825   6.105 -0.0273 -0.2024  0.0321
 5052TIP3    H136647   4.148   3.836   6.191 -0.8388 -0.1384 -0.3510
 5052TIP3    H236648   4.237   3.906   6.090 -1.0012  0.3543 -0.1564
 5053TIP3   OH236649   3.654   5.331  11.118  0.3097 -0.5478  0.0724
 5053TIP3    H136650   3.681   5.285  11.198  2.0824  1.0440  0.4111
 5053TIP3    H236651   3.559   5.341  11.128  0.2058 -2.2205  0.9849
 5054TIP3   OH236652   4.596   6.083   2.132 -0.1286 -0.0143  0.6830
 5054TIP3    H136653   4.684   6.045   2.138  0.0468  0.6099  2.2576
 5054TIP3    H236654   4.568   6.064   2.043  1.3226 -0.8483  0.3886
 5055TIP3   OH236655   2.891   2.820   4.551 -0.1018 -0.0351  0.1339
 5055TIP3    H136656   2.904   2.904   4.507 -0.5003  0.5261  1.0928
 5055TIP3    H236657   2.973   2.803   4.597 -0.1128 -0.0584  0.1451
 5056TIP3   OH236658   3.714   6.162  15.256  0.9357  0.1997 -0.2399
 5056TIP3    H136659   3.771   6.119  15.320  1.4691  0.1985 -0.7165
 5056TIP3    H236660   3.634   6.109  15.254  1.8020 -1.0867 -1.2347
 5057TIP3   OH236661   6.023   6.507  15.138  0.5259  0.8456 -0.5065
 5057TIP3    H136662   5.978   6.466  15.212 -0.1061  1.2837 -0.6442
 5057TIP3    H236663   5.980   6.471  15.060 -0.1132  1.8470 -0.6264
 5058TIP3   OH236664   4.161   4.668  11.541  0.7567  0.6854  0.2557
 5058TIP3    H136665   4.239   4.723  11.538  0.7191  0.7840  1.1150
 5058TIP3    H236666   4.096   4.715  11.488  1.2685  0.6061 -0.4575
 5059TIP3   OH236667   6.681   2.775   4.285  0.6893 -0.1931 -0.0089
 5059TIP3    H136668   6.721   2.694   4.254  0.2665 -0.1636 -0.6392
 5059TIP3    H236669   6.610   2.792   4.223 -0.9704 -0.8000  1.6733
 5060TIP3   OH236670   3.676   3.990   4.887 -0.3437  0.0141 -0.1045
 5060TIP3    H136671   3.628   4.073   4.884 -0.1580  0.1344  0.2189
 5060TIP3    H236672   3.681   3.962   4.796  0.4975  0.8761 -0.3302
 5061TIP3   OH236673   1.473   4.389   2.170  0.5996 -0.0762  0.3460
 5061TIP3    H136674   1.541   4.419   2.110  0.9610  0.2663  0.9224
 5061TIP3    H236675   1.508   4.308   2.208 -0.3930 -1.2856 -1.2400
 5062TIP3   OH236676   5.992   0.302   1.411  0.8985 -0.5440  0.3185
 5062TIP3    H136677   5.979   0.325   1.503 -0.5328 -1.2624  0.3121
 5062TIP3    H236678   5.959   0.378   1.362  1.0778 -0.4215  0.3882
 5063TIP3   OH236679   4.525   3.480   0.298  0.2186  0.4172  0.3335
 5063TIP3    H136680   4.534   3.445   0.387  1.5540  1.4711  0.6117
 5063TIP3    H236681   4.560   3.411   0.242  1.6258  0.7503  0.7936
 5064TIP3   OH236682   1.033   5.748  14.765  0.4742 -0.6595 -0.4428
 5064TIP3    H136683   1.046   5.717  14.855 -0.8262  0.6780  0.2188
 5064TIP3    H236684   0.940   5.735  14.748  0.2104  1.3873 -0.7037
 5065TIP3   OH236685   2.470   5.192  16.375  0.4365  0.1313 -0.1131
 5065TIP3    H136686   2.499   5.101  16.377 -0.2441 -0.1543 -2.0360
 5065TIP3    H236687   2.523   5.233  16.307 -1.5189  0.3507 -1.5369
 5066TIP3   OH236688   5.876   1.777   4.872 -0.3896  0.1561  0.2265
 5066TIP3    H136689   5.949   1.831   4.901  0.7478 -1.4716  0.4574
 5066TIP3    H236690   5.808   1.840   4.848  0.4098  1.6414  1.7506
 5067TIP3   OH236691   6.312   6.770   3.652  0.0017 -0.3254  0.6323
 5067TIP3    H136692   6.385   6.796   3.597  0.7772 -2.3019  0.7096
 5067TIP3    H236693   6.250   6.843   3.646  2.6094  2.0787  1.7914
 5068TIP3   OH236694   2.190   1.240  13.560  0.1982  0.7020 -0.2193
 5068TIP3    H136695   2.119   1.246  13.497  0.5559 -1.2453 -0.8426
 5068TIP3    H236696   2.270   1.243  13.507  0.5045 -0.5816  0.1399
 5069TIP3   OH236697   6.415   4.159  15.523 -0.2468  0.0460  0.4546
 5069TIP3    H136698   6.381   4.116  15.444  0.9624  1.2516 -0.7521
 5069TIP3    H236699   6.337   4.194  15.566 -0.8130  0.4721 -0.8763
 5070TIP3   OH236700   1.127   4.403   3.262  0.1598 -0.0827  0.2993
 5070TIP3    H136701   1.055   4.415   3.201 -0.6009 -0.0560  1.1789
 5070TIP3    H236702   1.132   4.308   3.274 -0.3868 -0.0386  0.9779
 5071TIP3   OH236703   0.651   4.312  17.281  0.0481  0.1293 -0.6959
 5071TIP3    H136704   0.601   4.231  17.295 -1.2227  0.7496 -1.6190
 5071TIP3    H236705   0.597   4.365  17.223  0.0578  2.4078  1.2962
 5072TIP3   OH236706   2.441   2.855   2.992 -0.4622  0.3540 -0.5925
 5072TIP3    H136707   2.533   2.854   3.018 -0.9841 -0.1665  1.3379
 5072TIP3    H236708   2.412   2.764   3.001 -1.2137  0.5466 -1.0060
 5073TIP3   OH236709   2.158   1.907   6.261 -0.3957 -0.2270  0.4268
 5073TIP3    H136710   2.136   1.816   6.242  1.0598 -0.2245 -1.3497
 5073TIP3    H236711   2.237   1.901   6.316  0.9720 -0.0094 -1.4783
 5074TIP3   OH236712   5.036   4.410   0.373 -0.0908 -0.0303  0.3613
 5074TIP3    H136713   5.027   4.378   0.283  0.4779 -0.0144  0.2974
 5074TIP3    H236714   5.086   4.491   0.365  0.1659 -0.1500  0.7083
 5075TIP3   OH236715   1.726   6.387   5.094 -0.1133 -0.0014  0.0412
 5075TIP3    H136716   1.681   6.457   5.141  1.5085  0.7489  0.5194
 5075TIP3    H236717   1.662   6.356   5.030 -1.5592  0.5124  1.2004
 5076TIP3   OH236718   2.704   1.413   4.956 -0.0433 -0.3917  1.0973
 5076TIP3    H136719   2.635   1.356   4.922 -1.2797  1.5205  0.3133
 5076TIP3    H236720   2.731   1.466   4.881 -1.4074  2.4943  2.5428
 5077TIP3   OH236721   3.164   1.451  15.554 -0.5418  0.7539 -0.5284
 5077TIP3    H136722   3.184   1.432  15.645 -1.7588 -2.1534 -0.8023
 5077TIP3    H236723   3.247   1.438  15.507 -0.4880 -0.2234 -0.1680
 5078TIP3   OH236724   3.303   0.882  12.801  0.1719  0.5322 -0.0520
 5078TIP3    H136725   3.355   0.951  12.760 -1.1518 -0.4264 -3.4783
 5078TIP3    H236726   3.216   0.893  12.764 -0.7503 -1.2600  1.5134
 5079TIP3   OH236727   3.333   0.337   4.158 -0.0400  0.6641  0.7108
 5079TIP3    H136728   3.299   0.311   4.243 -1.0700  1.9243  0.6975
 5079TIP3    H236729   3.382   0.418   4.176  1.4473 -0.1484  0.4283
 5080TIP3   OH236730   3.106   6.517  15.414 -0.1103 -0.1917 -0.3815
 5080TIP3    H136731   3.093   6.430  15.450  0.6566 -0.0234  0.3075
 5080TIP3    H236732   3.182   6.509  15.357  0.5687  0.2635  0.4670
 5081TIP3   OH236733   6.409   6.070   1.779 -0.2953 -0.5798  0.3281
 5081TIP3    H136734   6.446   6.016   1.849 -0.3675 -0.3257  0.5656
 5081TIP3    H236735   6.332   6.022   1.750 -0.2439 -0.7061  0.4013
 5082TIP3   OH236736   3.575   3.081  14.991  0.0052 -0.3237  0.4824
 5082TIP3    H136737   3.510   3.064  14.923 -0.6519 -0.9652  1.2611
 5082TIP3    H236738   3.585   2.997  15.036  1.6619 -0.3280  0.1213
 5083TIP3   OH236739   5.928   2.745  15.291  0.2786 -0.5231 -0.6701
 5083TIP3    H136740   5.990   2.711  15.227  0.9103 -0.2875 -0.1874
 5083TIP3    H236741   5.972   2.820  15.330 -0.6821  0.2097 -0.9702
 5084TIP3   OH236742   4.584   2.040   0.770 -0.4450  0.1866 -0.1313
 5084TIP3    H136743   4.519   2.035   0.700 -0.8397  0.1809  0.2340
 5084TIP3    H236744   4.535   2.069   0.847 -0.0621 -0.0355  0.2010
 5085TIP3   OH236745   6.625   5.498  11.539  0.5298  0.4341 -0.0651
 5085TIP3    H136746   6.610   5.409  11.506 -0.3116  0.1159  1.1635
 5085TIP3    H236747   6.561   5.509  11.608 -0.1338  2.4371 -0.9793
 5086TIP3   OH236748   1.534   3.177   2.440 -0.5387 -0.4302  0.2301
 5086TIP3    H136749   1.546   3.226   2.359 -0.5872  0.7327  0.9156
 5086TIP3    H236750   1.623   3.164   2.474 -0.5680 -0.1734  0.4125
 5087TIP3   OH236751   0.097   5.862  15.088  0.7273  0.2782  0.1077
 5087TIP3    H136752   0.011   5.897  15.113  1.0056  0.6442  0.5566
 5087TIP3    H236753   0.146   5.938  15.057  2.3779  0.9025  3.9189
 5088TIP3   OH236754   2.271   2.690  12.804 -0.4127  0.0550 -0.2694
 5088TIP3    H136755   2.219   2.610  12.792  0.3927 -0.5554  0.2111
 5088TIP3    H236756   2.215   2.760  12.772 -1.7488 -0.5264  0.7406
 5089TIP3   OH236757   3.330   6.488   1.350  0.5010  0.2683 -0.2737
 5089TIP3    H136758   3.286   6.550   1.292  1.0296  0.7056 -0.2063
 5089TIP3    H236759   3.267   6.417   1.361 -0.4201  1.1564  0.2912
 5090TIP3   OH236760   2.452   2.550  16.466  0.3692 -0.2564 -0.0074
 5090TIP3    H136761   2.521   2.502  16.421  0.4806  0.2655 -0.3937
 5090TIP3    H236762   2.408   2.600  16.397  0.2722  0.2214  0.3922
 5091TIP3   OH236763   4.437   5.774  10.663 -0.3820 -0.5220  0.1119
 5091TIP3    H136764   4.505   5.842  10.660 -0.1579 -0.7392  0.2787
 5091TIP3    H236765   4.385   5.790  10.584  0.6518 -1.1574 -0.7163
 5092TIP3   OH236766   2.852   0.455   0.975 -0.3157 -0.0238  0.2422
 5092TIP3    H136767   2.938   0.493   0.956 -0.8570  0.8704 -0.4567
 5092TIP3    H236768   2.861   0.363   0.951  0.3598  0.1312 -0.1192
 5093TIP3   OH236769   0.181   6.203   5.865  0.0462 -0.1124 -0.0097
 5093TIP3    H136770   0.237   6.249   5.803  0.0269  1.1157  0.8561
 5093TIP3    H236771   0.195   6.248   5.948 -2.6644  0.6310  0.1141
 5094TIP3   OH236772   3.187   4.033   0.492 -0.0280 -0.3709  0.3675
 5094TIP3    H136773   3.173   4.033   0.586  0.3987 -1.5605  0.4367
 5094TIP3    H236774   3.100   4.046   0.454 -0.2340 -0.1461  0.9162
 5095TIP3   OH236775   5.195   0.486   0.903  0.4732 -0.3443 -0.4712
 5095TIP3    H136776   5.246   0.533   0.968  0.0078 -0.2905 -0.1447
 5095TIP3    H236777   5.168   0.553   0.840  1.2777 -0.4668 -0.9484
 5096TIP3   OH236778   3.512   3.007  11.509 -0.0638 -0.1558 -0.0116
 5096TIP3    H136779   3.567   2.958  11.570  2.4408  0.7255 -1.4804
 5096TIP3    H236780   3.538   2.976  11.422 -1.9879  0.2165 -0.7566
 5097TIP3   OH236781   5.463   3.942   1.619 -0.0102  0.0280 -0.1267
 5097TIP3    H136782   5.554   3.934   1.647 -0.3155 -0.3383  0.7694
 5097TIP3    H236783   5.464   4.012   1.553  0.7646  0.6657  0.5592
 5098TIP3   OH236784   5.670   2.708  16.091 -0.4100 -0.3480 -0.2895
 5098TIP3    H136785   5.619   2.783  16.061  0.8645  1.2313  1.3908
 5098TIP3    H236786   5.729   2.688  16.019 -0.2726  0.7227 -0.4702
 5099TIP3   OH236787   2.572   0.404  14.836  0.0622 -0.2930 -0.1207
 5099TIP3    H136788   2.563   0.499  14.839  0.6370 -0.2605  0.7449
 5099TIP3    H236789   2.554   0.381  14.745 -0.3756  0.6114 -0.2678
 5100TIP3   OH236790   6.347   6.806  17.083 -0.0760  0.0427  0.0354
 5100TIP3    H136791   6.393   6.741  17.030  0.1743 -0.8941  1.3856
 5100TIP3    H236792   6.332   6.763  17.167 -2.9065  0.5367 -0.1718
 5101TIP3   OH236793   6.579   3.207  12.376 -0.4688 -0.3247  0.6064
 5101TIP3    H136794   6.566   3.115  12.396  0.0854 -0.7337 -0.9363
 5101TIP3    H236795   6.514   3.227  12.309 -1.7465  0.8490  2.1252
 5102TIP3   OH236796   5.762   2.791   5.214  0.5753  0.1612  0.1124
 5102TIP3    H136797   5.805   2.705   5.219 -0.4659 -0.3578  0.2385
 5102TIP3    H236798   5.694   2.779   5.148 -1.1154  0.2001  1.7984
 5103TIP3   OH236799   0.701   3.136  13.163  0.5190  0.1046  0.4053
 5103TIP3    H136800   0.624   3.086  13.136  0.8037 -1.6738  2.7029
 5103TIP3    H236801   0.732   3.177  13.083 -1.7000 -0.7189 -0.9182
 5104TIP3   OH236802   6.693   3.059   2.386  0.0262 -0.3469  0.1225
 5104TIP3    H136803   6.720   2.991   2.448  0.4153 -0.5503 -0.2702
 5104TIP3    H236804   6.621   3.019   2.337  1.0104 -0.9014 -0.8966
 5105TIP3   OH236805   2.409   5.932  11.699 -0.0281  0.2624 -0.5620
 5105TIP3    H136806   2.388   6.005  11.640 -0.4173 -0.5769 -1.4780
 5105TIP3    H236807   2.399   5.969  11.786 -2.2412  0.7756 -0.9887
 5106TIP3   OH236808   6.770   5.957   5.415 -0.2238 -0.1531 -0.6915
 5106TIP3    H136809   6.842   5.903   5.447 -0.5948 -0.4065 -0.2841
 5106TIP3    H236810   6.762   6.028   5.478  0.7444  0.8035 -1.6181
 5107TIP3   OH236811   5.415   0.848   2.575 -0.9139  0.0666 -0.2296
 5107TIP3    H136812   5.363   0.902   2.634 -1.2204  0.6765 -1.0522
 5107TIP3    H236813   5.464   0.790   2.633 -1.5167  0.3823  0.6048
 5108TIP3   OH236814   5.260   3.802  13.353 -0.0240 -0.0570  0.5682
 5108TIP3    H136815   5.316   3.824  13.279 -2.8207 -1.0471 -1.9465
 5108TIP3    H236816   5.240   3.887  13.394  1.4687  0.5079  0.1660
 5109TIP3   OH236817   2.485   5.334  15.746  0.2308 -0.5203  0.2367
 5109TIP3    H136818   2.420   5.264  15.751  0.9783 -1.1296  1.7044
 5109TIP3    H236819   2.439   5.408  15.707 -0.8722 -1.4874 -0.2832
 5110TIP3   OH236820   5.763   5.508  15.530 -0.2277  0.2164 -0.4361
 5110TIP3    H136821   5.753   5.524  15.436 -0.2476 -0.8193 -0.6204
 5110TIP3    H236822   5.673   5.495  15.561 -0.3715  2.1647  0.0444
 5111TIP3   OH236823   6.101   3.535   6.488  0.2280 -0.3928  0.6880
 5111TIP3    H136824   6.029   3.550   6.427 -0.4944 -1.4798  1.2590
 5111TIP3    H236825   6.115   3.441   6.485  1.3950 -0.2317  0.8602
 5112TIP3   OH236826   0.510   5.569   1.875  1.0057  0.7489  0.5292
 5112TIP3    H136827   0.548   5.595   1.959 -1.7608 -1.1902  2.4528
 5112TIP3    H236828   0.468   5.648   1.841  0.3761  1.0489  1.9853
 5113TIP3   OH236829   6.775   1.843  15.645  0.3881  0.4553 -0.2862
 5113TIP3    H136830   6.871   1.845  15.647  0.4415 -1.5633  0.2695
 5113TIP3    H236831   6.749   1.887  15.726  0.9274 -1.4258  0.9517
 5114TIP3   OH236832   0.817   3.433   3.838  0.9479  0.4942 -0.4367
 5114TIP3    H136833   0.790   3.372   3.770  0.7442 -0.0369  0.1124
 5114TIP3    H236834   0.850   3.510   3.791 -0.0423  0.5026 -1.1190
 5115TIP3   OH236835   3.430   2.862  12.893 -0.0201  0.1594 -0.4446
 5115TIP3    H136836   3.443   2.876  12.987  2.4429 -1.5309 -0.4877
 5115TIP3    H236837   3.432   2.950  12.855 -0.6485  0.8272  1.0063
 5116TIP3   OH236838   1.813   2.195  10.676  0.1130 -0.6975  0.2392
 5116TIP3    H136839   1.746   2.126  10.679  0.5563 -1.1302  0.1232
 5116TIP3    H236840   1.896   2.148  10.666  0.1350 -0.0146 -3.4165
 5117TIP3   OH236841   6.069   5.103  12.893  0.4995 -0.0271  0.1827
 5117TIP3    H136842   6.148   5.100  12.947  0.4699  0.5703  0.2645
 5117TIP3    H236843   6.020   5.179  12.927  0.7541  0.6947 -1.0568
 5118TIP3   OH236844   4.776   4.309  14.861  0.0845 -0.5313 -0.3433
 5118TIP3    H136845   4.693   4.261  14.866 -0.7722  1.0044  0.2269
 5118TIP3    H236846   4.769   4.377  14.927  2.0289 -0.6970  0.0639
 5119TIP3   OH236847   3.741   0.851  15.250 -0.2203  0.0215  0.1792
 5119TIP3    H136848   3.793   0.783  15.293  0.2864  0.3783  0.1365
 5119TIP3    H236849   3.805   0.917  15.223 -1.0500  2.2748  3.4435
 5120TIP3   OH236850   1.897   5.330   1.599  0.0515 -0.2761 -0.2232
 5120TIP3    H136851   1.948   5.402   1.563 -0.3902  0.0958 -0.1171
 5120TIP3    H236852   1.807   5.351   1.575 -0.1811 -0.3328  0.5817
 5121TIP3   OH236853   5.966   6.192  15.029  0.5136 -0.7963 -0.1614
 5121TIP3    H136854   5.881   6.221  15.064  0.6793 -1.6550  0.9987
 5121TIP3    H236855   6.021   6.180  15.107  2.3470  1.7131 -1.0143
 5122TIP3   OH236856   5.622   6.124  14.632 -0.5175 -0.1354 -0.5084
 5122TIP3    H136857   5.527   6.133  14.644 -0.9432  0.6839 -4.1078
 5122TIP3    H236858   5.659   6.197  14.682 -1.8000 -0.1841  0.5367
 5123TIP3   OH236859   5.650   1.710  11.293  0.8254 -0.0319 -0.2719
 5123TIP3    H136860   5.647   1.617  11.271 -2.9372  0.0602 -0.3578
 5123TIP3    H236861   5.683   1.712  11.383  2.1798 -1.3264 -0.7150
 5124TIP3   OH236862   6.103   2.951   2.361  0.0172  0.3010  0.5569
 5124TIP3    H136863   6.192   2.944   2.328 -0.4326 -1.9521 -0.2503
 5124TIP3    H236864   6.098   2.887   2.432 -1.6354 -1.3513 -1.0016
 5125TIP3   OH236865   5.604   6.610  11.943  0.0922  0.1161 -0.7491
 5125TIP3    H136866   5.652   6.668  12.003 -1.3046  0.7740 -0.2641
 5125TIP3    H236867   5.666   6.539  11.924  2.3801  2.4691 -2.4993
 5126TIP3   OH236868   0.074   3.634   0.911  0.4020  0.1558 -0.0041
 5126TIP3    H136869   0.072   3.667   1.000  1.2162  2.7675 -0.9162
 5126TIP3    H236870   0.167   3.638   0.886  0.0830  0.1919 -1.2347
 5127TIP3   OH236871   3.342   6.600  11.857 -0.2857 -0.1146 -0.2195
 5127TIP3    H136872   3.285   6.575  11.784  1.5831  0.4612 -1.9117
 5127TIP3    H236873   3.365   6.691  11.840  2.1371 -0.7120 -0.2369
 5128TIP3   OH236874   3.073   0.892  11.477 -0.2388 -0.0790  0.0835
 5128TIP3    H136875   3.052   0.945  11.553  0.3029  1.5780 -0.8903
 5128TIP3    H236876   3.066   0.952  11.403  0.8983 -1.2260 -0.9933
 5129TIP3   OH236877   4.771   3.123   0.750  0.0778  0.0584  0.2866
 5129TIP3    H136878   4.689   3.087   0.716 -0.2183 -0.7362  1.7895
 5129TIP3    H236879   4.821   3.047   0.777  0.2827  0.6663  1.6415
 5130TIP3   OH236880   4.948   6.787   4.404 -0.5816  0.0121  0.5290
 5130TIP3    H136881   4.928   6.874   4.438 -1.3778  0.5504 -1.2437
 5130TIP3    H236882   4.889   6.728   4.450  0.3310  0.3129  2.1258
 5131TIP3   OH236883   5.836   0.477  14.516  0.2120 -0.4191  0.1290
 5131TIP3    H136884   5.767   0.495  14.452  0.8572 -0.7061 -0.6629
 5131TIP3    H236885   5.901   0.426  14.467  0.1448 -1.7060  1.3352
 5132TIP3   OH236886   0.138   2.680   1.231  0.0108  0.1388  0.2372
 5132TIP3    H136887   0.075   2.726   1.286 -1.1981 -0.0901 -0.9364
 5132TIP3    H236888   0.174   2.747   1.174  0.3351  0.1438  0.4461
 5133TIP3   OH236889   1.082   1.931   1.570 -0.9065  0.0816 -0.3845
 5133TIP3    H136890   1.147   1.907   1.636 -1.9994  0.5581  0.8757
 5133TIP3    H236891   1.124   2.001   1.520 -1.2746  1.9673  1.8620
 5134TIP3   OH236892   0.037   1.386  14.391 -0.2555 -0.0629  0.6196
 5134TIP3    H136893   0.116   1.360  14.438  0.8120  0.2443 -0.9711
 5134TIP3    H236894  -0.023   1.415  14.459  0.9354 -0.4550  1.8601
 5135TIP3   OH236895   5.451   5.319  13.308  0.1606 -0.2666 -0.0020
 5135TIP3    H136896   5.443   5.225  13.320 -1.3109 -0.1368  0.1548
 5135TIP3    H236897   5.538   5.340  13.341  0.3275 -1.5023  0.3717
 5136TIP3   OH236898   4.106   3.204   1.244 -0.5849  0.0322 -0.4975
 5136TIP3    H136899   4.144   3.205   1.332 -2.0848 -2.2122  0.1920
 5136TIP3    H236900   4.032   3.143   1.249 -3.1440  2.8058 -2.3017
 5137TIP3   OH236901   6.552   1.642  16.056 -0.1571  0.3287  0.2681
 5137TIP3    H136902   6.467   1.596  16.056 -0.4667  0.8888  1.5058
 5137TIP3    H236903   6.542   1.710  16.122  1.2543  0.4299  0.3835
 5138TIP3   OH236904   5.315   6.482   2.509  0.7926 -0.3137 -0.0970
 5138TIP3    H136905   5.273   6.541   2.447  0.5153 -0.7971 -0.3674
 5138TIP3    H236906   5.280   6.395   2.488 -1.2493 -0.1456  2.3727
 5139TIP3   OH236907   6.535   5.106   4.636 -0.1592 -0.2746 -0.2595
 5139TIP3    H136908   6.584   5.095   4.717 -0.8388  1.1590  0.3664
 5139TIP3    H236909   6.530   5.018   4.598  2.3718 -0.5450 -0.0505
 5140TIP3   OH236910   2.979   1.743  12.097  0.7101 -0.7958  0.3281
 5140TIP3    H136911   2.969   1.712  12.007 -0.3414 -0.2492  0.2385
 5140TIP3    H236912   3.062   1.707  12.126  0.8517 -1.3417 -0.7180
 5141TIP3   OH236913   2.150   1.656  14.151  0.5542 -0.0007  0.0317
 5141TIP3    H136914   2.127   1.682  14.240 -2.8087 -0.3564 -0.6724
 5141TIP3    H236915   2.118   1.727  14.096 -0.8687 -1.5381 -1.1897
 5142TIP3   OH236916   3.586   1.571  16.117 -0.3170  0.6088  0.0010
 5142TIP3    H136917   3.560   1.527  16.037  0.7163  3.1092 -1.7886
 5142TIP3    H236918   3.611   1.501  16.177 -0.3239 -1.2495 -2.1405
 5143TIP3   OH236919   4.512   6.160  15.975 -0.1175 -0.2058 -0.1591
 5143TIP3    H136920   4.552   6.177  15.890  0.2283 -2.1156 -0.3794
 5143TIP3    H236921   4.530   6.240  16.026 -0.5341  1.0397 -1.9272
 5144TIP3   OH236922   0.419   1.749  13.715 -0.2781  0.4161  0.1526
 5144TIP3    H136923   0.438   1.833  13.756 -0.4399  0.2447  0.5726
 5144TIP3    H236924   0.457   1.756  13.627 -1.8190  1.5631 -0.4306
 5145TIP3   OH236925   1.731   3.287   4.195 -0.9500  0.1384  0.3456
 5145TIP3    H136926   1.733   3.358   4.131 -0.4386 -1.0574 -1.0010
 5145TIP3    H236927   1.809   3.301   4.248 -1.1216  0.8717  0.4169
 5146TIP3   OH236928   4.258   3.043   4.719 -0.3038 -0.0549 -0.1289
 5146TIP3    H136929   4.173   3.083   4.736  0.4770  1.1092  1.2621
 5146TIP3    H236930   4.245   2.988   4.642 -2.0766  0.8392 -0.4881
 5147TIP3   OH236931   6.720   5.943  14.231  0.7440  0.0451  0.3999
 5147TIP3    H136932   6.627   5.924  14.237  0.7418 -1.0602 -2.4301
 5147TIP3    H236933   6.758   5.900  14.308 -0.9467 -0.2076  1.1184
 5148TIP3   OH236934   3.649   3.477  14.657  0.4585  0.3600 -0.3239
 5148TIP3    H136935   3.587   3.423  14.608 -1.5970  2.0014  0.3937
 5148TIP3    H236936   3.651   3.437  14.744  1.1565 -0.2523 -0.6131
 5149TIP3   OH236937   3.886   0.883   0.718  0.3063  0.5275 -0.2699
 5149TIP3    H136938   3.844   0.956   0.763 -0.3151 -0.2148  0.3583
 5149TIP3    H236939   3.839   0.806   0.748  0.8418 -0.1188 -1.0744
 5150TIP3   OH236940   2.413   4.092   5.801  0.0634  0.1079  0.1526
 5150TIP3    H136941   2.401   4.021   5.738  0.6785  0.3414 -0.2252
 5150TIP3    H236942   2.468   4.054   5.870  0.5433  0.2697 -0.1393
 5151TIP3   OH236943   0.053   0.969   1.108  0.5463  0.1735 -0.4089
 5151TIP3    H136944   0.049   0.983   1.014  1.4775 -0.6947 -0.5972
 5151TIP3    H236945  -0.038   0.960   1.135  0.3646 -2.3544 -1.6867
 5152TIP3   OH236946   5.082   5.651  15.417  0.2182  0.1869  0.2056
 5152TIP3    H136947   5.035   5.668  15.499 -1.2842 -1.6166 -0.2610
 5152TIP3    H236948   5.014   5.650  15.350  1.1058 -1.0630 -0.6905
 5153TIP3   OH236949   0.808   5.795  16.522 -0.2636 -0.4323 -0.1401
 5153TIP3    H136950   0.759   5.827  16.598  0.7338  1.4825 -0.2614
 5153TIP3    H236951   0.810   5.700  16.533 -1.9536 -0.3409  1.1067
 5154TIP3   OH236952   1.707   2.776   4.478 -0.5126  0.0303  0.0649
 5154TIP3    H136953   1.693   2.713   4.549  1.3140 -0.5209 -0.0176
 5154TIP3    H236954   1.780   2.739   4.428 -0.4523  1.4322 -0.9162
 5155TIP3   OH236955   0.929   6.529   2.153 -0.0027  0.0905 -0.1778
 5155TIP3    H136956   0.960   6.476   2.227  1.9834 -0.4567 -1.3798
 5155TIP3    H236957   0.923   6.467   2.080 -0.0125  1.0282 -0.9749
 5156TIP3   OH236958   0.042   1.614  13.045  0.2612  0.4692  0.3467
 5156TIP3    H136959  -0.006   1.661  12.977 -1.2608 -0.0680  1.0340
 5156TIP3    H236960   0.076   1.683  13.102 -0.8960  0.7977  0.6445
 5157TIP3   OH236961   6.801   4.002  11.217 -0.1895 -0.6556 -0.2453
 5157TIP3    H136962   6.717   3.960  11.234 -0.6746  0.3515 -0.1701
 5157TIP3    H236963   6.866   3.939  11.250 -0.9834 -0.4977  1.6739
 5158TIP3   OH236964   6.015   2.987  11.702  0.1638  0.2279  0.1023
 5158TIP3    H136965   6.100   3.027  11.722  1.1465 -1.0453 -1.4300
 5158TIP3    H236966   5.979   3.042  11.632  0.6423 -0.4291 -0.6592
 5159TIP3   OH236967   0.450   1.633  11.316 -0.4540 -0.0180 -0.5375
 5159TIP3    H136968   0.440   1.546  11.279 -0.5630  0.0798 -0.7433
 5159TIP3    H236969   0.405   1.630  11.400  0.5773 -0.5015  0.0040
 5160TIP3   OH236970   2.976   2.442  11.216  0.1865 -0.0860 -0.1411
 5160TIP3    H136971   3.043   2.413  11.278  0.4488 -0.1862 -0.4715
 5160TIP3    H236972   3.021   2.443  11.131 -0.6271 -1.5703 -0.5934
 5161TIP3   OH236973   1.366   1.777   2.697 -0.4173 -0.0976 -0.1691
 5161TIP3    H136974   1.328   1.695   2.666 -0.0272 -0.2017 -0.3839
 5161TIP3    H236975   1.451   1.752   2.734 -0.7629  0.0655  0.7367
 5162TIP3   OH236976   5.373   1.398   0.621  0.1805 -0.0308 -0.1600
 5162TIP3    H136977   5.334   1.346   0.551  0.8584 -0.8197  0.0417
 5162TIP3    H236978   5.396   1.334   0.689  1.1004  0.5231  0.0609
 5163TIP3   OH236979   5.028   0.302   4.189 -0.2803  0.0085 -0.1595
 5163TIP3    H136980   4.985   0.245   4.126 -0.0334 -0.3433 -0.0109
 5163TIP3    H236981   5.116   0.314   4.154 -0.3891  0.4493 -0.2858
 5164TIP3   OH236982   2.307   3.516  13.193 -0.2230  0.5505 -0.2203
 5164TIP3    H136983   2.325   3.608  13.213  0.6422  0.9458 -2.6671
 5164TIP3    H236984   2.212   3.512  13.179 -0.2179  1.1315 -0.4240
 5165TIP3   OH236985   5.098   6.641   1.577 -0.3199  0.3476  0.2291
 5165TIP3    H136986   5.154   6.590   1.636  0.8642  1.4796  0.1127
 5165TIP3    H236987   5.156   6.667   1.505 -1.9774 -1.9306 -2.0614
 5166TIP3   OH236988   0.929   5.946  12.429  0.0176 -0.1143 -0.0462
 5166TIP3    H136989   0.968   5.934  12.515 -1.3283 -0.8381  0.4803
 5166TIP3    H236990   0.938   6.040  12.411 -0.6890  0.2441  1.3857
 5167TIP3   OH236991   1.430   0.088  12.516  0.0528  0.1314 -0.0510
 5167TIP3    H136992   1.414   0.152  12.586  1.5834 -0.3003  0.7197
 5167TIP3    H236993   1.348   0.039  12.508 -0.4843  0.8971  0.6870
 5168TIP3   OH236994   4.291   3.422   0.028  0.7190  0.4262 -0.2385
 5168TIP3    H136995   4.270   3.401  -0.062  0.6305  0.3717 -0.2053
 5168TIP3    H236996   4.383   3.397   0.038  0.4059 -0.6325  0.0068
 5169TIP3   OH236997   1.955   4.570   2.224  0.4417  0.0554  0.4001
 5169TIP3    H136998   1.925   4.651   2.266 -1.7314 -0.2720 -0.4677
 5169TIP3    H236999   1.962   4.506   2.295  1.3437  0.7493  0.9526
 5170TIP3   OH237000   2.808   0.709  17.233 -0.1089 -0.4200  0.5609
 5170TIP3    H137001   2.864   0.643  17.191 -0.3000  1.0488 -2.1368
 5170TIP3    H237002   2.720   0.686  17.204 -0.3189  0.2460  0.6756
 5171TIP3   OH237003   2.328   4.372  14.159 -0.5553 -0.1723 -0.1182
 5171TIP3    H137004   2.283   4.387  14.076 -2.0135 -1.2960  0.4450
 5171TIP3    H237005   2.397   4.309  14.138 -0.7646 -0.2698 -0.5259
 5172TIP3   OH237006   1.580   6.042  15.765  0.3125 -0.4083  0.6507
 5172TIP3    H137007   1.600   6.111  15.829 -1.8842 -0.4362  1.4020
 5172TIP3    H237008   1.519   5.984  15.811  0.3436 -1.5787 -0.7676
 5173TIP3   OH237009   1.006   4.995   1.552 -0.2507 -0.3877 -0.3967
 5173TIP3    H137010   1.010   5.062   1.620  1.1628 -0.6869 -0.1706
 5173TIP3    H237011   1.067   4.928   1.580  0.1064 -0.6669 -1.7909
 5174TIP3   OH237012   5.582   1.567   4.158 -0.0371 -0.2001 -0.4850
 5174TIP3    H137013   5.505   1.518   4.187  0.8916 -2.3865 -1.5932
 5174TIP3    H237014   5.648   1.549   4.225 -0.0392  0.5176 -0.2826
 5175TIP3   OH237015   2.120   4.705   4.491 -0.3090 -1.0610  0.9023
 5175TIP3    H137016   2.112   4.633   4.554  1.1440 -1.2581  0.8785
 5175TIP3    H237017   2.140   4.782   4.545  0.0717 -1.0600  0.7613
 5176TIP3   OH237018   0.829   3.494   1.484 -0.0328  0.0051  0.1801
 5176TIP3    H137019   0.864   3.533   1.404  0.9216 -0.3121  0.4423
 5176TIP3    H237020   0.896   3.511   1.550 -0.0438 -1.2440  0.5165
 5177TIP3   OH237021   1.094   4.660  15.122 -0.8156 -0.0479  0.1974
 5177TIP3    H137022   1.121   4.632  15.035 -2.0733 -0.9687  0.0864
 5177TIP3    H237023   1.162   4.721  15.150  0.6001 -1.2281 -0.6361
 5178TIP3   OH237024   1.523   4.369   0.474 -0.5822 -0.5458 -0.4179
 5178TIP3    H137025   1.438   4.377   0.516  0.0361  1.7653  0.4894
 5178TIP3    H237026   1.505   4.376   0.380 -1.5239 -1.4715 -0.3106
 5179TIP3   OH237027   1.866   5.439  10.744 -0.3522 -0.2437 -0.0202
 5179TIP3    H137028   1.929   5.463  10.812  0.2748 -2.0622  0.0765
 5179TIP3    H237029   1.781   5.442  10.788 -0.0261 -0.6757  0.6524
 5180TIP3   OH237030   0.149   5.006  15.505  0.0785 -0.0987  0.0190
 5180TIP3    H137031   0.204   4.954  15.447  0.4392 -0.2771  0.5177
 5180TIP3    H237032   0.060   4.984  15.479  0.2370  0.4719 -1.0366
 5181TIP3   OH237033   5.045   6.210   5.187 -0.5426 -0.2377 -0.0134
 5181TIP3    H137034   5.122   6.261   5.162 -1.5597  0.2728 -2.1778
 5181TIP3    H237035   5.069   6.119   5.169  0.3925 -0.3502  1.6018
 5182TIP3   OH237036   1.778   0.324   0.721  0.2408 -0.1791 -0.0564
 5182TIP3    H137037   1.858   0.335   0.771 -0.5419 -0.9477  1.3870
 5182TIP3    H237038   1.785   0.388   0.650  1.2068  1.1585  1.2299
 5183TIP3   OH237039   6.170   5.534  12.745  0.1402  0.1688 -0.1864
 5183TIP3    H137040   6.248   5.560  12.695  1.1633 -0.7865  0.8562
 5183TIP3    H237041   6.174   5.438  12.747 -1.8700  0.0482 -1.3441
 5184TIP3   OH237042   3.402   3.709   1.143 -0.5886 -0.6377 -0.1831
 5184TIP3    H137043   3.377   3.767   1.072  0.1964  0.3668  0.3570
 5184TIP3    H237044   3.495   3.692   1.130 -0.0491  0.8891  1.5375
 5185TIP3   OH237045   2.206   6.061  12.226  0.4002 -0.0471 -0.3959
 5185TIP3    H137046   2.190   6.155  12.240  0.0037  0.0968 -1.7162
 5185TIP3    H237047   2.146   6.017  12.287  0.0674  0.5574 -0.2783
 5186TIP3   OH237048   5.903   2.026   0.557  0.1136 -0.1651 -0.2180
 5186TIP3    H137049   5.823   1.975   0.564  0.8189 -1.3341 -0.6490
 5186TIP3    H237050   5.965   1.981   0.614  0.9442 -0.2034 -1.1375
 5187TIP3   OH237051   1.337   2.649   4.720  0.6280  0.3372 -0.0042
 5187TIP3    H137052   1.299   2.630   4.806 -0.0424  1.1198 -0.1354
 5187TIP3    H237053   1.407   2.583   4.711  0.1633 -0.2769  0.7768
 5188TIP3   OH237054   1.512   5.797  15.914 -0.4743 -0.6494 -0.2633
 5188TIP3    H137055   1.477   5.776  16.000  0.2839  0.1862  0.2507
 5188TIP3    H237056   1.602   5.765  15.917  0.5714  2.2438  0.3812
 5189TIP3   OH237057   4.586   4.124  16.113  0.1707  0.4935 -0.6533
 5189TIP3    H137058   4.552   4.036  16.127  1.0882 -0.0720 -1.8772
 5189TIP3    H237059   4.584   4.165  16.200 -0.2893 -0.7231 -0.0809
 5190TIP3   OH237060   2.705   0.893  15.510 -0.6234 -0.0234  0.2014
 5190TIP3    H137061   2.722   0.806  15.547 -0.0550  0.2634  0.6228
 5190TIP3    H237062   2.736   0.887  15.420  2.2309  0.6276  1.0834
 5191TIP3   OH237063   1.438   6.227   1.853 -0.2719  0.4282 -0.1260
 5191TIP3    H137064   1.473   6.304   1.807 -0.0622  1.1451  1.1909
 5191TIP3    H237065   1.356   6.207   1.807 -1.4109  2.7442  0.7952
 5192TIP3   OH237066   0.189   4.095  16.831  0.0692  0.1761 -1.1799
 5192TIP3    H137067   0.261   4.080  16.892 -0.1790  0.6756 -0.7598
 5192TIP3    H237068   0.142   4.171  16.867 -2.2665 -1.7734  0.0351
 5193TIP3   OH237069   2.272   4.361  11.068 -0.0977 -0.2503 -0.0128
 5193TIP3    H137070   2.360   4.389  11.094  0.6243 -2.1336 -0.2835
 5193TIP3    H237071   2.232   4.439  11.030  1.4609  0.6431  0.1231
 5194TIP3   OH237072   2.612   0.726   2.111 -0.0378 -0.5277  0.6165
 5194TIP3    H137073   2.618   0.787   2.185 -0.1572 -0.8764  0.9162
 5194TIP3    H237074   2.581   0.645   2.150  1.9478 -1.3597  0.5500
 5195TIP3   OH237075   1.046   0.679   4.878 -0.5903  0.2803  0.4009
 5195TIP3    H137076   1.114   0.614   4.898 -1.9094 -1.2653  0.0103
 5195TIP3    H237077   1.094   0.758   4.857  1.2047 -1.2743 -1.6132
 5196TIP3   OH237078   3.974   4.466   5.501  0.5417  0.2239  0.2295
 5196TIP3    H137079   3.987   4.479   5.407  0.2569  0.7264  0.2564
 5196TIP3    H237080   3.897   4.520   5.522  0.6727  0.2007  0.7719
 5197TIP3   OH237081   6.185   3.801   6.446  0.2317 -0.4430 -0.3662
 5197TIP3    H137082   6.178   3.721   6.498  0.1330 -0.8932 -1.0676
 5197TIP3    H237083   6.278   3.808   6.425  0.1104 -0.8706 -1.0716
 5198TIP3   OH237084   3.426   1.696  15.323 -0.2777 -0.3469  0.3723
 5198TIP3    H137085   3.410   1.678  15.231 -0.1673 -1.6983  0.6031
 5198TIP3    H237086   3.339   1.713  15.360 -0.2188  1.1717 -0.1707
 5199TIP3   OH237087   0.478   1.317  16.099  0.2560  0.7693  0.6049
 5199TIP3    H137088   0.495   1.288  16.010 -1.3114  0.5732  0.3503
 5199TIP3    H237089   0.468   1.412  16.092 -0.1846  0.7194  0.5040
 5200TIP3   OH237090   2.345   3.879  12.212 -0.1050 -0.4996 -0.8947
 5200TIP3    H137091   2.252   3.903  12.212 -0.1485 -0.6632 -1.8653
 5200TIP3    H237092   2.383   3.929  12.139  0.7327  0.1679 -0.0207
 5201TIP3   OH237093   2.847   0.676   2.415  0.0401  0.6456 -0.3175
 5201TIP3    H137094   2.877   0.675   2.506  1.1234 -1.2085 -0.6558
 5201TIP3    H237095   2.774   0.737   2.414 -0.4512  0.1506  1.9612
 5202TIP3   OH237096   5.038   6.205  13.628 -0.2781  0.6235  0.2656
 5202TIP3    H137097   5.075   6.179  13.712 -1.3680 -0.5587  0.3972
 5202TIP3    H237098   4.973   6.271  13.649 -0.8722 -0.0022  0.3999
 5203TIP3   OH237099   3.143   0.057   0.121 -0.6239 -0.4134  0.1383
 5203TIP3    H137100   3.158   0.140   0.074  2.8113 -1.2160 -0.2671
 5203TIP3    H237101   3.122   0.084   0.210 -0.6942  0.9198 -0.2649
 5204TIP3   OH237102   2.876   1.390  16.252 -0.2618 -0.5273 -0.4458
 5204TIP3    H137103   2.903   1.442  16.177 -0.6960 -0.7781 -0.7769
 5204TIP3    H237104   2.795   1.347  16.224 -0.9479  0.1307  0.4967
 5205TIP3   OH237105   2.996   4.789   6.036 -0.3701 -0.1244 -0.2278
 5205TIP3    H137106   3.049   4.766   5.960 -0.2695  1.6475 -0.7133
 5205TIP3    H237107   3.058   4.789   6.109  0.4073  2.2008 -0.8367
 5206TIP3   OH237108   3.284   4.355   2.951  0.6777 -0.6896 -0.1519
 5206TIP3    H137109   3.268   4.383   2.861 -0.3588 -0.8363 -0.0192
 5206TIP3    H237110   3.378   4.336   2.954  0.9118  0.3312 -0.9132
 5207TIP3   OH237111   5.314   1.099  15.581 -0.2711  0.0484  0.3812
 5207TIP3    H137112   5.374   1.067  15.514 -0.4519 -0.0785  0.2779
 5207TIP3    H237113   5.229   1.105  15.536 -0.7434 -1.5670  1.0199
 5208TIP3   OH237114   2.060   2.205  13.427  0.3538 -0.4912 -0.6185
 5208TIP3    H137115   2.111   2.214  13.346  5.1163 -1.8773  2.0887
 5208TIP3    H237116   2.036   2.113  13.430 -0.7054 -0.2364 -0.8837
 5209TIP3   OH237117   4.518   1.945  15.379 -0.5040 -0.1200 -0.5948
 5209TIP3    H137118   4.554   2.032  15.396 -0.5612 -0.2195  0.0402
 5209TIP3    H237119   4.578   1.885  15.424 -1.5736 -0.2738  0.6382
 5210TIP3   OH237120   0.632   1.033  14.594 -0.0706 -0.5059 -0.4756
 5210TIP3    H137121   0.619   0.945  14.629  0.2177 -1.2034 -2.0799
 5210TIP3    H237122   0.685   1.078  14.660 -2.4582 -0.6692  1.6269
 5211TIP3   OH237123   1.425   5.087   2.963  0.0353 -0.1207 -0.1323
 5211TIP3    H137124   1.372   5.127   3.032 -0.7563 -1.1580 -0.1228
 5211TIP3    H237125   1.399   5.132   2.883 -3.0337 -2.5946 -0.5993
 5212TIP3   OH237126   0.605   3.698   0.444 -0.1875 -0.3887  0.1585
 5212TIP3    H137127   0.521   3.687   0.489  1.1036  1.5989  3.2258
 5212TIP3    H237128   0.618   3.793   0.441  1.5551 -0.6473 -1.0688
 5213TIP3   OH237129   1.976   6.589  15.904 -0.2440 -0.2904  0.0783
 5213TIP3    H137130   2.012   6.649  15.969  0.3113 -1.0938  0.5106
 5213TIP3    H237131   1.896   6.633  15.874  0.0892  0.6113  0.4735
 5214TIP3   OH237132   0.728   2.432   6.650  0.2121  0.6535 -0.1446
 5214TIP3    H137133   0.649   2.379   6.659  0.7139  0.2528  2.1142
 5214TIP3    H237134   0.706   2.515   6.692  1.3112  0.1610  1.4497
 5215TIP3   OH237135   3.919   2.392  17.093  0.5216 -0.0357 -0.1018
 5215TIP3    H137136   3.992   2.452  17.077  2.0003 -2.0994 -1.3705
 5215TIP3    H237137   3.926   2.371  17.187  1.1829  0.2777 -0.0753
 5216TIP3   OH237138   0.623   5.745   0.614 -0.0815 -0.0637  0.1003
 5216TIP3    H137139   0.604   5.836   0.635  0.0552  0.0910 -0.4571
 5216TIP3    H237140   0.677   5.715   0.687  0.1265  0.3879  0.1304
 5217TIP3   OH237141   2.558   2.760   0.107 -0.5509  0.3086  0.0967
 5217TIP3    H137142   2.643   2.738   0.069  0.0778  2.0754  0.4129
 5217TIP3    H237143   2.498   2.692   0.076  1.2188 -1.6280  0.8261
 5218TIP3   OH237144   0.585   2.830  17.088 -0.0780  0.6157  0.1622
 5218TIP3    H137145   0.638   2.776  17.029 -1.5316 -0.1342 -0.4867
 5218TIP3    H237146   0.576   2.914  17.043  0.4730  0.7238  0.2437
 5219TIP3   OH237147   2.846   5.904  14.706  0.4906 -0.4009 -0.3831
 5219TIP3    H137148   2.762   5.882  14.664 -0.0463 -1.4983  1.2141
 5219TIP3    H237149   2.909   5.844  14.666  0.3315 -0.2580 -0.8595
 5220TIP3   OH237150   5.314   1.487   3.851  0.0231  0.3534 -0.0122
 5220TIP3    H137151   5.302   1.476   3.946 -1.2104 -0.5500 -0.2593
 5220TIP3    H237152   5.347   1.576   3.842 -1.5952  1.1091  1.1570
 5221TIP3   OH237153   1.558   4.486  13.751  0.1063  0.1454 -0.2573
 5221TIP3    H137154   1.579   4.540  13.675 -0.3463  1.5243  0.5808
 5221TIP3    H237155   1.462   4.483  13.753  0.1196 -1.3191 -0.7195
 5222TIP3   OH237156   4.672   5.028   3.418  0.2604 -0.3814  0.2143
 5222TIP3    H137157   4.690   4.976   3.496  2.3668 -0.7567 -0.4817
 5222TIP3    H237158   4.735   5.101   3.423 -0.5149  0.3465 -0.4464
 5223TIP3   OH237159   6.481   4.941  10.782  0.1298  0.1301 -0.0468
 5223TIP3    H137160   6.442   4.976  10.702 -0.9611 -1.2430 -0.1341
 5223TIP3    H237161   6.575   4.944  10.766 -0.0580  0.3576 -1.1629
 5224TIP3   OH237162   3.775   4.463  15.819 -0.2048  0.0610 -0.1134
 5224TIP3    H137163   3.849   4.406  15.802  0.1432  0.3197  0.4939
 5224TIP3    H237164   3.720   4.456  15.741  1.0838  0.8514 -1.1142
 5225TIP3   OH237165   4.655   6.388   1.835 -0.4310 -0.3509 -0.4108
 5225TIP3    H137166   4.662   6.434   1.752  1.0264 -1.2723 -0.8181
 5225TIP3    H237167   4.574   6.421   1.874  0.0727  1.8278 -1.1159
 5226TIP3   OH237168   2.906   1.671  14.658 -0.5128  0.4253  0.0195
 5226TIP3    H137169   2.982   1.664  14.600 -0.1219 -2.4016  0.7842
 5226TIP3    H237170   2.841   1.718  14.607  1.3171  1.8162 -1.1057
 5227TIP3   OH237171   1.636   1.153  10.537  0.0115  0.0326  0.2061
 5227TIP3    H137172   1.664   1.111  10.456  2.6644  0.0227  1.0789
 5227TIP3    H237173   1.610   1.081  10.594 -0.2377 -0.0733 -0.0400
 5228TIP3   OH237174   3.382   2.684  11.219  0.1603  0.3857 -0.3973
 5228TIP3    H137175   3.338   2.654  11.140  0.1626 -0.5446 -0.0639
 5228TIP3    H237176   3.422   2.604  11.255  0.4372  0.8587  0.3575
 5229TIP3   OH237177   5.386   2.188  13.843  0.4069 -0.2508  0.0266
 5229TIP3    H137178   5.396   2.154  13.754 -0.0008  0.8096 -0.4291
 5229TIP3    H237179   5.337   2.120  13.889 -0.6560 -0.1746 -0.9614
 5230TIP3   OH237180   3.368   0.621   0.689 -0.0064 -0.4340  0.7188
 5230TIP3    H137181   3.279   0.656   0.688 -0.7954 -2.3487  1.4924
 5230TIP3    H237182   3.358   0.530   0.718  2.1121 -0.9353 -0.0303
 5231TIP3   OH237183   0.889   2.869   5.370 -0.0916  0.4459  0.2660
 5231TIP3    H137184   0.982   2.885   5.381 -0.0148 -0.0375  0.3443
 5231TIP3    H237185   0.846   2.940   5.418  0.2291  1.2845 -0.6855
 5232TIP3   OH237186   0.042   3.246   4.399 -0.3042 -0.3537 -0.2870
 5232TIP3    H137187   0.049   3.152   4.378 -1.6777 -0.6977  0.7153
 5232TIP3    H237188  -0.018   3.280   4.333 -0.5015 -0.3602 -0.1103
 5233TIP3   OH237189   4.827   3.658   1.918  0.4826  0.2159 -0.0238
 5233TIP3    H137190   4.835   3.732   1.977  0.5619  0.3646 -0.2215
 5233TIP3    H237191   4.736   3.629   1.928  0.6916 -0.2053  0.7031
 5234TIP3   OH237192   1.752   1.323  14.732  0.5361  0.0192 -0.0109
 5234TIP3    H137193   1.761   1.413  14.700 -0.2250 -0.1570 -0.7412
 5234TIP3    H237194   1.821   1.274  14.687 -0.9686 -0.3667 -1.9414
 5235TIP3   OH237195   6.213   1.495   1.743 -0.5133 -0.1315  0.2554
 5235TIP3    H137196   6.294   1.446   1.727  0.3113  1.3613 -0.2220
 5235TIP3    H237197   6.149   1.455   1.684  0.1448 -0.6198 -0.1339
 5236TIP3   OH237198   0.790   2.924  11.840  0.0912  0.5750  0.0846
 5236TIP3    H137199   0.819   2.886  11.757  1.1251  2.5108 -0.4714
 5236TIP3    H237200   0.817   2.861  11.906  2.2111  0.5303 -0.7777
 5237TIP3   OH237201   3.222   5.854   3.657  0.3689 -0.4017 -0.7089
 5237TIP3    H137202   3.307   5.812   3.644  0.6161 -0.4522  0.9202
 5237TIP3    H237203   3.188   5.815   3.738  1.4989  3.8912  1.9905
 5238TIP3   OH237204   2.103   6.729   1.117 -0.1527  0.5458 -0.4772
 5238TIP3    H137205   2.104   6.824   1.105 -0.4045  1.0031  2.7156
 5238TIP3    H237206   2.024   6.711   1.169  0.7000 -1.1902  0.2821
 5239TIP3   OH237207   3.610   0.944  13.748 -0.0779  0.0436 -0.3532
 5239TIP3    H137208   3.536   0.901  13.704 -0.3136  1.1426 -1.0697
 5239TIP3    H237209   3.684   0.929  13.690  0.0543 -0.2600 -0.1044
 5240TIP3   OH237210   1.595   4.402  13.132 -0.1936  0.0582 -0.3846
 5240TIP3    H137211   1.556   4.427  13.216 -0.9492  0.6089 -0.8893
 5240TIP3    H237212   1.652   4.475  13.109 -0.2169  0.0427 -0.4919
 5241TIP3   OH237213   3.284   6.606  12.115  0.2545 -0.0167  0.3319
 5241TIP3    H137214   3.303   6.608  12.022 -0.2848  0.4131  0.2256
 5241TIP3    H237215   3.286   6.513  12.139 -2.0232 -0.3194 -0.6140
 5242TIP3   OH237216   4.375   4.786  16.710 -0.4134  0.2376  0.1058
 5242TIP3    H137217   4.435   4.744  16.772 -0.6987  0.2671  0.4044
 5242TIP3    H237218   4.375   4.879  16.736 -0.3384  0.2936 -0.0989
 5243TIP3   OH237219   1.728   2.337  13.577 -0.7589  0.3601 -0.1549
 5243TIP3    H137220   1.720   2.383  13.660 -0.4786 -0.6135  0.4193
 5243TIP3    H237221   1.768   2.253  13.599 -3.3548 -1.1379 -0.8104
 5244TIP3   OH237222   1.032   0.270  13.604  0.0265  0.6456  0.3191
 5244TIP3    H137223   1.016   0.178  13.584  1.6106  0.8637 -2.1472
 5244TIP3    H237224   0.947   0.313  13.593 -0.1214 -0.0523 -1.3930
 5245TIP3   OH237225   2.672   2.037   3.014  0.4444  0.0602 -0.0047
 5245TIP3    H137226   2.705   2.109   3.068 -0.1875  0.6045 -0.3480
 5245TIP3    H237227   2.727   2.038   2.936 -1.8680  2.4625 -1.6573
 5246TIP3   OH237228   1.198   4.095  16.580  0.1152  0.5814  0.2578
 5246TIP3    H137229   1.244   4.016  16.608 -0.4974 -0.3825 -1.3271
 5246TIP3    H237230   1.138   4.115  16.651  1.0906  0.2877  1.1705
 5247TIP3   OH237231   5.771   6.002   1.162 -0.3226  0.3732  0.0218
 5247TIP3    H137232   5.847   6.054   1.188 -0.8710  0.8368  0.7047
 5247TIP3    H237233   5.778   5.922   1.214 -0.7465  0.7654  0.6753
 5248TIP3   OH237234   2.186   0.146  14.964 -0.5243 -0.1684 -0.1035
 5248TIP3    H137235   2.236   0.169  14.886  0.7129 -0.6955  0.5175
 5248TIP3    H237236   2.170   0.230  15.008 -0.5984  0.0472 -0.5377
 5249TIP3   OH237237   4.856   5.514  13.919  0.3428  0.1379  0.3509
 5249TIP3    H137238   4.812   5.505  14.004  0.7738 -0.2343  0.5322
 5249TIP3    H237239   4.947   5.491  13.936  0.6477  1.0966  0.0060
 5250TIP3   OH237240   1.546   2.897   3.862 -0.2417 -0.9361  0.4237
 5250TIP3    H137241   1.628   2.849   3.852 -0.1521 -0.5220 -0.9990
 5250TIP3    H237242   1.569   2.974   3.914  0.3476 -0.6286 -0.2912
 5251TIP3   OH237243   3.828   6.035   2.603 -0.3005  0.4594  0.6058
 5251TIP3    H137244   3.896   6.042   2.537 -0.3680 -0.7243  0.4009
 5251TIP3    H237245   3.746   6.048   2.555 -0.3080  0.3535  0.5909
 5252TIP3   OH237246   5.893   3.590   1.706  0.2307 -0.0234  0.3707
 5252TIP3    H137247   5.957   3.649   1.665  2.0073 -1.8065  0.5184
 5252TIP3    H237248   5.819   3.590   1.645  0.1810  2.3146  0.3502
 5253TIP3   OH237249   3.066   3.317   0.753 -0.2215 -0.8352 -0.3898
 5253TIP3    H137250   3.131   3.247   0.764  0.2352 -0.2983  0.3110
 5253TIP3    H237251   3.090   3.358   0.670  1.5151  0.5851  0.7717
 5254TIP3   OH237252   3.455   4.797   2.844  0.3715 -0.2868 -0.0757
 5254TIP3    H137253   3.504   4.749   2.777  1.2532  0.1583  0.2417
 5254TIP3    H237254   3.415   4.870   2.798 -0.2584 -0.8175 -0.3920
 5255TIP3   OH237255   4.969   3.632   0.820 -0.4040  0.5435  0.2863
 5255TIP3    H137256   4.887   3.590   0.849  0.4152  0.6214  2.8409
 5255TIP3    H237257   4.954   3.725   0.833  0.1676  0.5378  1.0900
 5256TIP3   OH237258   6.781   1.783   0.068 -0.3724 -0.1398 -0.1344
 5256TIP3    H137259   6.758   1.708   0.124 -0.7261  1.9970  2.6745
 5256TIP3    H237260   6.697   1.826   0.051 -0.2128 -0.5474 -2.0635
 5257TIP3   OH237261   5.439   2.611   1.178  0.0329  0.3291 -0.4780
 5257TIP3    H137262   5.482   2.591   1.095 -1.8491  0.2742 -1.4698
 5257TIP3    H237263   5.359   2.658   1.153 -0.7185  0.0132  1.2758
 5258TIP3   OH237264   4.775   4.980   0.747 -0.3900 -0.3425  0.4864
 5258TIP3    H137265   4.737   4.981   0.835  0.6422  0.8086  0.9399
 5258TIP3    H237266   4.842   4.912   0.750  0.1218  0.1697  0.8103
 5259TIP3   OH237267   1.639   5.847   0.516  0.4632  0.0398 -0.1720
 5259TIP3    H137268   1.587   5.918   0.553  0.8712  0.0651  0.3443
 5259TIP3    H237269   1.710   5.891   0.470  0.8495 -0.0421  0.3468
 5260TIP3   OH237270   0.873   1.796  13.078 -0.0286 -0.6697 -0.0986
 5260TIP3    H137271   0.883   1.723  13.018 -0.0944  0.1533 -1.1148
 5260TIP3    H237272   0.935   1.861  13.048  0.9832 -0.8113  1.6095
 5261TIP3   OH237273   3.969   6.569  11.672 -0.0822 -0.2872  0.4333
 5261TIP3    H137274   3.979   6.547  11.579  0.1785 -0.6984  0.5601
 5261TIP3    H237275   3.909   6.644  11.672 -1.9384 -1.7181  0.0607
 5262TIP3   OH237276   1.506   5.542  11.690  0.1261 -0.3940  0.5185
 5262TIP3    H137277   1.443   5.598  11.735 -0.2384 -0.8476  0.5691
 5262TIP3    H237278   1.492   5.455  11.726  1.0019 -0.4405  0.7687
 5263TIP3   OH237279   5.538   1.039  14.052  0.0662  0.3498  0.0500
 5263TIP3    H137280   5.611   1.099  14.064 -0.5665  1.0751  0.3282
 5263TIP3    H237281   5.476   1.062  14.121 -0.5854 -0.0146 -0.4062
 5264TIP3   OH237282   0.803   0.055   0.217 -0.0843  0.3032  0.1512
 5264TIP3    H137283   0.842   0.114   0.281 -1.8022  0.3848  1.1669
 5264TIP3    H237284   0.769  -0.018   0.270 -1.2640  0.2280 -0.6894
 5265TIP3   OH237285   5.563   0.070   0.866 -0.3503 -0.6762 -0.4364
 5265TIP3    H137286   5.530   0.141   0.810 -0.8877 -0.8387 -0.3294
 5265TIP3    H237287   5.575  -0.004   0.806  1.5502 -0.0866 -0.8049
 5266TIP3   OH237288   3.737   4.808  10.895  0.5720 -0.1036  0.3775
 5266TIP3    H137289   3.732   4.721  10.854 -0.1227 -0.8359  2.0028
 5266TIP3    H237290   3.692   4.866  10.833  1.9867 -0.6826 -1.2447
 5267TIP3   OH237291   0.522   0.973  12.094  0.3261  0.4804  0.2575
 5267TIP3    H137292   0.484   0.889  12.067  0.2259  1.0027 -1.2684
 5267TIP3    H237293   0.471   0.999  12.170  0.4869 -0.9407  0.8719
 5268TIP3   OH237294   1.614   1.951  16.409  0.3736 -0.1353 -0.1383
 5268TIP3    H137295   1.670   1.954  16.331  0.7069 -0.0772  0.1035
 5268TIP3    H237296   1.676   1.948  16.482  0.0811  1.7951  0.2224
 5269TIP3   OH237297   5.960   0.917  15.971  0.1503  0.0260 -0.2331
 5269TIP3    H137298   6.047   0.953  15.953  0.7476 -0.5154  1.4972
 5269TIP3    H237299   5.912   0.989  16.010  0.2552 -0.0543  0.0471
 5270TIP3   OH237300   2.953   3.013   0.552 -0.2960  0.3319  0.5141
 5270TIP3    H137301   2.999   3.032   0.471 -1.7355  1.5760 -0.0348
 5270TIP3    H237302   3.019   3.021   0.621  0.1324  2.8860 -0.1663
 5271TIP3   OH237303   2.686   1.510  13.264 -0.5035  0.2257 -0.3110
 5271TIP3    H137304   2.594   1.510  13.238 -0.9660  0.8095  1.2411
 5271TIP3    H237305   2.722   1.431  13.225 -1.9626 -0.6440  0.0600
 5272TIP3   OH237306   5.847   5.752   5.726  0.3846  0.0604  0.3359
 5272TIP3    H137307   5.855   5.658   5.738 -1.5402 -0.1555  0.1661
 5272TIP3    H237308   5.801   5.761   5.642  1.9037  1.1947 -0.3922
 5273TIP3   OH237309   4.763   0.154  15.927  0.3807  0.0277 -0.6825
 5273TIP3    H137310   4.801   0.234  15.963 -0.4945 -0.2594  0.9141
 5273TIP3    H237311   4.833   0.090  15.930  0.4788  0.1673 -0.0349
 5274TIP3   OH237312   4.231   4.287  16.729 -0.1187 -0.3244  0.0317
 5274TIP3    H137313   4.276   4.280  16.646 -2.0804 -0.0450 -1.0895
 5274TIP3    H237314   4.291   4.337  16.785  1.0140 -0.1301 -1.3332
 5275TIP3   OH237315   4.698   5.445   3.564 -0.0517 -0.0610  0.6924
 5275TIP3    H137316   4.753   5.383   3.612 -0.4842 -2.1268 -1.3882
 5275TIP3    H237317   4.754   5.521   3.550  1.3998 -1.0615  0.9232
 5276TIP3   OH237318   4.097   5.223  11.454  0.0690 -0.2179 -0.1280
 5276TIP3    H137319   4.179   5.227  11.503 -1.3813  3.0548  2.2806
 5276TIP3    H237320   4.119   5.260  11.368  1.2386  0.2565  0.3566
 5277TIP3   OH237321   6.215   1.197   2.025  0.6505  0.1100 -0.2051
 5277TIP3    H137322   6.233   1.258   2.096  1.5130  0.7682 -0.9710
 5277TIP3    H237323   6.254   1.115   2.055  5.2991  1.5521 -1.8896
 5278TIP3   OH237324   0.948   6.221  12.411 -0.3251 -0.2582  0.5087
 5278TIP3    H137325   0.877   6.224  12.347 -1.2737  2.4566  1.6247
 5278TIP3    H237326   1.008   6.290  12.383  1.2719 -1.7173  0.2873
 5279TIP3   OH237327   4.841   1.644  12.372  0.1606 -0.2376  0.2227
 5279TIP3    H137328   4.819   1.623  12.463  0.3312  1.9741  0.7997
 5279TIP3    H237329   4.757   1.658  12.329  0.0370 -2.1656 -0.2075
 5280TIP3   OH237330   1.757   2.100  17.152  0.2220 -0.2049  0.6416
 5280TIP3    H137331   1.745   2.186  17.112  0.9354  0.4624  1.8323
 5280TIP3    H237332   1.842   2.070  17.119 -0.1516 -0.5827  0.0094
 5281TIP3   OH237333   6.571   1.501  16.341  0.8028 -0.1138 -0.4299
 5281TIP3    H137334   6.482   1.534  16.332  0.4878 -0.7346  0.3021
 5281TIP3    H237335   6.574   1.423  16.285  0.0768 -1.6022  1.5182
 5282TIP3   OH237336   2.886   5.227   6.660  0.2092 -0.0595  0.0376
 5282TIP3    H137337   2.849   5.243   6.573  1.0036 -2.9241 -0.8708
 5282TIP3    H237338   2.810   5.223   6.718 -0.3271  1.8469 -0.4841
 5283TIP3   OH237339   4.098   3.303  13.176  0.0349  0.3324 -0.1820
 5283TIP3    H137340   4.151   3.376  13.143 -0.7338 -0.4987 -3.3194
 5283TIP3    H237341   4.016   3.308  13.128 -1.7375 -0.0979  2.6469
 5284TIP3   OH237342   6.783   5.587   6.261 -0.1439  0.3310 -0.0258
 5284TIP3    H137343   6.721   5.657   6.283  1.9043  2.2110 -0.0858
 5284TIP3    H237344   6.843   5.584   6.335  0.5920 -0.4273 -0.6459
 5285TIP3   OH237345   3.901   6.041   4.260 -0.1471 -0.2080  0.3180
 5285TIP3    H137346   3.835   5.973   4.246  0.1239 -0.5286  0.5983
 5285TIP3    H237347   3.850   6.121   4.274 -0.4649 -0.3518 -0.0247
 5286TIP3   OH237348   3.779   2.702  14.483  0.2940 -0.3984 -0.3375
 5286TIP3    H137349   3.712   2.728  14.545 -1.3076 -0.6496 -1.9176
 5286TIP3    H237350   3.746   2.621  14.444  0.2020  0.8852 -3.0548
 5287TIP3   OH237351   2.582   4.916  10.575  0.2912 -0.1819 -0.4416
 5287TIP3    H137352   2.491   4.892  10.559  0.2720 -0.4723  0.0892
 5287TIP3    H237353   2.617   4.843  10.627 -0.1278  1.5088  2.3510
 5288TIP3   OH237354   5.768   4.316   0.951  0.0056 -0.5685 -0.4576
 5288TIP3    H137355   5.785   4.370   0.875 -1.2819 -1.6137 -1.5270
 5288TIP3    H237356   5.853   4.308   0.995  0.2960  1.8962 -0.5178
 5289TIP3   OH237357   4.728   6.016  12.039  0.1684 -0.2794  0.0733
 5289TIP3    H137358   4.766   5.931  12.063  0.2613 -0.1961  0.2207
 5289TIP3    H237359   4.635   5.998  12.027 -0.0589 -0.1292  1.4731
 5290TIP3   OH237360   6.059   2.813   3.289  0.0613  0.1719 -0.3540
 5290TIP3    H137361   6.061   2.873   3.364  0.6263 -0.0268 -0.2072
 5290TIP3    H237362   6.147   2.816   3.253  0.2239 -0.9101 -0.0686
 5291TIP3   OH237363   0.326   3.772  16.224 -0.6357  0.2236  0.1515
 5291TIP3    H137364   0.274   3.702  16.263  1.3792 -2.2294 -1.3935
 5291TIP3    H237365   0.291   3.783  16.136  1.0372 -1.0902 -0.7195
 5292TIP3   OH237366   3.690   5.205   3.991 -0.2128 -0.0168  0.1089
 5292TIP3    H137367   3.699   5.133   4.053  0.3791 -0.0767 -0.0460
 5292TIP3    H237368   3.707   5.164   3.905  1.6663  0.6182  0.1560
 5293TIP3   OH237369   3.136   2.063   4.844 -0.1955  0.6243 -0.2066
 5293TIP3    H137370   3.043   2.075   4.866  0.2423  1.0441  1.4570
 5293TIP3    H237371   3.160   1.981   4.886  0.5315  1.2125  0.5456
 5294TIP3   OH237372   6.458   6.466  11.910  0.0821  0.6105  0.3943
 5294TIP3    H137373   6.451   6.520  11.988  1.8015 -2.2779  2.6720
 5294TIP3    H237374   6.549   6.437  11.909 -0.4771 -1.2447 -1.4388
 5295TIP3   OH237375   3.042   5.356  12.227 -0.4655 -0.3066 -0.2967
 5295TIP3    H137376   3.084   5.319  12.305  1.5745 -0.5907 -1.4849
 5295TIP3    H237377   3.096   5.432  12.205 -1.2876  0.0340 -1.1743
 5296TIP3   OH237378   5.566   2.738   5.712  0.2024  0.6116  0.0215
 5296TIP3    H137379   5.556   2.644   5.721  2.1760  0.4475  0.7261
 5296TIP3    H237380   5.477   2.773   5.723 -0.0788 -0.9271  3.1021
 5297TIP3   OH237381   6.200   3.778  11.675  0.1977  0.4215  0.0906
 5297TIP3    H137382   6.213   3.766  11.581  0.1628  1.3478 -0.0404
 5297TIP3    H237383   6.282   3.748  11.714  0.1240 -0.1843 -0.2137
 5298TIP3   OH237384   0.578   1.608  17.014 -0.2412 -0.3564  0.1701
 5298TIP3    H137385   0.563   1.684  17.071  0.9923  0.4286 -0.5418
 5298TIP3    H237386   0.593   1.645  16.928  0.6174 -1.4064 -0.1406
 5299TIP3   OH237387   4.973   1.489   0.192  0.3553  0.9270 -0.2560
 5299TIP3    H137388   4.982   1.463   0.284  0.6918  1.1033 -0.2403
 5299TIP3    H237389   5.042   1.553   0.178 -0.3188  1.6290 -0.3640
 5300TIP3   OH237390   4.285   1.215   4.642 -0.3363  0.5222 -0.1232
 5300TIP3    H137391   4.238   1.292   4.610 -2.1537 -0.7092 -0.4556
 5300TIP3    H237392   4.226   1.176   4.707  0.4526 -0.7479 -0.1573
 5301TIP3   OH237393   5.704   1.621   0.784 -0.1425 -0.3850 -0.1330
 5301TIP3    H137394   5.713   1.696   0.725  0.2258 -0.5046 -0.2272
 5301TIP3    H237395   5.617   1.633   0.824 -1.0796 -1.1526 -1.8709
 5302TIP3   OH237396   0.487   2.430   2.037 -0.0176  0.2762  0.6399
 5302TIP3    H137397   0.536   2.407   1.958 -0.0898  0.8286  0.4324
 5302TIP3    H237398   0.499   2.355   2.095 -0.7017 -0.5206 -0.2384
 5303TIP3   OH237399   3.642   0.768   2.326  0.1729  0.1686  0.6357
 5303TIP3    H137400   3.685   0.795   2.407  2.0747  0.9763 -0.5996
 5303TIP3    H237401   3.680   0.681   2.307 -0.7085 -0.2804  0.9276
 5304TIP3   OH237402   4.988   5.602  17.195  0.5271  0.6424 -0.2597
 5304TIP3    H137403   5.042   5.681  17.187  0.3105  0.8419  0.2111
 5304TIP3    H237404   4.953   5.607  17.284  0.3336  0.1299 -0.3109
 5305TIP3   OH237405   2.343   4.450  11.343 -0.4002  0.1928  0.0572
 5305TIP3    H137406   2.413   4.462  11.279 -1.5074 -0.9691 -1.4187
 5305TIP3    H237407   2.279   4.519  11.322 -0.0821  0.7308  0.8586
 5306TIP3   OH237408   4.415   0.013  17.260 -0.0783  0.7688 -0.2010
 5306TIP3    H137409   4.359  -0.044  17.207  1.8392 -0.4701 -0.9293
 5306TIP3    H237410   4.417  -0.028  17.346  0.6708  0.1582 -0.5073
 5307TIP3   OH237411   5.093   5.851   0.756  0.2961 -0.1437 -0.2356
 5307TIP3    H137412   5.073   5.902   0.678 -1.2223  0.4298  0.5063
 5307TIP3    H237413   5.163   5.899   0.799 -0.7733  1.0509  0.1928
 5308TIP3   OH237414   0.138   1.957  12.574  0.0484 -0.4708 -0.3078
 5308TIP3    H137415   0.097   1.872  12.557 -0.0395 -0.5403  0.2397
 5308TIP3    H237416   0.068   2.021  12.557 -0.2337 -0.5785  0.4324
 5309TIP3   OH237417   1.942   4.091  17.226 -0.3618  0.3034  0.4580
 5309TIP3    H137418   1.891   4.148  17.169  0.3097 -0.0459 -0.5049
 5309TIP3    H237419   1.985   4.150  17.288 -0.8720  0.7053  0.4381
 5310TIP3   OH237420   0.055   1.318   1.933 -0.5980  0.2978 -0.3062
 5310TIP3    H137421   0.148   1.302   1.921 -0.8550  0.4038 -2.5674
 5310TIP3    H237422   0.017   1.231   1.942 -0.3783  0.2257 -0.0595
 5311TIP3   OH237423   4.862   4.600  11.474  0.2362 -0.2160  0.1308
 5311TIP3    H137424   4.823   4.687  11.460 -1.8373 -1.0889  0.2651
 5311TIP3    H237425   4.956   4.616  11.473 -0.1114  2.1813  1.0648
 5312TIP3   OH237426   5.889   3.749   2.536 -0.6286 -0.9342 -0.0477
 5312TIP3    H137427   5.830   3.683   2.575 -0.3131 -0.2088  1.7144
 5312TIP3    H237428   5.976   3.724   2.567 -0.5005  0.2709  0.5646
 5313TIP3   OH237429   4.547   2.583   4.904  0.4643  0.5160 -0.6576
 5313TIP3    H137430   4.492   2.657   4.879  0.8456  1.0698  0.1073
 5313TIP3    H237431   4.637   2.611   4.886  0.8033  1.1598  1.7666
 5314TIP3   OH237432   5.948   3.109  11.961  0.2196  0.7758 -0.7517
 5314TIP3    H137433   5.966   3.202  11.973 -2.2227  1.3229 -1.0269
 5314TIP3    H237434   5.911   3.104  11.872 -0.0129 -0.4046 -0.5917
 5315TIP3   OH237435   3.386   2.973  14.510  0.0081  0.1558 -0.1837
 5315TIP3    H137436   3.369   2.930  14.426 -1.3610  0.4011 -0.0390
 5315TIP3    H237437   3.301   3.007  14.537  0.0972 -1.3919  2.1382
 5316TIP3   OH237438   4.032   2.742  13.573 -0.4702 -1.0859  0.4124
 5316TIP3    H137439   4.017   2.816  13.632 -1.6447  0.1526 -1.3677
 5316TIP3    H237440   3.994   2.667  13.619 -0.9901 -0.2243  1.4256
 5317TIP3   OH237441   2.779   5.247   2.320 -0.5819  0.0068 -0.3330
 5317TIP3    H137442   2.768   5.198   2.402  3.9416 -0.3044  0.1998
 5317TIP3    H237443   2.820   5.185   2.260 -1.8511  0.9069 -2.2073
 5318TIP3   OH237444   4.704   0.867  11.536  0.1696 -0.0350 -0.1711
 5318TIP3    H137445   4.732   0.953  11.568  0.7967 -0.2266 -0.2147
 5318TIP3    H237446   4.608   0.873  11.536  0.0861 -0.4090  2.8080
 5319TIP3   OH237447   4.137   4.121   5.177  0.0253 -0.9012 -0.4515
 5319TIP3    H137448   4.202   4.067   5.133  0.5465  0.6973 -1.7147
 5319TIP3    H237449   4.054   4.096   5.138 -0.0021 -2.2246  0.4338
 5320TIP3   OH237450   1.879   3.519  15.748  0.1724 -0.4403 -0.0387
 5320TIP3    H137451   1.907   3.607  15.773  1.4761 -0.6978 -0.5335
 5320TIP3    H237452   1.814   3.533  15.679 -1.0690  0.1780  1.2323
 5321TIP3   OH237453   3.669   3.369   4.131 -0.2367  0.1095  0.1954
 5321TIP3    H137454   3.748   3.320   4.152  0.7127  0.4366 -2.4714
 5321TIP3    H237455   3.698   3.460   4.126 -0.6656  0.1902 -1.1328
 5322TIP3   OH237456   4.979   3.447   0.214 -0.2699 -0.3439  0.4442
 5322TIP3    H137457   4.897   3.400   0.231  0.1053 -1.1390  0.0042
 5322TIP3    H237458   5.016   3.405   0.137  0.6096 -0.0401  0.7021
 5323TIP3   OH237459   1.167   1.646   1.197 -0.6650  0.2334  0.4220
 5323TIP3    H137460   1.248   1.691   1.222 -1.0579  0.1164  1.9356
 5323TIP3    H237461   1.114   1.713   1.154  0.5410  0.1221 -1.3169
 5324TIP3   OH237462   4.003   4.080   3.508  0.0303  0.6931  0.3203
 5324TIP3    H137463   4.065   4.123   3.567 -0.5893  1.4681  0.4153
 5324TIP3    H237464   3.923   4.133   3.514 -0.5835 -0.1849  0.0587
 5325TIP3   OH237465   1.148   5.013  15.848  0.0997  0.3589  0.2871
 5325TIP3    H137466   1.124   5.089  15.795  1.2776  0.1648 -0.5489
 5325TIP3    H237467   1.082   4.947  15.827 -0.5084  0.9014  0.4670
 5326TIP3   OH237468   1.021   5.442   1.377  0.0105 -0.3815  0.2910
 5326TIP3    H137469   0.958   5.499   1.332  0.0324 -0.4599  0.1621
 5326TIP3    H237470   1.006   5.355   1.340 -0.9941 -0.7410  1.5024
 5327TIP3   OH237471   6.363   0.734   2.033  0.1661  0.5314  0.2424
 5327TIP3    H137472   6.330   0.703   2.118 -0.4381  0.1108 -0.1444
 5327TIP3    H237473   6.341   0.664   1.972  3.1376 -0.4849  0.2241
 5328TIP3   OH237474   6.642   2.664  12.095  0.3727  0.2049  0.0719
 5328TIP3    H137475   6.612   2.702  12.179  0.6660  2.1114 -0.6545
 5328TIP3    H237476   6.590   2.711  12.029  1.2099 -0.2290 -0.8915
 5329TIP3   OH237477   2.389   3.217   1.171 -0.0721  0.2052 -0.3495
 5329TIP3    H137478   2.432   3.301   1.158  1.6741 -0.6165 -0.0424
 5329TIP3    H237479   2.318   3.216   1.107 -0.6480  2.2626  0.2434
 5330TIP3   OH237480   4.497   5.012  14.007 -0.4784  0.4963 -0.1952
 5330TIP3    H137481   4.464   5.087  13.959  0.1379  0.5815 -0.4851
 5330TIP3    H237482   4.592   5.020  14.004 -0.3726 -0.9054 -1.2113
 5331TIP3   OH237483   6.329   3.083   6.810  0.0302  0.4944  0.8072
 5331TIP3    H137484   6.302   2.999   6.771  0.8165  1.5132 -1.9913
 5331TIP3    H237485   6.270   3.147   6.771  0.7607  1.5316  1.3973
 5332TIP3   OH237486   1.658   1.977   0.068  0.0621 -0.4519  0.0582
 5332TIP3    H137487   1.568   1.944   0.066  0.3975 -1.3724  0.1341
 5332TIP3    H237488   1.671   2.012  -0.020 -0.3752 -0.3108  0.0460
 5333TIP3   OH237489   0.305   6.402  15.258  0.3042 -0.2307 -0.4006
 5333TIP3    H137490   0.375   6.364  15.205 -1.0669 -1.8085 -1.1274
 5333TIP3    H237491   0.339   6.401  15.348  1.0827 -1.2469 -0.7030
 5334TIP3   OH237492   2.453   1.042  16.999 -0.5044  0.2911  0.6901
 5334TIP3    H137493   2.529   1.099  17.006  0.3318 -0.7786  0.4533
 5334TIP3    H237494   2.378   1.098  17.021  0.0818  1.9889 -1.4874
 5335TIP3   OH237495   6.062   4.386  12.313  0.1379  0.1821 -0.3771
 5335TIP3    H137496   6.130   4.368  12.247  1.3151  1.5139  0.4459
 5335TIP3    H237497   6.056   4.305  12.364  0.2497 -0.3524 -1.1939
 5336TIP3   OH237498   3.604   3.172   5.566 -0.4163  0.8228  0.5638
 5336TIP3    H137499   3.621   3.158   5.659  2.6792 -1.5121 -0.2577
 5336TIP3    H237500   3.633   3.262   5.549 -1.7234  1.5184  1.9991
 5337TIP3   OH237501   4.597   4.779   4.592 -0.3493 -0.2921 -0.2436
 5337TIP3    H137502   4.662   4.751   4.657 -0.9325  1.6231  1.2051
 5337TIP3    H237503   4.641   4.767   4.508  0.7505 -1.9549  0.5259
 5338TIP3   OH237504   0.562   6.026  11.637 -0.3524 -0.2736  0.1908
 5338TIP3    H137505   0.608   6.093  11.586 -1.2983  0.2653  0.0364
 5338TIP3    H237506   0.495   6.074  11.685 -0.0705 -0.9070  1.2386
 5339TIP3   OH237507   6.332   6.233  14.300 -0.5597 -0.1956  0.5083
 5339TIP3    H137508   6.298   6.238  14.389 -0.5413 -1.9963  0.6349
 5339TIP3    H237509   6.255   6.243  14.244 -0.4502  1.9051  0.6798
 5340TIP3   OH237510   0.756   1.484   0.753  0.0896 -0.0052  0.4130
 5340TIP3    H137511   0.796   1.413   0.803 -0.3724  0.1795  1.0450
 5340TIP3    H237512   0.688   1.442   0.701 -0.1023 -0.0439  0.6964
 5341TIP3   OH237513   3.372   4.285  17.162  0.3481 -0.1338 -0.2194
 5341TIP3    H137514   3.441   4.338  17.122 -0.2096  2.1773  1.7770
 5341TIP3    H237515   3.419   4.224  17.219  0.8472  0.3280 -0.1285
 5342TIP3   OH237516   0.588   4.608  14.256  0.2562  0.4489 -0.1344
 5342TIP3    H137517   0.579   4.697  14.220  1.5516  0.5904 -0.1220
 5342TIP3    H237518   0.580   4.551  14.180 -1.2890  0.5267 -0.0495
 5343TIP3   OH237519   2.192   2.257   2.989 -0.1277 -0.6700 -0.8076
 5343TIP3    H137520   2.277   2.267   2.947  0.3963 -1.1429  0.1149
 5343TIP3    H237521   2.167   2.346   3.014  0.8210 -0.7000  0.2951
 5344TIP3   OH237522   1.367   6.589   3.895 -0.1344  0.1053  0.0295
 5344TIP3    H137523   1.272   6.591   3.904 -0.0769 -0.3033  0.7340
 5344TIP3    H237524   1.398   6.554   3.978  0.6881  1.1892  0.1842
 5345TIP3   OH237525   3.793   1.565   2.658  0.6058  0.3329  0.1058
 5345TIP3    H137526   3.775   1.550   2.565  1.6664  1.6153 -0.3234
 5345TIP3    H237527   3.715   1.610   2.691 -1.3394 -3.2924  0.7182
 5346TIP3   OH237528   2.800   5.284   3.604  0.5363  0.0159 -0.5056
 5346TIP3    H137529   2.851   5.268   3.684 -1.5918 -0.8437  0.7049
 5346TIP3    H237530   2.865   5.315   3.541  2.2045  1.1266  1.6710
 5347TIP3   OH237531   0.477   5.550   4.493  0.4131 -0.3456 -0.6018
 5347TIP3    H137532   0.435   5.610   4.431  2.2026  1.2876 -0.2673
 5347TIP3    H237533   0.463   5.591   4.578  0.1199 -1.3304 -0.1626
 5348TIP3   OH237534   5.491   5.044  13.337  0.7753 -0.2104  0.4779
 5348TIP3    H137535   5.582   5.025  13.361  0.5086 -1.0015  0.8866
 5348TIP3    H237536   5.458   4.961  13.302 -0.1376 -0.2491  1.4261
 5349TIP3   OH237537   1.744   4.380   2.069 -0.0502 -0.0142  0.0758
 5349TIP3    H137538   1.830   4.380   2.110  0.1219  1.8658 -0.2350
 5349TIP3    H237539   1.749   4.313   2.001  1.5477  0.9121 -0.7214
 5350TIP3   OH237540   6.439   6.484   5.018 -0.7383  0.1877 -0.3126
 5350TIP3    H137541   6.366   6.546   5.026  0.0910  1.1757 -0.2160
 5350TIP3    H237542   6.512   6.529   5.060 -0.2880 -1.1675  0.3823
 5351TIP3   OH237543   3.557   3.078   3.057 -0.3538 -0.4953  0.0414
 5351TIP3    H137544   3.551   3.092   2.962  0.0301 -0.2034  0.0592
 5351TIP3    H237545   3.572   2.984   3.065  2.1248 -0.1673 -0.3164
 5352TIP3   OH237546   0.345   3.514  13.879 -0.1501  0.2194  0.0057
 5352TIP3    H137547   0.387   3.536  13.962  1.0042  1.7772 -0.9733
 5352TIP3    H237548   0.251   3.514  13.899  0.2334 -2.7010  2.0694
 5353TIP3   OH237549   5.099   4.789  15.132  0.7072 -0.2121 -0.6286
 5353TIP3    H137550   5.189   4.766  15.108  0.7888  0.4617 -0.9669
 5353TIP3    H237551   5.108   4.842  15.211  0.6380  0.2645 -0.9396
 5354TIP3   OH237552   6.603   6.005   4.774  0.2875  0.2988  0.5938
 5354TIP3    H137553   6.616   6.100   4.767 -0.3782  0.7812  4.5231
 5354TIP3    H237554   6.509   5.993   4.770  0.4238 -0.3697 -1.0649
 5355TIP3   OH237555   2.372   0.332   5.577  0.3034 -0.7497 -0.1922
 5355TIP3    H137556   2.376   0.256   5.634 -2.1171 -0.3128  0.6262
 5355TIP3    H237557   2.325   0.302   5.499 -1.1325  0.0050  0.3594
 5356TIP3   OH237558   6.142   0.336   3.286 -0.7754  0.0424 -0.0719
 5356TIP3    H137559   6.219   0.280   3.288 -0.3520  0.6343  1.6362
 5356TIP3    H237560   6.168   0.412   3.234 -0.3038  0.1052  0.2557
 5357TIP3   OH237561   2.624   5.501   3.586 -0.1410 -0.2797  0.3829
 5357TIP3    H137562   2.571   5.486   3.664 -2.1543 -1.6168 -1.1861
 5357TIP3    H237563   2.677   5.422   3.578  0.4181  0.0679  0.6735
 5358TIP3   OH237564   6.796   2.708  15.802  0.1719 -0.0945 -0.2431
 5358TIP3    H137565   6.777   2.624  15.843 -2.2607  1.3314  1.7086
 5358TIP3    H237566   6.861   2.749  15.858  0.4517 -0.1616 -0.5162
 5359TIP3   OH237567   2.986   5.728   3.415 -0.1179 -0.4721  0.1281
 5359TIP3    H137568   2.948   5.718   3.328  0.0625 -0.3998  0.0408
 5359TIP3    H237569   3.049   5.799   3.405 -0.8657  0.2585  0.5653
 5360TIP3   OH237570   4.058   4.075   2.269  0.1156  0.0811 -0.2211
 5360TIP3    H137571   4.125   4.022   2.225 -0.0738 -0.3051 -0.0470
 5360TIP3    H237572   4.044   4.030   2.353 -1.4281 -0.6707 -0.8618
 5361TIP3   OH237573   6.022   6.009  12.993 -0.6265 -0.0327  0.3030
 5361TIP3    H137574   5.976   5.933  12.956 -0.1581 -0.2585  0.1793
 5361TIP3    H237575   5.987   6.084  12.946 -1.5198 -0.1077  0.8277
 5362TIP3   OH237576   3.805   4.318  12.410  0.1899  0.5544 -0.1758
 5362TIP3    H137577   3.876   4.353  12.356  0.6329 -2.7000 -1.8645
 5362TIP3    H237578   3.850   4.265  12.476 -0.5907  0.0398 -0.0591
 5363TIP3   OH237579   0.561   1.378   2.435  0.1621 -0.6845  0.4147
 5363TIP3    H137580   0.479   1.329   2.429  0.5212 -1.4164  1.4069
 5363TIP3    H237581   0.535   1.463   2.471 -0.2224 -0.7454  0.2922
 5364TIP3   OH237582   6.115   1.975   2.265 -0.4987  0.1197 -0.5181
 5364TIP3    H137583   6.039   1.966   2.207  0.3701  1.1507 -1.8312
 5364TIP3    H237584   6.121   2.069   2.283 -0.7090 -0.1802  1.1916
 5365TIP3   OH237585   3.854   6.043  15.464  0.4428  0.3632 -0.5179
 5365TIP3    H137586   3.808   6.012  15.541  3.1862 -0.7314  0.7078
 5365TIP3    H237587   3.937   6.077  15.497  1.8564 -0.5452 -3.0147
 5366TIP3   OH237588   3.457   0.698  10.953  0.0367  0.1530  0.0374
 5366TIP3    H137589   3.389   0.756  10.988 -0.1439  1.0684 -1.7829
 5366TIP3    H237590   3.412   0.615  10.938 -0.5307  0.5637 -0.5525
 5367TIP3   OH237591   1.993   5.584  12.495  0.5592  0.3921 -0.0072
 5367TIP3    H137592   1.913   5.635  12.509 -0.1526 -0.9614  0.8629
 5367TIP3    H237593   1.988   5.556  12.404 -0.2795 -0.2414  0.2312
 5368TIP3   OH237594   3.634   0.398  15.912  0.2829  0.0469 -0.0209
 5368TIP3    H137595   3.633   0.302  15.913  1.0679  0.0131 -0.8160
 5368TIP3    H237596   3.726   0.421  15.925  0.1645  0.6800 -0.2749
 5369TIP3   OH237597   3.108   4.921  10.891 -0.5611  0.0571 -0.2630
 5369TIP3    H137598   3.037   4.892  10.948 -0.6595 -0.8270 -0.8228
 5369TIP3    H237599   3.179   4.858  10.906  0.3964  1.3668  0.8523
 5370TIP3   OH237600   3.427   0.427   5.353 -0.6334  0.1266 -0.1842
 5370TIP3    H137601   3.368   0.501   5.372 -1.8106 -0.9261  0.3136
 5370TIP3    H237602   3.377   0.350   5.378  1.0000 -0.7892  0.2905
 5371TIP3   OH237603   2.154   5.545  16.683 -0.6244  0.4845  0.6200
 5371TIP3    H137604   2.183   5.469  16.632  0.5584  1.2091  0.1896
 5371TIP3    H237605   2.095   5.592  16.625  1.1439  1.5993 -0.2934
 5372TIP3   OH237606   0.153   0.655  14.662  0.6045  0.2540  0.2135
 5372TIP3    H137607   0.231   0.711  14.668  1.0895 -0.4591  0.7621
 5372TIP3    H237608   0.127   0.640  14.753 -0.6739  1.1589  0.0076
 5373TIP3   OH237609   2.281   5.390  11.913  0.0679 -0.0587  0.2234
 5373TIP3    H137610   2.328   5.382  11.830  0.6408  2.0911  0.3153
 5373TIP3    H237611   2.192   5.413  11.887 -0.2485 -1.3329  0.1497
 5374TIP3   OH237612   4.995   2.461  15.356  0.4978  0.6419 -0.3192
 5374TIP3    H137613   4.906   2.488  15.379  0.1721  0.1497 -1.0053
 5374TIP3    H237614   5.048   2.491  15.430  0.0992  2.8985 -0.8960
 5375TIP3   OH237615   0.042   3.862   0.385  0.5502  0.0073 -0.6439
 5375TIP3    H137616  -0.033   3.885   0.330 -0.2208 -1.4409 -0.2330
 5375TIP3    H237617   0.052   3.936   0.445 -2.5945 -1.1562  1.4397
 5376TIP3   OH237618   0.845   2.198  14.930 -0.0412 -0.0906 -0.2366
 5376TIP3    H137619   0.864   2.121  14.876  0.3206 -0.3704  0.2838
 5376TIP3    H237620   0.843   2.271  14.868 -0.8505 -0.5837 -0.7915
 5377TIP3   OH237621   5.032   1.824  13.954 -0.3032  0.7031  0.6950
 5377TIP3    H137622   5.031   1.731  13.978 -0.6312  0.1321 -1.4659
 5377TIP3    H237623   5.001   1.869  14.033  0.4227 -0.9655  1.9577
 5378TIP3   OH237624   1.539   3.355  15.766  0.6088  0.3033 -0.0928
 5378TIP3    H137625   1.578   3.321  15.847  2.5263  2.3469 -0.0859
 5378TIP3    H237626   1.587   3.311  15.696  0.1763 -0.1433 -0.1096
 5379TIP3   OH237627   4.768   6.524  15.817 -0.7201 -0.0895  0.3008
 5379TIP3    H137628   4.863   6.538  15.819 -0.9644  2.1101 -1.5015
 5379TIP3    H237629   4.748   6.486  15.902  1.8198 -0.8281  0.6112
 5380TIP3   OH237630   0.797   1.547   2.039  0.0861 -0.1180  0.9770
 5380TIP3    H137631   0.744   1.479   2.082 -0.1487 -1.7351 -1.7141
 5380TIP3    H237632   0.734   1.614   2.013 -0.0261 -0.0311  1.4638
 5381TIP3   OH237633   1.832   3.422  11.948  0.0137 -0.3690  0.4446
 5381TIP3    H137634   1.743   3.395  11.971 -1.5375  2.8678 -1.4045
 5381TIP3    H237635   1.872   3.447  12.031 -1.7138  0.6469  0.9986
 5382TIP3   OH237636   2.857   3.197   5.016  0.0934  0.0222 -0.2823
 5382TIP3    H137637   2.864   3.280   4.969  1.2774 -0.1328 -0.3772
 5382TIP3    H237638   2.946   3.175   5.040  0.0076 -2.0962 -1.7634
 5383TIP3   OH237639   2.384   2.642   1.360  0.3903 -0.1314  0.4754
 5383TIP3    H137640   2.475   2.671   1.362 -0.1874  1.6991  0.6148
 5383TIP3    H237641   2.372   2.595   1.443  1.2747 -0.5833  0.3462
 5384TIP3   OH237642   0.841   0.374   0.606 -0.9606 -0.2661 -0.2608
 5384TIP3    H137643   0.921   0.409   0.646 -0.4554 -1.8894  0.1917
 5384TIP3    H237644   0.774   0.440   0.624  0.1569  0.8425 -0.1564
 5385TIP3   OH237645   6.788   5.168   5.163 -0.4673 -0.2771  0.2612
 5385TIP3    H137646   6.717   5.188   5.223 -0.4255 -0.6285  0.4314
 5385TIP3    H237647   6.786   5.073   5.155 -0.9476 -0.1769 -0.8743
 5386TIP3   OH237648   0.953   1.778   3.664 -0.3157 -0.7331  0.7631
 5386TIP3    H137649   1.014   1.848   3.639  1.3405 -1.4466  2.6424
 5386TIP3    H237650   0.908   1.812   3.742 -0.0508 -1.4462  1.2287
 5387TIP3   OH237651   4.100   5.974   4.637 -0.0549  0.3662 -0.1701
 5387TIP3    H137652   4.176   5.934   4.680  0.7021 -0.4360 -2.1868
 5387TIP3    H237653   4.030   5.968   4.702  0.5611 -2.5012  0.3289
 5388TIP3   OH237654   2.363   4.255  13.119 -0.0554  0.1044  0.4539
 5388TIP3    H137655   2.276   4.244  13.158 -0.8016  0.6883 -1.0170
 5388TIP3    H237656   2.412   4.306  13.184 -0.8287 -0.1956  1.2777
 5389TIP3   OH237657   1.588   1.452  11.079 -0.2480  0.3006  0.2206
 5389TIP3    H137658   1.638   1.492  11.149  0.2499  0.1130 -0.0249
 5389TIP3    H237659   1.617   1.496  10.999  1.4523 -1.5991 -0.2538
 5390TIP3   OH237660   2.809   6.220   1.984  0.0213 -0.0441  0.7107
 5390TIP3    H137661   2.785   6.139   1.939  1.7485 -1.0264  1.5280
 5390TIP3    H237662   2.772   6.210   2.072 -0.1829  0.2734  0.6625
 5391TIP3   OH237663   5.466   1.407  11.413 -0.2493 -0.6102  0.1000
 5391TIP3    H137664   5.458   1.329  11.358  0.1922 -0.3898 -0.2891
 5391TIP3    H237665   5.561   1.421  11.421 -0.2902 -1.0562  1.5243
 5392TIP3   OH237666   0.174   5.825   0.612  0.4314  0.1938 -0.1108
 5392TIP3    H137667   0.185   5.803   0.704 -1.2547 -0.2854 -0.0019
 5392TIP3    H237668   0.094   5.778   0.585  0.5259  0.8556 -1.6269
 5393TIP3   OH237669   1.517   3.721   2.367 -0.2389  0.5332 -0.3973
 5393TIP3    H137670   1.493   3.814   2.372 -1.0760  0.3176 -0.2733
 5393TIP3    H237671   1.570   3.714   2.288  2.2593  1.6354  1.1354
 5394TIP3   OH237672   6.261   0.569  12.530  0.1335  0.1080 -0.5559
 5394TIP3    H137673   6.351   0.538  12.533  0.0811  0.0267  0.7701
 5394TIP3    H237674   6.211   0.495  12.498  0.4800 -0.0068 -0.8285
 5395TIP3   OH237675   1.830   1.301   4.920  0.3483  0.4205  0.0444
 5395TIP3    H137676   1.809   1.299   4.827  0.8982  0.8078 -0.0885
 5395TIP3    H237677   1.766   1.241   4.960 -0.0755  0.4761 -0.5382
 5396TIP3   OH237678   1.567   2.125   5.675  0.0799  0.4461  0.6175
 5396TIP3    H137679   1.624   2.118   5.598  1.2850  1.1597  1.4430
 5396TIP3    H237680   1.487   2.165   5.640 -0.3418 -1.5329 -0.7451
 5397TIP3   OH237681   3.078   0.251  15.294 -0.1637  0.5406  0.3980
 5397TIP3    H137682   3.115   0.188  15.233 -0.3833  0.1708  0.6422
 5397TIP3    H237683   3.146   0.262  15.361  0.4830  1.7049 -0.4357
 5398TIP3   OH237684   0.936   0.899  14.396  0.2952 -0.0505 -0.4597
 5398TIP3    H137685   0.967   0.831  14.456  1.3949  1.0317  0.2194
 5398TIP3    H237686   0.846   0.873  14.376  0.5873 -1.5191  0.0570
 5399TIP3   OH237687   4.206   6.242  11.091 -0.1680  0.2550  0.6450
 5399TIP3    H137688   4.135   6.298  11.060  0.3016 -0.3773 -1.6758
 5399TIP3    H237689   4.234   6.194  11.013  2.1235 -0.2596  1.7469
 5400TIP3   OH237690   1.926   3.957   1.243  0.0030  0.5199 -0.0793
 5400TIP3    H137691   1.895   3.866   1.239 -0.5890  0.6381  1.4138
 5400TIP3    H237692   1.937   3.974   1.336  2.4212  1.2254 -0.4630
 5401TIP3   OH237693   5.912   2.715  12.490  0.1786  0.1985 -0.1248
 5401TIP3    H137694   5.891   2.805  12.464 -0.5525 -0.0979 -0.5748
 5401TIP3    H237695   5.862   2.660  12.429 -1.0085 -0.5142  1.4541
 5402TIP3   OH237696   4.489   3.509  12.507 -0.0036  0.7273  0.1618
 5402TIP3    H137697   4.562   3.569  12.496  0.5088 -0.0577 -0.8777
 5402TIP3    H237698   4.435   3.523  12.429  0.7193 -0.9458 -0.6719
 5403TIP3   OH237699   2.818   5.210  15.374 -0.2955 -0.0995 -0.3038
 5403TIP3    H137700   2.740   5.265  15.371  0.0498  0.3290 -2.0096
 5403TIP3    H237701   2.807   5.157  15.453 -1.3631  1.3268  0.5281
 5404TIP3   OH237702   2.189   0.300   4.126 -0.1832  0.1644  0.9542
 5404TIP3    H137703   2.130   0.352   4.071  0.5876  0.9927  0.8946
 5404TIP3    H237704   2.272   0.297   4.078 -0.5269 -2.0715  0.4455
 5405TIP3   OH237705   0.453   3.633   5.235 -0.7872 -0.0152  0.8328
 5405TIP3    H137706   0.477   3.540   5.241 -0.2757  0.0116 -0.5110
 5405TIP3    H237707   0.379   3.642   5.295 -0.8177 -1.2907  1.0190
 5406TIP3   OH237708   6.527   0.901   6.299 -0.4334  0.2996  0.7596
 5406TIP3    H137709   6.442   0.943   6.287 -1.5078 -1.5928  1.5813
 5406TIP3    H237710   6.537   0.894   6.394 -0.0982 -0.9769  0.6340
 5407TIP3   OH237711   5.082   2.020   2.668 -0.0467 -0.1548  0.5411
 5407TIP3    H137712   5.024   2.096   2.667 -0.2117 -0.2726  1.2351
 5407TIP3    H237713   5.025   1.947   2.643 -0.0598 -0.1717  0.6212
 5408TIP3   OH237714   0.123   2.398   3.037 -0.1154 -0.0317  0.0489
 5408TIP3    H137715   0.100   2.305   3.042 -0.0847  0.0371  1.7981
 5408TIP3    H237716   0.057   2.442   3.091 -1.2974  1.2022 -2.3388
 5409TIP3   OH237717   1.014   0.333   3.098 -0.1806 -0.4662 -0.4676
 5409TIP3    H137718   1.000   0.397   3.168  1.0792  0.5176 -1.1043
 5409TIP3    H237719   1.027   0.250   3.144  0.8640  0.2067  0.4788
 5410TIP3   OH237720   0.968   6.113   4.609  0.3074  0.0743  0.2633
 5410TIP3    H137721   0.947   6.173   4.538 -0.2049  0.9924  1.1762
 5410TIP3    H237722   0.918   6.146   4.684  0.9786 -0.7650  1.0951
 5411TIP3   OH237723   4.972   4.958  17.197 -0.2810  0.8489 -0.1447
 5411TIP3    H137724   4.942   4.890  17.137 -0.6391  2.2037 -1.5349
 5411TIP3    H237725   4.904   5.026  17.192  1.4519  2.5732 -0.9775
 5412TIP3   OH237726   4.984   0.457   1.123  0.3047 -0.3355 -0.4294
 5412TIP3    H137727   5.075   0.431   1.143  1.0730  1.9084 -0.9166
 5412TIP3    H237728   4.948   0.381   1.077  2.3841 -0.6963 -1.5415
 5413TIP3   OH237729   1.817   1.458  13.292  0.3293 -0.3027  0.4541
 5413TIP3    H137730   1.733   1.501  13.310 -0.1705 -0.5668 -1.1391
 5413TIP3    H237731   1.822   1.455  13.196  2.6965  0.7439  0.5182
 5414TIP3   OH237732   3.712   6.647   4.791 -0.3904  0.4209 -0.2431
 5414TIP3    H137733   3.805   6.627   4.784 -0.3872  0.4001 -0.1455
 5414TIP3    H237734   3.709   6.737   4.821 -0.3999  0.2243  0.3381
 5415TIP3   OH237735   0.569   4.791   0.679  0.0673  0.3892 -0.5967
 5415TIP3    H137736   0.496   4.827   0.730  1.5738  1.1302  1.0904
 5415TIP3    H237737   0.629   4.757   0.745  2.6788  2.4919 -1.7929
 5416TIP3   OH237738   1.110   4.804  14.345 -0.9580 -1.1393 -0.4616
 5416TIP3    H137739   1.072   4.873  14.290  0.1746  0.0045  0.1666
 5416TIP3    H237740   1.035   4.752  14.374 -2.3455  2.1735  2.2634
 5417TIP3   OH237741   3.629   0.157  10.549 -0.0772  0.0675  0.1513
 5417TIP3    H137742   3.586   0.212  10.483 -0.2516  1.2930  1.2787
 5417TIP3    H237743   3.680   0.094  10.497 -1.9122 -0.3774 -1.1856
 5418TIP3   OH237744   4.554   0.721   1.714  0.0007  0.1803  0.5689
 5418TIP3    H137745   4.575   0.662   1.787 -0.1451 -2.3187 -1.3389
 5418TIP3    H237746   4.618   0.699   1.646  0.1174  2.4578 -0.0939
 5419TIP3   OH237747   0.796   1.370  11.919  0.0362 -0.0956  0.2626
 5419TIP3    H137748   0.706   1.399  11.903  0.2527 -0.9119 -2.7904
 5419TIP3    H237749   0.789   1.275  11.927  0.8742 -0.3802 -2.1585
 5420TIP3   OH237750   3.805   6.745   4.158  0.3602  0.6085  0.3849
 5420TIP3    H137751   3.877   6.684   4.174  0.7396  1.1959  1.0030
 5420TIP3    H237752   3.786   6.737   4.065 -0.0433 -0.9259  0.5801
 5421TIP3   OH237753   0.642   4.335   3.167 -0.0907 -0.2536  1.2763
 5421TIP3    H137754   0.554   4.322   3.202 -0.7199  0.2375 -0.0974
 5421TIP3    H237755   0.653   4.266   3.102  0.1763  0.2631  0.7682
 5422TIP3   OH237756   0.459   1.354  12.147  0.5915  0.1424 -0.4262
 5422TIP3    H137757   0.532   1.298  12.172 -0.1533 -0.7136 -0.1542
 5422TIP3    H237758   0.470   1.368  12.053  1.8580  1.1186 -0.1345
 5423TIP3   OH237759   6.077   4.484  14.280 -0.4023 -0.1631 -0.1843
 5423TIP3    H137760   6.038   4.483  14.367  1.0148 -1.6876  0.4371
 5423TIP3    H237761   6.121   4.569  14.274 -1.8663  0.6192 -0.0428
 5424TIP3   OH237762   2.143   6.700  14.911 -0.3217 -0.0724  0.6284
 5424TIP3    H137763   2.227   6.715  14.956  0.2294 -2.4909  0.5149
 5424TIP3    H237764   2.093   6.780  14.925  2.1049  1.5107  0.5072
 5425TIP3   OH237765   6.153   6.150   0.768 -0.1577 -0.3542  0.0626
 5425TIP3    H137766   6.165   6.179   0.677 -0.1817  1.4211  0.6171
 5425TIP3    H237767   6.203   6.069   0.774 -0.0708 -0.4301 -1.5141
 5426TIP3   OH237768   0.354   4.134   3.396  0.3745 -0.0539 -0.3233
 5426TIP3    H137769   0.366   4.059   3.454  0.5973  0.9660  0.9659
 5426TIP3    H237770   0.375   4.210   3.450  2.5608  0.8143 -2.3133
 5427TIP3   OH237771   5.057   4.812  14.803 -0.4644 -0.2572 -0.4867
 5427TIP3    H137772   5.075   4.906  14.796 -0.6020 -0.3307 -1.8479
 5427TIP3    H237773   4.972   4.807  14.848 -0.2988  0.2520 -0.1114
 5428TIP3   OH237774   1.978   3.269  13.245 -1.0402 -0.1103  0.1348
 5428TIP3    H137775   2.037   3.298  13.315 -1.0872 -1.1881  0.6256
 5428TIP3    H237776   1.890   3.282  13.281 -1.0625 -0.7559  0.3156
 5429TIP3   OH237777   4.606   6.527   3.979 -0.1208  0.0518 -0.2697
 5429TIP3    H137778   4.691   6.487   3.961 -0.1425  0.1877 -0.6614
 5429TIP3    H237779   4.607   6.610   3.931  0.1779  0.8328  1.0459
 5430TIP3   OH237780   1.711   4.257  15.578  0.6275  0.1685  0.2217
 5430TIP3    H137781   1.759   4.324  15.627  0.4712 -0.1348  0.8001
 5430TIP3    H237782   1.638   4.303  15.538  1.1133  0.5375 -0.2466
 5431TIP3   OH237783   3.317   2.750  16.365 -0.1207 -0.2942  0.0142
 5431TIP3    H137784   3.311   2.711  16.452 -1.4722  0.0700  0.0932
 5431TIP3    H237785   3.233   2.794  16.352  0.5676  0.7785 -0.9386
 5432TIP3   OH237786   3.051   4.041   3.367 -0.3641 -0.2746  0.0442
 5432TIP3    H137787   3.015   4.120   3.408 -1.0800  0.3510 -1.7479
 5432TIP3    H237788   2.993   4.024   3.293  1.9188 -0.3217 -1.7777
 5433TIP3   OH237789   0.615   1.504   2.743  0.3623 -0.2978  0.2944
 5433TIP3    H137790   0.668   1.534   2.669  0.1272 -2.2020 -0.6647
 5433TIP3    H237791   0.528   1.489   2.706  0.2173 -1.1633  0.9847
 5434TIP3   OH237792   3.310   6.000  16.739 -0.2786  0.3757  0.2056
 5434TIP3    H137793   3.380   6.009  16.675  1.8263 -1.5922  2.1471
 5434TIP3    H237794   3.252   5.934  16.701 -0.8042  1.5990 -1.1461
 5435TIP3   OH237795   0.084   5.156   3.956 -0.1574 -0.0166  0.2426
 5435TIP3    H137796   0.169   5.192   3.984  0.6351 -0.4714 -1.5350
 5435TIP3    H237797   0.079   5.071   3.999  0.6401 -0.3097 -0.2193
 5436TIP3   OH237798   3.782   6.479  11.950  0.1653 -0.0609  0.0351
 5436TIP3    H137799   3.694   6.441  11.946  1.0768 -2.4512  1.6604
 5436TIP3    H237800   3.791   6.528  11.868 -0.4814 -4.7450 -3.0454
 5437TIP3   OH237801   4.317   4.870  16.100  0.2450  0.2475 -0.6591
 5437TIP3    H137802   4.330   4.858  16.194 -1.4640  1.4252 -0.2487
 5437TIP3    H237803   4.227   4.900  16.092  0.4508  0.3903 -2.6664
 5438TIP3   OH237804   6.372   6.449  13.531  0.7475 -0.2385  0.0464
 5438TIP3    H137805   6.375   6.467  13.437  0.0372  0.4873  0.1595
 5438TIP3    H237806   6.429   6.373  13.543  0.3009 -0.7545 -1.0657
 5439TIP3   OH237807   2.464   1.637   3.591  0.4068  0.5011 -0.2829
 5439TIP3    H137808   2.476   1.729   3.567 -1.6426  1.1709  1.1744
 5439TIP3    H237809   2.535   1.619   3.652  0.6884  1.1557 -0.4078
 5440TIP3   OH237810   2.192   5.848   2.717  0.6259  0.2150  0.1633
 5440TIP3    H137811   2.116   5.858   2.774  0.6678 -2.4762  0.7520
 5440TIP3    H237812   2.234   5.934   2.717 -0.1456  0.6260  3.1245
 5441TIP3   OH237813   2.166   2.876   1.151 -0.0423  0.6290  0.5146
 5441TIP3    H137814   2.111   2.801   1.128  0.7627  0.8103 -2.1709
 5441TIP3    H237815   2.197   2.857   1.240 -0.1107 -2.0694 -0.0060
 5442TIP3   OH237816   1.669   1.190  16.236  0.0870 -0.8816  0.4000
 5442TIP3    H137817   1.728   1.259  16.205 -0.3184 -1.3206 -1.3859
 5442TIP3    H237818   1.702   1.110  16.196 -1.1565 -1.2782  0.1293
 5443TIP3   OH237819   6.152   2.068   0.995  0.0495 -0.4456  0.4007
 5443TIP3    H137820   6.083   2.009   0.965  0.9140  1.0107 -5.0122
 5443TIP3    H237821   6.112   2.116   1.067 -3.2815 -2.2152 -0.1348
 5444TIP3   OH237822   2.002   4.338  15.434  0.4307  1.0252 -0.3049
 5444TIP3    H137823   2.091   4.312  15.460 -0.2693 -0.7160  0.4810
 5444TIP3    H237824   2.007   4.349  15.339  1.7267  1.9609 -0.1398
 5445TIP3   OH237825   0.951   6.791  16.430 -0.0986 -0.5713  0.2083
 5445TIP3    H137826   0.928   6.743  16.350 -1.7176  0.1026  0.2516
 5445TIP3    H237827   1.041   6.766  16.447 -0.2134 -1.9036 -0.9949
 5446TIP3   OH237828   4.057   0.334   4.615  0.1200 -0.5072  0.1496
 5446TIP3    H137829   4.074   0.351   4.522 -1.1306  0.2247  0.0361
 5446TIP3    H237830   4.140   0.355   4.659 -0.1733  2.1007 -0.4642
 5447TIP3   OH237831   2.499   6.259   4.716  0.4009  0.1329  0.5265
 5447TIP3    H137832   2.432   6.222   4.657  1.3162  0.0065 -0.4550
 5447TIP3    H237833   2.449   6.312   4.778 -0.6083  0.1575 -0.2739
 5448TIP3   OH237834   4.284   6.776   4.246 -0.0787  0.0453 -0.0320
 5448TIP3    H137835   4.330   6.693   4.257  0.5903  0.3136 -0.7528
 5448TIP3    H237836   4.354   6.841   4.241 -0.5690  0.5435 -0.4418
 5449TIP3   OH237837   5.334   0.017   2.405  0.4472  0.0027  0.6468
 5449TIP3    H137838   5.302   0.096   2.364 -1.7211 -0.1029  2.0886
 5449TIP3    H237839   5.268  -0.050   2.386  1.8323 -1.2639  0.1483
 5450TIP3   OH237840   3.597   1.193   3.745 -0.4579  0.0838  0.4648
 5450TIP3    H137841   3.528   1.246   3.785 -1.0201 -0.3960  0.1322
 5450TIP3    H237842   3.603   1.226   3.655 -0.0037  0.3633  0.5916
 5451TIP3   OH237843   5.471   0.381  12.741  0.0589  0.7557 -0.7106
 5451TIP3    H137844   5.498   0.458  12.691  1.6129  1.1995  0.7914
 5451TIP3    H237845   5.442   0.416  12.825  0.8641 -0.2880  0.0159
 5452TIP3   OH237846   6.643   4.624   1.956  0.0927  0.1003 -0.3233
 5452TIP3    H137847   6.736   4.623   1.979 -0.1376  0.2503  0.6450
 5452TIP3    H237848   6.613   4.535   1.974 -0.1000  0.2312  0.0067
 5453TIP3   OH237849   3.058   6.727  12.193 -0.5481 -0.1835 -0.3862
 5453TIP3    H137850   3.050   6.689  12.281  1.2371  2.2608  0.9170
 5453TIP3    H237851   3.141   6.693  12.160  1.1402  2.5615  0.8553
 5454TIP3   OH237852   6.362   6.619   4.110  0.0697  0.1801  0.2352
 5454TIP3    H137853   6.451   6.583   4.104 -0.0554  0.0364 -0.7630
 5454TIP3    H237854   6.371   6.693   4.170  0.7290 -0.2541  0.6860
 5455TIP3   OH237855   5.943   1.948   5.986 -0.0918  0.5003 -0.9405
 5455TIP3    H137856   5.933   1.945   5.891  1.4773 -1.6561 -1.0913
 5455TIP3    H237857   5.857   1.971   6.019 -1.0737 -0.3876 -2.8314
 5456TIP3   OH237858   1.938   5.635   3.623  0.0690  0.5190 -0.2573
 5456TIP3    H137859   1.931   5.726   3.650 -1.8543  0.0654  0.8212
 5456TIP3    H237860   1.874   5.588   3.677 -0.6185 -1.1004 -2.4024
 5457TIP3   OH237861   1.554   6.558   6.660 -0.4707 -0.2921  0.4339
 5457TIP3    H137862   1.505   6.628   6.703 -1.2502 -1.3510  1.3200
 5457TIP3    H237863   1.497   6.481   6.667  0.7324 -1.2220  0.2802
 5458TIP3   OH237864   2.257   2.651  14.307  0.1634 -0.2069  0.4899
 5458TIP3    H137865   2.351   2.659  14.323  0.3604 -0.1200 -0.6668
 5458TIP3    H237866   2.229   2.739  14.281 -0.2832 -0.1863  1.0084
 5459TIP3   OH237867   3.408   4.565   2.697 -0.2272 -0.1396 -0.2521
 5459TIP3    H137868   3.450   4.538   2.778 -0.7819  0.3214  0.2013
 5459TIP3    H237869   3.472   4.548   2.629  1.8685  3.3334  0.7362
 5460TIP3   OH237870   3.549   1.338  13.377  0.2303 -0.0623  0.3370
 5460TIP3    H137871   3.610   1.412  13.369  1.4419 -1.2681 -2.2297
 5460TIP3    H237872   3.472   1.365  13.326  2.3942 -2.1863 -4.3278
 5461TIP3   OH237873   4.696   0.129  13.387  0.5664 -0.6438  0.7885
 5461TIP3    H137874   4.640   0.077  13.330  0.7792  0.2366 -0.2471
 5461TIP3    H237875   4.780   0.083  13.387  0.0111 -1.6599  1.8933
 5462TIP3   OH237876   1.328   2.617  15.309 -0.1891 -0.0884 -0.1394
 5462TIP3    H137877   1.240   2.592  15.335 -0.6031  2.4412  1.0204
 5462TIP3    H237878   1.371   2.644  15.390  1.2607 -0.1106 -0.8648
 5463TIP3   OH237879   0.587   2.554  15.871 -0.0082  0.5718  0.0227
 5463TIP3    H137880   0.493   2.543  15.857 -0.6950  0.4592  4.0661
 5463TIP3    H237881   0.623   2.466  15.863 -0.1736  0.6679 -1.8857
 5464TIP3   OH237882   5.840   6.690  13.743 -0.6796 -0.0650  0.2614
 5464TIP3    H137883   5.853   6.722  13.653  0.4199 -2.9317 -0.6505
 5464TIP3    H237884   5.919   6.718  13.789 -0.9621  0.8741  0.1952
 5465TIP3   OH237885   6.638   2.466  11.476  0.3698  0.4199  0.0524
 5465TIP3    H137886   6.729   2.459  11.448  0.3496  0.0808  0.0776
 5465TIP3    H237887   6.606   2.376  11.479 -0.1040  0.5695 -0.4042
 5466TIP3   OH237888   6.445   1.084   4.754 -0.8526  0.7421  0.2219
 5466TIP3    H137889   6.408   0.996   4.744  0.6455  0.2126 -0.7729
 5466TIP3    H237890   6.431   1.125   4.669  2.6129 -0.1615 -0.8432
 5467TIP3   OH237891   2.509   6.204  13.113 -0.6012  0.3317 -0.1731
 5467TIP3    H137892   2.417   6.191  13.089 -0.3459  0.3677 -1.2002
 5467TIP3    H237893   2.553   6.124  13.085 -0.6137 -0.4704  1.9735
 5468TIP3   OH237894   0.524   3.158   3.526 -0.2919  0.3445 -0.4014
 5468TIP3    H137895   0.481   3.233   3.486 -1.4413  0.6175  1.2657
 5468TIP3    H237896   0.512   3.087   3.464  0.0474  1.3178 -1.6002
 5469TIP3   OH237897   6.063   3.524   1.357  0.1749  0.3476 -0.3908
 5469TIP3    H137898   6.137   3.584   1.367  0.6809 -0.2251 -0.6576
 5469TIP3    H237899   5.988   3.581   1.340  0.4215  0.9746  0.5933
 5470TIP3   OH237900   4.973   3.462  16.078 -0.4291  0.2249 -0.4083
 5470TIP3    H137901   4.979   3.541  16.133 -1.9697 -0.2228  0.4458
 5470TIP3    H237902   5.040   3.474  16.011 -1.9519  3.2309 -1.5188
 5471TIP3   OH237903   4.552   5.719   4.131 -0.6488 -0.3239  0.4552
 5471TIP3    H137904   4.481   5.680   4.182 -1.5709 -0.8890 -1.2230
 5471TIP3    H237905   4.628   5.665   4.150 -1.6141 -2.1962 -0.8276
 5472TIP3   OH237906   6.197   3.894   3.855  0.1554  0.1240 -0.1692
 5472TIP3    H137907   6.223   3.954   3.785  1.3749  0.1480  0.2866
 5472TIP3    H237908   6.147   3.948   3.916  0.4571  0.4743 -0.2296
 5473TIP3   OH237909   6.154   0.511   2.148  0.4245 -0.0470  0.1101
 5473TIP3    H137910   6.239   0.493   2.188  0.3245 -1.4029 -0.2442
 5473TIP3    H237911   6.090   0.478   2.213  0.1382  1.7352  0.7533
 5474TIP3   OH237912   3.952   2.147   3.778 -0.6122  0.8723 -0.2817
 5474TIP3    H137913   3.964   2.095   3.699 -1.9401  1.4733 -0.8987
 5474TIP3    H237914   4.037   2.190   3.792 -0.1271  0.1072 -0.9024
 5475TIP3   OH237915   1.565   1.300   0.009  0.2741 -0.1948 -0.1032
 5475TIP3    H137916   1.525   1.288   0.095 -2.3049  2.0047 -0.9274
 5475TIP3    H237917   1.618   1.221  -0.004 -0.4149 -1.2147  2.8752
 5476TIP3   OH237918   0.828   0.234   4.656 -0.2597  0.5789  0.8028
 5476TIP3    H137919   0.784   0.319   4.658  0.0885  0.7573  1.0646
 5476TIP3    H237920   0.878   0.231   4.738 -0.1925  0.1646  0.7470
 5477TIP3   OH237921   3.138   2.695  14.926 -0.0516  0.3160 -0.6585
 5477TIP3    H137922   3.045   2.690  14.903 -0.6149  1.6122  1.3004
 5477TIP3    H237923   3.182   2.660  14.849 -2.1724 -0.7253 -1.4617
 5478TIP3   OH237924   4.234   1.848  15.349  0.3476 -0.1011  0.1651
 5478TIP3    H137925   4.246   1.862  15.443 -1.8495 -0.7846  0.5943
 5478TIP3    H237926   4.318   1.872  15.310  0.2548  3.5704  1.9382
 5479TIP3   OH237927   6.348   5.924   0.169  0.0190 -0.4691 -0.3541
 5479TIP3    H137928   6.399   5.939   0.248  0.3658 -0.2178 -0.6268
 5479TIP3    H237929   6.264   5.965   0.187  0.3309  0.1822 -0.3826
 5480TIP3   OH237930   3.469   5.427  10.808 -0.0640 -0.2140 -0.0184
 5480TIP3    H137931   3.452   5.487  10.880  1.1776 -0.0144  0.1275
 5480TIP3    H237932   3.455   5.480  10.729  0.2388  0.0520  0.1037
 5481TIP3   OH237933   2.544   6.806  12.935 -0.2035 -0.3507 -0.6663
 5481TIP3    H137934   2.561   6.736  12.873  0.2626 -1.8661  1.1136
 5481TIP3    H237935   2.619   6.804  12.995 -1.3596  0.0488  0.8499
 5482TIP3   OH237936   1.097   3.876  17.193 -0.5248 -0.0332 -0.1265
 5482TIP3    H137937   1.080   3.784  17.214 -1.9686  0.8637  2.9723
 5482TIP3    H237938   1.146   3.910  17.268 -0.1479  1.7602 -1.1457
 5483TIP3   OH237939   1.391   4.961  14.920  0.5251  0.1640  0.2779
 5483TIP3    H137940   1.365   5.024  14.987 -0.4570  0.1570 -0.0861
 5483TIP3    H237941   1.323   4.894  14.922  0.3301  0.3107 -0.9052
 5484TIP3   OH237942   5.368   3.647  16.432  0.2629 -0.6348  0.5754
 5484TIP3    H137943   5.277   3.619  16.443 -0.2227  0.4910 -0.3558
 5484TIP3    H237944   5.375   3.670  16.339  0.6786  1.9694  1.1951
 5485TIP3   OH237945   1.339   6.024  13.864  0.0046  0.6077  0.1322
 5485TIP3    H137946   1.277   5.954  13.840  1.4489 -0.9333  0.7973
 5485TIP3    H237947   1.325   6.092  13.798 -1.2383 -0.4095 -0.6948
 5486TIP3   OH237948   3.082   6.263  14.684 -0.3046 -0.0855  0.3396
 5486TIP3    H137949   3.011   6.287  14.625 -0.5136  4.3770  2.1983
 5486TIP3    H237950   3.038   6.244  14.767  0.3439 -1.8620  0.2921
 5487TIP3   OH237951   1.925   5.023   6.020  0.1977 -0.4423 -0.0928
 5487TIP3    H137952   1.998   4.970   5.986 -1.4540 -2.4882 -0.5269
 5487TIP3    H237953   1.850   4.965   6.017 -1.3463  1.4519  0.9689
 5488TIP3   OH237954   0.189   1.222   1.280 -0.4198 -0.0807  0.3695
 5488TIP3    H137955   0.107   1.263   1.254 -1.0832 -1.2744  0.5349
 5488TIP3    H237956   0.219   1.273   1.355 -1.9257 -0.7251  1.4156
 5489TIP3   OH237957   5.238   2.820  16.148  0.4014 -0.3192  0.2518
 5489TIP3    H137958   5.299   2.789  16.214  1.2160  0.6017 -0.0631
 5489TIP3    H237959   5.292   2.842  16.073 -0.3341  0.3219 -0.1043
 5490TIP3   OH237960   2.574   5.844   5.667  0.0145 -0.2843 -0.0205
 5490TIP3    H137961   2.575   5.877   5.577 -0.6299 -1.7300 -0.5692
 5490TIP3    H237962   2.538   5.916   5.718 -0.1327  0.3486 -1.0024
 5491TIP3   OH237963   2.659   3.435   5.637 -0.0363  0.2982  0.5624
 5491TIP3    H137964   2.642   3.356   5.689 -0.4321  0.2371  0.3395
 5491TIP3    H237965   2.580   3.446   5.584  1.8563 -1.8186 -2.8977
 5492TIP3   OH237966   3.295   4.796  11.895 -0.8243 -0.1875  0.0201
 5492TIP3    H137967   3.205   4.806  11.925  0.0787  2.5773  1.9862
 5492TIP3    H237968   3.318   4.881  11.857  1.3660 -0.4094  0.7679
 5493TIP3   OH237969   2.384   2.486   1.589  0.0149 -0.4114  0.3377
 5493TIP3    H137970   2.373   2.423   1.517  0.3727 -1.3587  1.0941
 5493TIP3    H237971   2.323   2.455   1.657  0.0205  0.2004  0.6223
 5494TIP3   OH237972   1.530   6.795  11.319 -0.7949  0.4941 -0.2499
 5494TIP3    H137973   1.592   6.853  11.364 -0.1309  0.4853 -1.1390
 5494TIP3    H237974   1.448   6.844  11.316 -0.1244  1.5584 -1.3835
 5495TIP3   OH237975   1.164   1.657   2.965 -0.2663 -0.4230  0.4537
 5495TIP3    H137976   1.166   1.675   3.058  1.0587  1.5246  0.0768
 5495TIP3    H237977   1.138   1.739   2.924  0.4714 -0.8717 -0.9759
 5496TIP3   OH237978   5.477   5.603  10.456  0.1338  0.1497 -0.5084
 5496TIP3    H137979   5.409   5.592  10.523  1.3168 -0.0147  0.6852
 5496TIP3    H237980   5.443   5.556  10.380  0.6040 -3.3009  1.3107
 5497TIP3   OH237981   2.401   0.361  13.191 -0.4078  0.4491  0.2245
 5497TIP3    H137982   2.481   0.385  13.238 -0.4552  0.6396  0.2068
 5497TIP3    H237983   2.408   0.266  13.181  0.4477  0.6169 -0.9267
 5498TIP3   OH237984   2.526   0.264  15.081 -0.2099  0.4048 -0.6833
 5498TIP3    H137985   2.597   0.287  15.140 -0.2543  1.0932 -0.8867
 5498TIP3    H237986   2.540   0.320  15.004  0.1967 -0.9077 -1.5810
 5499TIP3   OH237987   5.620   4.277  16.907  0.1822 -0.2575  0.1561
 5499TIP3    H137988   5.642   4.365  16.935 -0.1951 -0.3988  0.9037
 5499TIP3    H237989   5.647   4.273  16.815  2.7919 -0.2547  0.8783
 5500TIP3   OH237990   3.454   5.832  10.898 -1.2808  0.1485  0.8123
 5500TIP3    H137991   3.546   5.809  10.906 -1.1225  1.1485  2.0500
 5500TIP3    H237992   3.453   5.928  10.902 -2.3703  0.1410  0.8633
 5501TIP3   OH237993   2.411   1.564  14.242  0.2901  0.2495  0.0042
 5501TIP3    H137994   2.453   1.548  14.157  2.2283 -0.0315  0.9874
 5501TIP3    H237995   2.330   1.610  14.221  0.3306 -0.5845 -2.0652
 5502TIP3   OH237996   3.479   2.685  12.157 -0.0397 -0.2485 -0.0723
 5502TIP3    H137997   3.494   2.678  12.251 -0.6656 -0.4117  0.0186
 5502TIP3    H237998   3.505   2.601  12.121  1.7063  0.3587 -0.2559
 5503TIP3   OH237999   3.733   6.721  11.790 -0.3932  0.0578  0.2008
 5503TIP3    H138000   3.734   6.724  11.886  0.8312  2.0564  0.1567
 5503TIP3    H238001   3.691   6.803  11.764 -0.5466 -0.3815 -0.9766
 5504TIP3   OH238002   4.017   3.705   0.752  0.6314 -0.6577  0.5555
 5504TIP3    H138003   4.110   3.682   0.757  0.5113 -1.1733  0.4182
 5504TIP3    H238004   3.972   3.635   0.799  0.4825  0.7279  2.5236
 5505TIP3   OH238005   4.546   6.502   4.519 -0.6384 -0.0188 -0.3667
 5505TIP3    H138006   4.460   6.509   4.477 -1.5151 -0.5806  1.2711
 5505TIP3    H238007   4.573   6.412   4.503 -0.0691  0.3353 -1.4099
 5506TIP3   OH238008   0.330   4.126  15.848 -0.5698 -0.2457 -0.1566
 5506TIP3    H138009   0.309   4.213  15.814 -0.2287 -0.3470 -0.6412
 5506TIP3    H238010   0.260   4.107  15.910 -0.7845  0.2695 -0.2360
 5507TIP3   OH238011   2.800   1.545   2.406 -0.5034  0.5812 -0.0397
 5507TIP3    H138012   2.848   1.616   2.361  0.6812 -0.9245 -1.2221
 5507TIP3    H238013   2.749   1.504   2.337  1.9409 -2.2710 -0.2420
 5508TIP3   OH238014   4.271   2.544  15.492 -0.2671 -0.4885  0.4162
 5508TIP3    H138015   4.215   2.552  15.569 -0.9749 -4.4349  0.3950
 5508TIP3    H238016   4.211   2.521  15.421  0.9547 -1.5612 -0.2998
 5509TIP3   OH238017   5.812   1.163  12.522 -0.0192  0.0435 -1.0106
 5509TIP3    H138018   5.904   1.141  12.511  0.0041  0.0461 -0.8143
 5509TIP3    H238019   5.812   1.255  12.550 -0.0058 -0.4375  0.6075
 5510TIP3   OH238020   1.129   3.286   0.924  0.2046 -0.4982 -0.4564
 5510TIP3    H138021   1.106   3.212   0.868 -2.5200 -0.1192  0.1256
 5510TIP3    H238022   1.080   3.272   1.005  0.8717  1.1336  0.2587
 5511TIP3   OH238023   4.848   4.583   4.100  0.1636  0.0326  0.5689
 5511TIP3    H138024   4.788   4.516   4.068 -1.4687  0.4777  2.5793
 5511TIP3    H238025   4.796   4.663   4.101  1.2850  0.7634  0.7782
 5512TIP3   OH238026   6.142   2.441  13.760 -0.0771 -0.3421  0.0087
 5512TIP3    H138027   6.100   2.398  13.685 -1.1964  0.6604  0.0485
 5512TIP3    H238028   6.094   2.408  13.836  0.1043 -0.2384  0.1672
 5513TIP3   OH238029   4.106   2.195  10.724 -0.7271 -0.5146  0.2985
 5513TIP3    H138030   4.168   2.220  10.656 -0.4547  0.2707  0.8334
 5513TIP3    H238031   4.076   2.278  10.762 -2.3763 -0.8582 -0.1834
 5514TIP3   OH238032   3.035   3.701  11.856 -0.0447 -0.0850  0.2032
 5514TIP3    H138033   3.119   3.669  11.823 -0.1599 -1.1597  0.9048
 5514TIP3    H238034   3.037   3.795  11.841  0.2734 -0.4280 -1.9898
 5515TIP3   OH238035   4.472   5.643  13.776  0.0156 -0.2944 -0.0925
 5515TIP3    H138036   4.547   5.584  13.778 -0.2674 -0.6574 -0.1917
 5515TIP3    H238037   4.451   5.658  13.869  1.1782  1.0443 -0.0368
 5516TIP3   OH238038   6.672   0.830  10.331 -0.3509 -0.1540 -0.3293
 5516TIP3    H138039   6.631   0.860  10.413 -0.9671 -1.8604  0.0154
 5516TIP3    H238040   6.600   0.826  10.268 -0.0674  0.1535 -0.6741
 5517TIP3   OH238041   1.044   4.363   2.041  0.1262  0.3078 -0.1567
 5517TIP3    H138042   1.123   4.314   2.020  0.4692  0.9775 -0.4707
 5517TIP3    H238043   1.027   4.343   2.133  1.4284  1.1877  0.2923
 5518TIP3   OH238044   5.050   2.818   6.326  0.3458 -0.4406 -0.2225
 5518TIP3    H138045   5.141   2.820   6.355  0.1861  0.0492  0.2542
 5518TIP3    H238046   4.999   2.842   6.403  0.0849  3.6406 -1.5428
 5519TIP3   OH238047   0.902   1.713   2.843 -0.2464  0.0263  0.7039
 5519TIP3    H138048   0.969   1.667   2.792 -1.4825  0.4245 -1.3402
 5519TIP3    H238049   0.860   1.644   2.895 -1.1012 -0.9493 -1.2331
 5520TIP3   OH238050   5.993   1.587  16.945  0.5823 -0.3721 -0.0569
 5520TIP3    H138051   6.063   1.647  16.919  0.9604 -0.9590 -0.3913
 5520TIP3    H238052   5.914   1.626  16.908  0.6464  0.5878  0.7907
 5521TIP3   OH238053   6.434   1.164   4.473 -0.0752 -0.2793 -0.0411
 5521TIP3    H138054   6.348   1.166   4.432 -0.1818  0.1559  0.1914
 5521TIP3    H238055   6.492   1.127   4.407 -0.1385  0.9053 -0.7814
 5522TIP3   OH238056   0.871   2.135   0.175 -0.8553  0.3144  0.7560
 5522TIP3    H138057   0.802   2.191   0.210 -1.7556  1.8443 -3.2362
 5522TIP3    H238058   0.893   2.174   0.091  2.2010 -2.3851  0.2220
 5523TIP3   OH238059   6.095   4.679  16.682  0.4684  0.2442 -0.0193
 5523TIP3    H138060   6.189   4.692  16.690  0.7227 -1.4943 -0.0135
 5523TIP3    H238061   6.072   4.620  16.754 -0.3953 -0.4411 -0.8408
 5524TIP3   OH238062   5.684   6.736   6.043 -0.1118  0.0387  0.0598
 5524TIP3    H138063   5.661   6.794   5.970  0.0693  0.3062  0.2112
 5524TIP3    H238064   5.626   6.763   6.114 -1.4660 -1.3467 -0.4826
 5525TIP3   OH238065   6.529   1.219   4.987 -0.3136  0.1501  0.5703
 5525TIP3    H138066   6.502   1.160   4.916 -0.7885  0.4223  0.5212
 5525TIP3    H238067   6.584   1.164   5.044 -0.6453 -0.3078  0.4553
 5526TIP3   OH238068   4.810   1.421   2.173 -0.3040  0.3267  0.1708
 5526TIP3    H138069   4.847   1.504   2.143 -0.3552  0.4474  0.4382
 5526TIP3    H238070   4.746   1.397   2.106 -2.3297  1.9105  1.4753
 5527TIP3   OH238071   5.820   0.128   1.301  0.4469  0.0063  0.1987
 5527TIP3    H138072   5.797   0.167   1.216 -0.6747 -0.4537  0.2868
 5527TIP3    H238073   5.906   0.165   1.321  0.2551  0.9498 -0.6395
 5528TIP3   OH238074   6.745   3.697  14.613 -0.0570 -0.1995 -0.1647
 5528TIP3    H138075   6.713   3.689  14.523  1.6104 -0.7573 -0.7315
 5528TIP3    H238076   6.777   3.609  14.634  1.9372  0.5345  0.0269
 5529TIP3   OH238077   0.012   2.587   0.364 -0.1240  0.0041 -0.6021
 5529TIP3    H138078   0.107   2.585   0.353 -0.1493 -0.9455 -0.6677
 5529TIP3    H238079  -0.022   2.587   0.275 -0.1761  1.5716 -0.6009
 5530TIP3   OH238080   3.315   1.334   4.123 -0.1236 -0.0425 -0.0855
 5530TIP3    H138081   3.222   1.318   4.107 -1.2025  1.0815  4.3235
 5530TIP3    H238082   3.322   1.429   4.132  1.7191 -0.0095 -1.6500
 5531TIP3   OH238083   5.159   0.743   5.492  0.5634  0.3676 -0.6975
 5531TIP3    H138084   5.227   0.809   5.505  0.7806 -0.3429  1.8584
 5531TIP3    H238085   5.085   0.774   5.544 -0.6213  0.4247 -2.3652
 5532TIP3   OH238086   6.620   2.734   5.762  0.0065  0.1457 -0.2733
 5532TIP3    H138087   6.619   2.669   5.833  2.3823  2.6923  2.2356
 5532TIP3    H238088   6.552   2.798   5.788 -0.3753  0.1457 -1.2568
 5533TIP3   OH238089   0.045   5.262   0.687 -0.3931  0.4147  0.0495
 5533TIP3    H138090   0.128   5.295   0.720 -0.8913  0.1261  1.6616
 5533TIP3    H238091   0.034   5.177   0.731 -1.4752  0.4049 -0.2208
 5534TIP3   OH238092   6.380   0.966   3.261 -0.6531 -0.4186  0.0575
 5534TIP3    H138093   6.303   0.970   3.205 -0.9999 -0.9949  0.4845
 5534TIP3    H238094   6.379   0.877   3.298  0.2192 -0.4397  0.0561
 5535TIP3   OH238095   2.759   6.372   3.122 -0.2587 -0.2932 -0.0437
 5535TIP3    H138096   2.766   6.325   3.205 -1.3689  0.4570  0.4937
 5535TIP3    H238097   2.822   6.444   3.130 -0.3904 -0.1994  0.1722
 5536TIP3   OH238098   1.838   1.723   4.461 -0.1533  0.6750 -0.1705
 5536TIP3    H138099   1.864   1.639   4.423  0.1717  0.9332 -0.5200
 5536TIP3    H238100   1.758   1.747   4.415  0.7369  1.4322 -1.3444
 5537TIP3   OH238101   2.581   1.364   4.399  0.0453  0.4146 -0.6441
 5537TIP3    H138102   2.598   1.428   4.331  0.9903  0.0850 -0.7152
 5537TIP3    H238103   2.490   1.337   4.384 -0.2511  1.4812 -0.8157
 5538TIP3   OH238104   3.400   6.318   1.899 -0.3755  0.1163 -0.2133
 5538TIP3    H138105   3.316   6.280   1.922 -0.4500 -0.6273 -1.6501
 5538TIP3    H238106   3.424   6.275   1.817  0.4884  1.7137 -0.8208
 5539TIP3   OH238107   5.001   2.937  13.550  0.1015  0.2226  0.2537
 5539TIP3    H138108   4.968   2.874  13.486 -0.7345  0.1975  0.6918
 5539TIP3    H238109   4.936   3.008  13.550  1.1449  1.1790 -0.3789
 5540TIP3   OH238110   1.672   1.971  14.911 -0.1289  0.3702  0.1170
 5540TIP3    H138111   1.600   1.964  14.849 -0.9568  0.5643  1.0387
 5540TIP3    H238112   1.630   1.970  14.997  0.9139  1.0703  0.6524
 5541TIP3   OH238113   1.678   4.502  11.171 -0.4533  0.0827 -0.5476
 5541TIP3    H138114   1.748   4.499  11.236 -0.5411  0.3583 -0.4398
 5541TIP3    H238115   1.682   4.591  11.136 -0.4214 -0.0588 -0.9009
 5542TIP3   OH238116   2.399   5.461   6.102  0.7177  0.1717  0.0418
 5542TIP3    H138117   2.377   5.386   6.047 -1.8123  1.7313 -1.1871
 5542TIP3    H238118   2.450   5.424   6.174  0.5069 -2.5448 -1.1414
 5543TIP3   OH238119   2.674   6.641   3.243  0.2800  0.1566 -0.2951
 5543TIP3    H138120   2.763   6.672   3.234  0.2969  0.3288  0.4499
 5543TIP3    H238121   2.642   6.633   3.153 -0.2935  3.9297 -0.4993
 5544TIP3   OH238122   4.115   6.264  15.411  0.5591  0.3259 -0.1980
 5544TIP3    H138123   4.131   6.267  15.505 -0.0394 -0.7046 -0.0479
 5544TIP3    H238124   4.021   6.284  15.402  0.1850 -1.3994 -0.4007
 5545TIP3   OH238125   1.462   3.445   1.493  0.1393  0.7953 -0.6889
 5545TIP3    H138126   1.441   3.510   1.560 -2.4619 -0.8773  0.1842
 5545TIP3    H238127   1.383   3.442   1.438 -0.9745 -3.5552  0.9209
 5546TIP3   OH238128   1.060   6.122  15.849  0.0451 -0.1900 -0.1893
 5546TIP3    H138129   1.145   6.083  15.868  0.2737  0.5147  0.2965
 5546TIP3    H238130   0.999   6.049  15.847  0.3756 -0.5187  1.2220
 5547TIP3   OH238131   4.427   6.707   3.624  0.1145  0.0717  0.0422
 5547TIP3    H138132   4.400   6.644   3.691  2.5489 -0.5196  0.5251
 5547TIP3    H238133   4.478   6.772   3.672  0.8541  0.3032 -1.0360
 5548TIP3   OH238134   6.121   1.894   0.656 -0.4714 -0.1432 -0.0910
 5548TIP3    H138135   6.190   1.949   0.619 -0.3281 -0.2815 -0.0280
 5548TIP3    H238136   6.155   1.867   0.741 -1.6324  1.8631  1.0781
 5549TIP3   OH238137   2.252   1.973   2.402 -0.1543  0.0797  0.6993
 5549TIP3    H138138   2.312   1.898   2.405 -0.1356  0.0450 -0.1636
 5549TIP3    H238139   2.166   1.934   2.388 -0.3704  0.1318  1.9033
 5550TIP3   OH238140   1.159   5.798   4.813  0.0040  0.6019 -0.1474
 5550TIP3    H138141   1.087   5.849   4.850 -0.3131  0.2438 -0.2658
 5550TIP3    H238142   1.237   5.850   4.831 -0.4624  1.7952 -1.4697
 5551TIP3   OH238143   0.213   1.061   6.377  0.5315  0.8152  0.2751
 5551TIP3    H138144   0.158   1.100   6.445 -1.3250 -1.0448 -0.1093
 5551TIP3    H238145   0.159   0.991   6.339  2.2895  0.4871 -1.7300
 5552TIP3   OH238146   1.436   2.037  12.065  0.3365 -0.1385  0.0122
 5552TIP3    H138147   1.423   1.942  12.059  0.4508 -0.3210  2.2157
 5552TIP3    H238148   1.516   2.047  12.116 -0.5786  1.1437  1.2434
 5553TIP3   OH238149   3.506   1.489   0.735  0.0837 -0.0147 -0.3447
 5553TIP3    H138150   3.546   1.467   0.819  1.0797  0.2065 -0.7609
 5553TIP3    H238151   3.418   1.451   0.740 -0.1581  0.6973  1.1246
 5554TIP3   OH238152   2.022   5.997   2.884 -0.2382 -0.3155 -0.1424
 5554TIP3    H138153   2.030   6.083   2.843 -0.0831 -0.8677 -1.3022
 5554TIP3    H238154   1.931   5.993   2.914 -0.0692  0.4979  0.4940
 5555TIP3   OH238155   0.033   5.434   1.075 -0.0996  0.3306  0.2012
 5555TIP3    H138156   0.010   5.475   1.158 -0.6362 -0.2039  0.3246
 5555TIP3    H238157   0.042   5.506   1.013  0.7439  0.7673  0.8260
 5556TIP3   OH238158   3.064   1.847   5.268  0.0886  0.4988  0.0182
 5556TIP3    H138159   3.035   1.782   5.332 -1.4587  1.6799  0.5456
 5556TIP3    H238160   2.984   1.872   5.222  0.6528  2.0790 -0.1235
 5557TIP3   OH238161   3.703   2.500   4.363 -0.2989 -0.3012 -0.1586
 5557TIP3    H138162   3.690   2.554   4.441 -0.5766  0.5964 -0.8298
 5557TIP3    H238163   3.639   2.532   4.300  0.6029 -0.3384 -1.1158
 5558TIP3   OH238164   3.733   0.358  17.196 -0.3324  0.4505 -0.2895
 5558TIP3    H138165   3.752   0.351  17.103 -0.3856  3.3620 -0.5425
 5558TIP3    H238166   3.774   0.440  17.224  0.4819 -0.8074  2.4621
 5559TIP3   OH238167   3.814   1.364  11.888 -0.6342 -0.8841 -0.6966
 5559TIP3    H138168   3.845   1.400  11.971 -3.3547 -0.0342 -0.0117
 5559TIP3    H238169   3.806   1.270  11.903 -0.8271 -0.7710 -0.1161
 5560TIP3   OH238170   1.423   5.836   0.332 -0.2101 -0.3161 -0.2709
 5560TIP3    H138171   1.465   5.827   0.246  0.3355  1.1875 -0.1772
 5560TIP3    H238172   1.495   5.841   0.394 -0.5285  1.6210 -0.0358
 5561TIP3   OH238173   3.964   5.501   3.322 -0.0780  0.0680  0.0397
 5561TIP3    H138174   3.899   5.557   3.364  0.6959 -1.1798  3.0057
 5561TIP3    H238175   4.009   5.559   3.260 -1.0081  2.0553  1.1798
 5562TIP3   OH238176   4.372   4.784   4.417  0.0092  0.1628  0.0862
 5562TIP3    H138177   4.403   4.842   4.348  2.2814 -0.0292  0.9051
 5562TIP3    H238178   4.447   4.774   4.476 -1.0879 -1.6904  1.2313
 5563TIP3   OH238179   5.613   5.799   2.595 -0.5188 -0.0908 -0.2916
 5563TIP3    H138180   5.659   5.883   2.594 -0.3296 -0.1921 -0.1131
 5563TIP3    H238181   5.649   5.752   2.519  2.3340 -1.5962  1.8887
 5564TIP3   OH238182   0.396   3.920   5.117 -0.1367 -0.7689 -0.2338
 5564TIP3    H138183   0.486   3.892   5.103  0.2725  0.3350  0.1863
 5564TIP3    H238184   0.364   3.862   5.186  1.1001  0.5543  1.4997
 5565TIP3   OH238185   3.990   4.165  15.601  0.3794 -0.5021 -0.0508
 5565TIP3    H138186   3.950   4.080  15.620 -1.1005  0.2777  0.2979
 5565TIP3    H238187   3.934   4.204  15.534  1.1653  0.1280 -0.3469
 5566TIP3   OH238188   4.017   3.773  16.994 -0.4670  0.3346  1.1146
 5566TIP3    H138189   4.013   3.728  17.079 -0.2232 -0.5824  0.6576
 5566TIP3    H238190   4.050   3.706  16.934  1.8597  1.7103  0.8042
 5567TIP3   OH238191   5.848   4.838   0.881  0.1831 -0.4528 -0.3535
 5567TIP3    H138192   5.885   4.926   0.872 -1.1915  0.0174 -1.6490
 5567TIP3    H238193   5.760   4.845   0.845 -0.1646 -2.2315  0.0767
 5568TIP3   OH238194   3.200   3.312  12.667 -0.6371 -0.1053  0.3240
 5568TIP3    H138195   3.152   3.355  12.737  1.3264  1.1396  0.9529
 5568TIP3    H238196   3.220   3.382  12.605  3.6474  0.2654  1.9462
 5569TIP3   OH238197   6.635   2.536  13.419  0.0134  0.4518  0.2319
 5569TIP3    H138198   6.663   2.475  13.487  2.0401  1.1532  0.0655
 5569TIP3    H238199   6.713   2.589  13.401 -1.3201  2.1835 -0.5789
 5570TIP3   OH238200   5.741   1.543  15.830  0.9621  0.2827 -0.0680
 5570TIP3    H138201   5.672   1.521  15.767  0.7934  3.3332 -1.0355
 5570TIP3    H238202   5.822   1.537  15.779  0.9641  1.2318 -0.1881
 5571TIP3   OH238203   1.281   3.205   4.487  0.4541 -0.1153 -0.1558
 5571TIP3    H138204   1.357   3.262   4.501  1.9888 -1.8585 -1.2975
 5571TIP3    H238205   1.274   3.155   4.568 -0.6877  1.4095  0.7157
 5572TIP3   OH238206   0.318   5.259   5.987 -0.0159  0.5193 -0.4647
 5572TIP3    H138207   0.313   5.307   6.070  0.8243 -0.1069 -0.0463
 5572TIP3    H238208   0.352   5.322   5.924  0.1484  0.7497 -0.1446
 5573TIP3   OH238209   6.277   0.534   1.032 -0.2632 -0.0246 -0.3647
 5573TIP3    H138210   6.238   0.448   1.051 -0.5320  0.0458 -0.5961
 5573TIP3    H238211   6.205   0.584   0.993 -0.5538  0.8118  1.1932
 5574TIP3   OH238212   5.382   3.869   2.659  0.4561  0.2906 -0.3380
 5574TIP3    H138213   5.393   3.857   2.565  2.4885 -1.2806  0.0677
 5574TIP3    H238214   5.375   3.780   2.694 -0.5664  0.8681  0.9738
 5575TIP3   OH238215   6.214   4.853  12.934  0.7898  0.5745 -0.1268
 5575TIP3    H138216   6.127   4.825  12.961  1.3170  1.0841  2.2385
 5575TIP3    H238217   6.220   4.829  12.842 -1.7788  0.3858 -0.2765
 5576TIP3   OH238218   1.765   5.215  16.745 -0.4921  0.2843  0.0091
 5576TIP3    H138219   1.807   5.195  16.829  0.5537  2.4123  0.0492
 5576TIP3    H238220   1.673   5.229  16.767 -0.4135 -0.1439  0.6365
 5577TIP3   OH238221   1.572   5.798   1.823  0.0284 -0.1086 -0.6202
 5577TIP3    H138222   1.537   5.711   1.807  2.5821 -1.4443  0.7243
 5577TIP3    H238223   1.661   5.795   1.788  0.8014  1.3246  1.1494
 5578TIP3   OH238224   6.578   2.705   6.217 -0.1927  0.1016 -0.1716
 5578TIP3    H138225   6.574   2.755   6.136 -2.2545 -1.7705 -1.2588
 5578TIP3    H238226   6.497   2.729   6.264 -1.2364 -2.1668 -0.7262
 5579TIP3   OH238227   0.210   0.576  10.449 -0.3573 -0.2744 -0.1396
 5579TIP3    H138228   0.134   0.614  10.493  0.4563  0.6824  0.4568
 5579TIP3    H238229   0.274   0.562  10.519 -1.0331 -3.8455 -0.1434
 5580TIP3   OH238230   2.499   1.999  11.710  0.2990  0.3693 -0.7053
 5580TIP3    H138231   2.483   2.086  11.673  0.6711  0.0823 -1.5541
 5580TIP3    H238232   2.413   1.967  11.734  0.4329  2.3415  2.7770
 5581TIP3   OH238233   5.115   3.883  14.131  0.3559 -0.3956 -0.4927
 5581TIP3    H138234   5.058   3.945  14.177  0.7067  0.0828 -0.6851
 5581TIP3    H238235   5.057   3.835  14.072 -0.2479 -1.6477  1.0925
 5582TIP3   OH238236   0.429   3.205   0.379 -0.6304  0.7195 -0.2480
 5582TIP3    H138237   0.401   3.129   0.328 -1.8922  1.4954 -0.7189
 5582TIP3    H238238   0.429   3.278   0.317  0.3194  1.1662  0.2651
 5583TIP3   OH238239   5.221   3.227   5.523  0.4765  0.0659 -0.1472
 5583TIP3    H138240   5.138   3.181   5.535 -1.1132  2.7115 -0.5152
 5583TIP3    H238241   5.222   3.294   5.591  2.0134  0.5205 -0.5811
 5584TIP3   OH238242   4.703   1.102  16.828 -0.2632 -0.3474  0.5142
 5584TIP3    H138243   4.760   1.150  16.888  0.9215 -2.3238  1.0052
 5584TIP3    H238244   4.620   1.151  16.829  0.5551  1.0404  1.8467
 5585TIP3   OH238245   1.678   3.902   0.943 -0.0103 -0.3587 -0.2792
 5585TIP3    H138246   1.644   3.908   0.854  0.6225 -1.1622 -0.5659
 5585TIP3    H238247   1.733   3.824   0.944 -3.1327 -2.6542  1.8338
 5586TIP3   OH238248   3.759   5.213   2.843  0.0680  0.3742  0.1091
 5586TIP3    H138249   3.771   5.266   2.922 -1.5605 -0.1559  0.7319
 5586TIP3    H238250   3.840   5.162   2.836  0.5085  0.9257  1.0382
 5587TIP3   OH238251   2.699   0.233  10.763 -0.4165  0.6715  0.6409
 5587TIP3    H138252   2.618   0.192  10.793  0.1309  1.0372  2.7451
 5587TIP3    H238253   2.733   0.174  10.696 -1.9336  0.0125  0.4467
 5588TIP3   OH238254   3.064   4.727  14.488 -0.3084 -0.1549  0.5222
 5588TIP3    H138255   3.117   4.771  14.422 -0.1338  0.4218  1.0471
 5588TIP3    H238256   3.026   4.652  14.442  1.8961 -1.2634  0.4518
 5589TIP3   OH238257   1.275   2.365   3.552 -0.6771 -0.3601  0.1911
 5589TIP3    H138258   1.191   2.334   3.520 -0.9302  0.1095  0.3989
 5589TIP3    H238259   1.337   2.341   3.483 -1.0850 -0.1002 -0.2703
 5590TIP3   OH238260   5.316   5.447  11.162  0.2414  0.1739  0.2293
 5590TIP3    H138261   5.243   5.499  11.127 -1.1347 -0.4141  2.1797
 5590TIP3    H238262   5.314   5.367  11.110 -0.2511  0.3323 -0.0065
 5591TIP3   OH238263   2.131   2.185  10.870  0.1106 -0.1206 -0.0157
 5591TIP3    H138264   2.070   2.251  10.837 -1.6201 -1.6524  0.0009
 5591TIP3    H238265   2.213   2.203  10.826 -0.2362  2.2242  0.2146
 5592TIP3   OH238266   3.252   3.270   4.377 -0.4506  0.3052 -0.0480
 5592TIP3    H138267   3.322   3.332   4.399 -0.3557  0.6229 -1.2356
 5592TIP3    H238268   3.176   3.325   4.361 -1.1152 -0.0676  1.6761
 5593TIP3   OH238269   2.630   4.096   0.333  0.2371  0.1952  0.2013
 5593TIP3    H138270   2.626   4.080   0.239  0.1177 -0.2252  0.2782
 5593TIP3    H238271   2.567   4.166   0.348  0.6424  0.6287 -0.1102
 5594TIP3   OH238272   5.358   2.136  11.751 -0.0985 -0.2148  0.6780
 5594TIP3    H138273   5.394   2.185  11.677  1.5586  0.3937  1.8482
 5594TIP3    H238274   5.265   2.159  11.753  0.3163  1.6017  0.1969
 5595TIP3   OH238275   2.804   4.416  16.395 -0.0140 -0.0104 -0.4146
 5595TIP3    H138276   2.896   4.402  16.373 -0.2573 -1.9367 -0.2923
 5595TIP3    H238277   2.795   4.384  16.485 -0.6192  0.9926 -0.1027
 5596TIP3   OH238278   5.726   1.701   2.030  0.1194  1.1526  0.2745
 5596TIP3    H138279   5.677   1.619   2.025 -0.5388  1.6090 -0.8097
 5596TIP3    H238280   5.667   1.768   1.995  1.5931  1.6640 -1.3434
 5597TIP3   OH238281   1.954   2.467   4.232  0.2376  0.0660  0.0954
 5597TIP3    H138282   1.900   2.437   4.305  1.7397 -1.1990  0.7019
 5597TIP3    H238283   1.897   2.459   4.155  0.3172 -3.6248  0.3504
 5598TIP3   OH238284   5.760   1.414   3.224  0.0386 -0.1464  0.0272
 5598TIP3    H138285   5.755   1.467   3.144 -1.7588  1.3522  1.1040
 5598TIP3    H238286   5.699   1.342   3.209  0.4083 -0.3878 -0.3248
 5599TIP3   OH238287   6.191   4.788   3.596 -0.3189  0.2579 -0.2820
 5599TIP3    H138288   6.174   4.707   3.645  1.2737  0.5437  0.7542
 5599TIP3    H238289   6.159   4.858   3.652  0.1914  0.4940 -0.2860
 5600TIP3   OH238290   2.634   3.929   0.854 -0.6789  0.4702 -0.0898
 5600TIP3    H138291   2.603   3.958   0.769  0.1390 -1.8561 -1.2092
 5600TIP3    H238292   2.684   3.849   0.836 -0.1268  0.1822  2.5069
 5601TIP3   OH238293   2.550   2.202   1.673 -0.0962 -0.4100  0.0324
 5601TIP3    H138294   2.613   2.158   1.616 -0.8197  0.4841 -1.4910
 5601TIP3    H238295   2.602   2.231   1.748  1.6226  1.5460 -1.8317
 5602TIP3   OH238296   1.044   0.012  14.717  0.0128 -0.3703 -0.3332
 5602TIP3    H138297   1.138   0.009  14.700  0.6269  0.1980  2.6533
 5602TIP3    H238298   1.022   0.105  14.708  0.1406 -0.2171  0.8825
 5603TIP3   OH238299   0.904   4.874   5.467  0.3404  0.3985  0.5092
 5603TIP3    H138300   0.830   4.934   5.477  0.8096  1.1595 -0.4640
 5603TIP3    H238301   0.871   4.789   5.495 -0.8836  0.7509  0.1420
 5604TIP3   OH238302   6.215   1.404   5.252 -0.4101 -0.1096  0.2592
 5604TIP3    H138303   6.219   1.343   5.327  2.2859  0.4690  0.6349
 5604TIP3    H238304   6.241   1.350   5.177  3.3367  0.7873  0.7972
 5605TIP3   OH238305   1.277   1.094  15.867 -0.1871  0.1845  0.2676
 5605TIP3    H138306   1.184   1.075  15.879 -0.5084  0.3698 -1.7479
 5605TIP3    H238307   1.318   1.066  15.949 -2.1713  1.2463  1.6700
 5606TIP3   OH238308   2.187   4.315  14.646  0.1498  0.1013  0.0049
 5606TIP3    H138309   2.213   4.395  14.600  1.8753 -0.7088 -0.4638
 5606TIP3    H238310   2.218   4.244  14.590  0.3527 -0.9083  1.3694
 5607TIP3   OH238311   1.385   0.650   4.383 -0.3292 -0.3771  0.0812
 5607TIP3    H138312   1.475   0.671   4.359  0.0080 -1.2899  0.5508
 5607TIP3    H238313   1.332   0.703   4.323  0.5107 -0.5959 -0.8723
 5608TIP3   OH238314   5.463   3.206  15.809 -0.3919  0.2999  0.1105
 5608TIP3    H138315   5.396   3.196  15.741 -1.9253 -0.8698  1.7669
 5608TIP3    H238316   5.431   3.278  15.864  0.6429  0.9672 -0.1439
 5609TIP3   OH238317   1.023   3.459   4.916 -0.4526 -0.4139  0.4179
 5609TIP3    H138318   0.955   3.413   4.868 -1.0118  0.2515  0.5721
 5609TIP3    H238319   1.081   3.389   4.947  0.2882 -0.8107 -1.7577
 5610TIP3   OH238320   1.770   4.178   0.757 -0.2523  0.4372  0.5464
 5610TIP3    H138321   1.679   4.182   0.787  0.5221  0.7251  2.9378
 5610TIP3    H238322   1.763   4.163   0.662 -2.7673 -0.6096  0.8554
 5611TIP3   OH238323   4.275   3.837   0.030 -0.1016  0.2232 -0.2340
 5611TIP3    H138324   4.194   3.837  -0.020  1.0016 -2.9637 -2.2057
 5611TIP3    H238325   4.249   3.817   0.120 -1.8091  2.9875 -0.0716
 5612TIP3   OH238326   0.257   3.148  14.959  0.5459  0.8959  0.6633
 5612TIP3    H138327   0.191   3.176  15.022  0.2800  1.4172  0.1565
 5612TIP3    H238328   0.211   3.086  14.902  1.2298 -0.8946  2.0129
 5613TIP3   OH238329   6.799   3.281   6.467 -0.5524 -0.6801  0.7785
 5613TIP3    H138330   6.723   3.314   6.515 -0.1547 -1.7789  2.2081
 5613TIP3    H238331   6.862   3.258   6.535  0.7395 -0.5954 -0.3590
 5614TIP3   OH238332   1.408   5.871  15.144 -0.5032  0.9973  0.2317
 5614TIP3    H138333   1.484   5.927  15.157  0.9513 -0.7884 -0.4381
 5614TIP3    H238334   1.376   5.893  15.057  0.8584 -0.1238 -0.5617
 5615TIP3   OH238335   4.180   3.297   6.543 -0.3988  0.4817 -0.4841
 5615TIP3    H138336   4.105   3.350   6.517 -0.9156 -0.1909 -0.3683
 5615TIP3    H238337   4.249   3.322   6.482 -0.5628  1.4800 -0.2625
 5616TIP3   OH238338   4.842   1.296   1.146 -0.4449 -0.1094  0.6481
 5616TIP3    H138339   4.900   1.367   1.173 -0.6311  0.3985 -0.2594
 5616TIP3    H238340   4.898   1.218   1.147 -0.0101  0.1997  0.7720
 5617TIP3   OH238341   6.177   6.292  11.611  0.4152 -0.3289  0.0854
 5617TIP3    H138342   6.220   6.332  11.686  0.4696 -2.7412  1.4025
 5617TIP3    H238343   6.247   6.279  11.547  0.5308  0.9447 -0.0620
 5618TIP3   OH238344   4.221   0.249   5.678 -0.2946  0.7082 -0.2151
 5618TIP3    H138345   4.315   0.264   5.676 -0.1396 -0.2577 -0.4102
 5618TIP3    H238346   4.199   0.250   5.771 -0.4246  2.8616 -0.2411
 5619TIP3   OH238347   5.947   5.859   4.980 -0.5145  0.3621 -0.9295
 5619TIP3    H138348   6.037   5.855   4.948 -0.7429 -0.1929 -1.5118
 5619TIP3    H238349   5.941   5.944   5.023  1.1055 -0.7360  1.5716
 5620TIP3   OH238350   2.582   2.004   0.114 -0.3080 -0.1039 -0.1796
 5620TIP3    H138351   2.593   2.098   0.099  0.4000 -0.3703 -1.4003
 5620TIP3    H238352   2.647   1.982   0.180  0.6580 -0.0508 -1.1100
 5621TIP3   OH238353   4.310   1.660  16.559  0.5725 -0.0176  0.6241
 5621TIP3    H138354   4.277   1.625  16.641 -1.4069 -1.3682 -0.7086
 5621TIP3    H238355   4.255   1.736  16.541 -0.3376 -0.9198 -0.4539
 5622TIP3   OH238356   4.323   6.066   5.504  0.3875  0.4146 -0.1743
 5622TIP3    H138357   4.408   6.108   5.494  1.8191 -2.2146  0.5935
 5622TIP3    H238358   4.303   6.030   5.417 -1.3894  3.5475 -1.1493
 5623TIP3   OH238359   0.138   5.959  15.519  0.4354  0.3775 -0.1014
 5623TIP3    H138360   0.156   6.048  15.488 -0.2938  0.4711 -0.2730
 5623TIP3    H238361   0.193   5.949  15.596  2.6712 -0.0543 -1.7256
 5624TIP3   OH238362   4.434   0.341  10.617  0.1254  0.1158 -0.1371
 5624TIP3    H138363   4.510   0.392  10.644  1.0356 -0.7861 -1.0087
 5624TIP3    H238364   4.389   0.398  10.554 -0.1285  0.7942  0.6454
 5625TIP3   OH238365   3.506   1.717  13.696  0.1457  0.0952 -0.3226
 5625TIP3    H138366   3.481   1.658  13.766 -0.6701  0.6300 -0.1575
 5625TIP3    H238367   3.562   1.783  13.738 -3.0475  2.3836  0.5688
 5626TIP3   OH238368   2.741   5.591  15.978  0.5731  0.9225  0.6247
 5626TIP3    H138369   2.665   5.575  16.033  0.2912 -0.1040 -0.0607
 5626TIP3    H238370   2.737   5.685  15.959 -0.7353  0.8093  0.2795
 5627TIP3   OH238371   6.713   6.307  13.782 -0.1123 -0.0955 -0.3280
 5627TIP3    H138372   6.637   6.250  13.792 -0.0525 -0.2862 -0.9090
 5627TIP3    H238373   6.712   6.331  13.689 -1.8353  3.2171  0.4275
 5628TIP3   OH238374   2.953   2.650   1.022 -0.0690 -0.2507 -0.1869
 5628TIP3    H138375   2.896   2.693   1.085  1.5408 -1.3209  2.0499
 5628TIP3    H238376   2.903   2.573   0.993 -1.0952  0.6305 -0.7705
 5629TIP3   OH238377   1.703   0.885   4.271  0.2231 -0.4150 -0.0948
 5629TIP3    H138378   1.684   0.905   4.363 -0.1767  0.3988 -0.3482
 5629TIP3    H238379   1.795   0.859   4.270  0.5452  0.6911  0.3658
 5630TIP3   OH238380   2.696   3.005  11.858 -0.3272  0.0506 -0.5645
 5630TIP3    H138381   2.749   3.000  11.937 -0.2239 -0.1456 -0.6466
 5630TIP3    H238382   2.608   2.980  11.885 -0.2143 -0.3717 -0.5861
 5631TIP3   OH238383   2.432   1.763   2.287  0.3296  0.2422 -0.1821
 5631TIP3    H138384   2.464   1.678   2.318 -0.6653 -0.2026 -0.3557
 5631TIP3    H238385   2.512   1.814   2.271  0.9307 -0.5854  0.1182
 5632TIP3   OH238386   4.726   6.799  16.304 -0.4458  0.0102 -0.1055
 5632TIP3    H138387   4.635   6.829  16.313  0.3405  2.7548 -0.7180
 5632TIP3    H238388   4.778   6.880  16.305  1.8676 -1.4021 -1.4441
 5633TIP3   OH238389   6.798   2.216   2.621 -0.3468 -0.2313 -0.1739
 5633TIP3    H138390   6.777   2.300   2.660 -0.3401 -0.3427  0.0684
 5633TIP3    H238391   6.893   2.215   2.614 -0.1424 -1.2503  2.1541
 5634TIP3   OH238392   2.143   1.137   5.268 -0.4041 -0.5873  0.1742
 5634TIP3    H138393   2.049   1.132   5.253 -0.6176  0.6432  1.0482
 5634TIP3    H238394   2.152   1.152   5.362  0.7282 -2.5347  0.4046
 5635TIP3   OH238395   1.154   6.397   4.070  0.2129 -0.0831 -0.1621
 5635TIP3    H138396   1.139   6.475   4.016  0.7862 -0.6330 -1.1156
 5635TIP3    H238397   1.071   6.350   4.068  0.4545 -0.4698 -1.1573
 5636TIP3   OH238398   1.990   0.391   6.038  0.1988 -0.1411  0.2013
 5636TIP3    H138399   1.945   0.437   5.967 -0.5208  0.6455  1.1528
 5636TIP3    H238400   2.059   0.341   5.994  1.1768  2.0364 -0.8422
 5637TIP3   OH238401   5.563   4.416  12.751 -0.2414 -0.3050  0.0622
 5637TIP3    H138402   5.542   4.508  12.740 -0.8903 -0.4217  0.2996
 5637TIP3    H238403   5.486   4.379  12.795  0.2769 -0.8286  0.5346
 5638TIP3   OH238404   5.123   6.675   2.327  0.4319 -0.3069  0.2728
 5638TIP3    H138405   5.132   6.660   2.233  1.1532  3.2261 -0.2554
 5638TIP3    H238406   5.053   6.615   2.354 -1.7258  0.6026 -3.0351
 5639TIP3   OH238407   4.770   3.895   0.606 -0.2344  0.0921  0.1836
 5639TIP3    H138408   4.805   3.869   0.520 -2.3598  0.0152 -0.6732
 5639TIP3    H238409   4.707   3.828   0.628 -0.6483  0.8076  1.2145
 5640TIP3   OH238410   6.677   4.603   3.997  0.3905 -0.0280  0.1237
 5640TIP3    H138411   6.764   4.605   3.958  0.7456  1.0938  0.9152
 5640TIP3    H238412   6.685   4.657   4.076 -1.0088  0.0648  0.2290
 5641TIP3   OH238413   0.661   4.657  12.816 -0.3794  0.6967  0.3769
 5641TIP3    H138414   0.692   4.693  12.733 -0.2912 -0.9562 -0.3218
 5641TIP3    H238415   0.724   4.688  12.881  0.5208  0.6103 -0.4399
 5642TIP3   OH238416   0.440   5.450  14.148 -0.3350  0.1858 -0.1866
 5642TIP3    H138417   0.514   5.507  14.126  0.1336 -1.0401 -1.8630
 5642TIP3    H238418   0.385   5.452  14.069 -0.7937 -0.9215  0.1063
 5643TIP3   OH238419   5.740   4.762  15.858 -0.4315 -0.8033 -0.3250
 5643TIP3    H138420   5.791   4.759  15.939  0.4166 -0.5033 -0.8470
 5643TIP3    H238421   5.662   4.709  15.877 -0.9623  0.4831  1.1781
 5644TIP3   OH238422   1.581   3.195   6.218  0.2302 -0.6975  0.1793
 5644TIP3    H138423   1.557   3.211   6.127  0.2064 -0.6817  0.1887
 5644TIP3    H238424   1.628   3.274   6.245  0.7041 -0.9197  0.0173
 5645TIP3   OH238425   3.991   5.641  15.974  0.1234  0.0611 -0.1839
 5645TIP3    H138426   4.004   5.547  15.987 -1.4027 -0.1633 -0.1427
 5645TIP3    H238427   4.079   5.678  15.972  0.7200 -1.3254  0.1518
 5646TIP3   OH238428   2.589   2.291   2.218  0.5326 -0.1043  0.2897
 5646TIP3    H138429   2.550   2.366   2.263  0.3119  0.0427 -0.1482
 5646TIP3    H238430   2.515   2.232   2.202  0.9314 -1.1245  2.0001
 5647TIP3   OH238431   5.862   5.826   3.326  0.2515  0.4326 -0.4276
 5647TIP3    H138432   5.787   5.768   3.313 -1.3469  2.3099  0.2696
 5647TIP3    H238433   5.827   5.914   3.314  2.5630  1.2999 -1.1045
 5648TIP3   OH238434   3.558   0.594   2.597  0.1539  0.6203  0.8895
 5648TIP3    H138435   3.631   0.656   2.596  0.4463  0.2848  1.6916
 5648TIP3    H238436   3.573   0.539   2.674  0.5230 -1.2155 -0.4639
 5649TIP3   OH238437   3.925   0.048   3.230 -0.0761  0.4309  0.0890
 5649TIP3    H138438   3.899  -0.041   3.204 -1.2933  0.9403 -0.4700
 5649TIP3    H238439   3.909   0.101   3.152  2.1551  0.8737 -0.0970
 5650TIP3   OH238440   2.563   4.312  16.649 -0.2512 -0.3318  0.4104
 5650TIP3    H138441   2.566   4.217  16.654 -0.5035 -0.3209  0.8030
 5650TIP3    H238442   2.474   4.335  16.676 -0.0839  0.0339  0.6636
 5651TIP3   OH238443   0.202   3.823   3.908  0.3958  0.5192 -0.2529
 5651TIP3    H138444   0.154   3.888   3.857 -1.7290 -0.1570  0.8114
 5651TIP3    H238445   0.241   3.872   3.979 -1.7012  0.6096  0.8926
 5652TIP3   OH238446   2.568   2.581  10.729  0.1240 -0.0797 -0.1195
 5652TIP3    H138447   2.481   2.543  10.719 -0.7406  1.7949  0.0505
 5652TIP3    H238448   2.619   2.546  10.656 -1.5423  0.9349 -1.7990
 5653TIP3   OH238449   3.186   6.735  17.099 -0.1574  0.2520 -0.5082
 5653TIP3    H138450   3.244   6.678  17.149  1.4639  0.0799 -2.5209
 5653TIP3    H238451   3.242   6.808  17.071 -2.0830  2.6470  1.6162
 5654TIP3   OH238452   2.158   0.209  10.885 -0.1588  0.6300  0.1306
 5654TIP3    H138453   2.193   0.127  10.850 -1.9655 -0.7992  1.5705
 5654TIP3    H238454   2.071   0.216  10.845  0.1399  2.0887 -0.3029
 5655TIP3   OH238455   6.246   2.550   0.106 -0.2562  0.2817 -0.1370
 5655TIP3    H138456   6.222   2.485   0.039 -1.0150 -0.1009  0.5041
 5655TIP3    H238457   6.338   2.571   0.087 -0.0147 -0.9565 -0.3728
 5656TIP3   OH238458   1.540   0.376  11.553 -0.3487 -0.1445 -0.3123
 5656TIP3    H138459   1.530   0.471  11.545  3.3009  0.2569 -0.9776
 5656TIP3    H238460   1.536   0.343  11.463  1.3536 -0.2413 -0.3719
 5657TIP3   OH238461   4.181   2.857   3.584 -0.2057 -0.2889 -0.2818
 5657TIP3    H138462   4.139   2.859   3.498  1.7180 -0.6411 -1.2603
 5657TIP3    H238463   4.145   2.779   3.626 -1.7820  0.3397 -0.4184
 5658TIP3   OH238464   1.270   2.670   1.233 -0.3808 -0.4391  0.0972
 5658TIP3    H138465   1.199   2.724   1.198  0.1099  0.0971 -0.0723
 5658TIP3    H238466   1.228   2.616   1.299 -1.2987 -1.3865 -1.2311
 5659TIP3   OH238467   3.707   2.176  13.395  0.1821  0.4227 -0.2413
 5659TIP3    H138468   3.654   2.252  13.371  0.4870  0.4648 -0.7894
 5659TIP3    H238469   3.789   2.214  13.427  0.3914  0.3183 -0.6583
 5660TIP3   OH238470   2.994   2.635  15.565  0.1127  0.2006 -0.0666
 5660TIP3    H138471   3.075   2.677  15.535 -0.4730  2.3700  1.2268
 5660TIP3    H238472   3.020   2.547  15.589  2.1658  0.9620  0.6213
 5661TIP3   OH238473   3.255   2.315  15.214  0.6697 -0.3923 -0.5562
 5661TIP3    H138474   3.210   2.332  15.131 -0.8909 -0.9176  0.1579
 5661TIP3    H238475   3.272   2.402  15.250  0.5225 -0.1862 -0.9766
 5662TIP3   OH238476   3.208   5.345   4.345  0.4181  0.3477  0.2302
 5662TIP3    H138477   3.159   5.284   4.289  1.1655  0.7886 -0.9291
 5662TIP3    H238478   3.255   5.402   4.283  1.2022  0.8965  1.3119
 5663TIP3   OH238479   2.209   3.473   6.271 -0.3154 -0.1022  0.0802
 5663TIP3    H138480   2.122   3.506   6.291 -1.0817 -1.8335 -0.3500
 5663TIP3    H238481   2.265   3.508   6.341 -1.2110  1.5765 -0.0304
 5664TIP3   OH238482   0.942   5.924  13.675 -0.0066 -0.5477  0.1242
 5664TIP3    H138483   0.904   6.004  13.639 -0.2881 -0.1166  1.3714
 5664TIP3    H238484   0.995   5.953  13.749  0.2303 -1.4723  0.3222
 5665TIP3   OH238485   4.990   5.920  11.590 -0.3427  0.2176  0.1564
 5665TIP3    H138486   5.072   5.927  11.541  0.9238  0.9656  2.3369
 5665TIP3    H238487   4.991   5.831  11.626 -0.1862  0.4617  0.7418
 5666TIP3   OH238488   4.172   0.040  12.652  0.3931 -0.1518 -0.8632
 5666TIP3    H138489   4.150   0.052  12.744  1.2036 -1.2200 -0.5131
 5666TIP3    H238490   4.133   0.115  12.607 -2.9098 -1.3523 -0.1191
 5667TIP3   OH238491   2.536   2.666   1.787 -0.0680 -0.0474  0.1003
 5667TIP3    H138492   2.453   2.714   1.785  0.7132  1.2345 -2.7331
 5667TIP3    H238493   2.518   2.585   1.741 -0.2550 -0.6729  1.2449
 5668TIP3   OH238494   1.924   1.553   3.883  0.1945 -0.8083 -0.0273
 5668TIP3    H138495   1.934   1.458   3.894 -2.1415 -1.0082  0.7737
 5668TIP3    H238496   1.932   1.588   3.971  2.6546 -0.0581 -0.5241
 5669TIP3   OH238497   4.113   6.728  12.120  0.0578 -0.6969  0.3213
 5669TIP3    H138498   4.160   6.811  12.134  0.9144 -1.1262  0.0376
 5669TIP3    H238499   4.024   6.745  12.151  0.2994  0.2516  0.5077
 5670TIP3   OH238500   0.602   0.061   1.152  0.2220  0.6424 -0.3746
 5670TIP3    H138501   0.545   0.061   1.229  0.8548  1.0759  0.0987
 5670TIP3    H238502   0.653  -0.020   1.160  0.9697  1.1637  0.1760
 5671TIP3   OH238503   2.802   5.648  16.929  0.3618 -0.2094  0.2541
 5671TIP3    H138504   2.746   5.708  16.978  3.2635  0.7609  2.5337
 5671TIP3    H238505   2.814   5.573  16.988  0.0197 -1.2207 -0.9426
 5672TIP3   OH238506   1.977   1.907   5.717 -0.7047  0.2964  0.3633
 5672TIP3    H138507   2.029   1.941   5.790 -1.5641  0.5109  0.8843
 5672TIP3    H238508   1.982   1.975   5.650 -0.3114  0.3173  0.4140
 5673TIP3   OH238509   1.094   5.585   4.251 -0.4896 -0.3101  0.4568
 5673TIP3    H138510   1.049   5.541   4.179 -1.2433 -0.3629  0.9482
 5673TIP3    H238511   1.033   5.578   4.325 -0.1013  0.5022  0.8630
 5674TIP3   OH238512   1.193   6.289  11.711 -0.1324 -0.0965 -0.9232
 5674TIP3    H138513   1.187   6.302  11.617  1.0806  0.5262 -0.9351
 5674TIP3    H238514   1.266   6.345  11.738  0.4890 -1.3867  0.1539
 5675TIP3   OH238515   1.852   2.067   4.956 -0.5893  0.2065 -0.1072
 5675TIP3    H138516   1.941   2.091   4.981 -0.6744  2.0610 -1.4683
 5675TIP3    H238517   1.816   2.025   5.033  1.1348  0.3544  0.8003
 5676TIP3   OH238518   0.511   1.133  14.362 -0.8146  0.4712 -0.0189
 5676TIP3    H138519   0.575   1.160  14.296  0.5042 -1.1523  0.5527
 5676TIP3    H238520   0.563   1.113  14.440 -2.0914 -0.1438  0.7071
 5677TIP3   OH238521   6.639   3.613  13.029 -0.0137 -0.2493 -0.3766
 5677TIP3    H138522   6.676   3.628  13.116  1.9635  0.3744 -1.2860
 5677TIP3    H238523   6.589   3.532  13.038  1.1345 -0.8272  1.0603
 5678TIP3   OH238524   2.660   2.072  12.881  0.1278  0.0407  0.4512
 5678TIP3    H138525   2.725   2.066  12.811 -0.6070 -0.0243 -0.2314
 5678TIP3    H238526   2.704   2.037  12.958  0.1965 -1.9784 -0.4789
 5679TIP3   OH238527   5.718   1.326   3.520  0.4255  0.3412 -0.2945
 5679TIP3    H138528   5.633   1.339   3.478  0.2885  0.0563 -0.1084
 5679TIP3    H238529   5.776   1.389   3.477  0.3053  0.0115 -0.9585
 5680TIP3   OH238530   6.073   4.409   0.063 -0.3133 -0.4296  0.0880
 5680TIP3    H138531   6.006   4.438   0.000 -0.5138 -1.8119 -0.3724
 5680TIP3    H238532   6.141   4.370   0.008  1.0298  1.2321  0.5399
 5681TIP3   OH238533   5.309   0.921  10.356  0.6896  0.2907  0.6601
 5681TIP3    H138534   5.239   0.876  10.404  0.1465  0.1023 -0.2903
 5681TIP3    H238535   5.264   0.990  10.307  1.0727 -0.2376 -0.4536
 5682TIP3   OH238536   6.542   4.797   1.210  0.2680 -0.3223 -0.2816
 5682TIP3    H138537   6.488   4.828   1.284  1.9265  2.6978 -0.2464
 5682TIP3    H238538   6.617   4.755   1.252  0.5608  0.2275 -0.2493
 5683TIP3   OH238539   6.354   1.733  11.880 -0.3317 -0.2886 -0.0246
 5683TIP3    H138540   6.355   1.786  11.801 -2.4268 -1.1062 -0.6475
 5683TIP3    H238541   6.381   1.646  11.850  0.2930 -0.2517  0.4342
 5684TIP3   OH238542   5.407   1.046   6.140  0.5901  0.5550 -0.1578
 5684TIP3    H138543   5.371   1.014   6.223  0.7626 -0.0698 -0.3195
 5684TIP3    H238544   5.330   1.072   6.088  0.4327  0.1293 -0.1363
 5685TIP3   OH238545   1.946   2.853  15.646  0.2605  0.2503  0.2446
 5685TIP3    H138546   1.960   2.922  15.580  1.8496  0.4520  0.7759
 5685TIP3    H238547   1.987   2.775  15.608 -0.3987 -0.0772  0.2100
 5686TIP3   OH238548   1.523   2.824  17.243  0.0565  0.1503  0.3751
 5686TIP3    H138549   1.594   2.776  17.200 -1.1950 -0.4033 -1.1389
 5686TIP3    H238550   1.473   2.756  17.288 -1.0009  0.1538 -0.7443
 5687TIP3   OH238551   4.780   3.299  11.997 -0.4739  0.2786 -0.1742
 5687TIP3    H138552   4.732   3.374  11.963 -0.0331  0.9241  0.6086
 5687TIP3    H238553   4.740   3.223  11.954 -0.9785  0.9492 -0.9031
 5688TIP3   OH238554   6.649   2.782  16.082  0.0712  0.1096  0.3688
 5688TIP3    H138555   6.644   2.783  16.177  0.3319 -1.1486  0.4069
 5688TIP3    H238556   6.733   2.823  16.062  1.0186 -1.6229  0.7744
 5689TIP3   OH238557   5.299   2.892   0.020 -0.0942 -0.6196 -0.0798
 5689TIP3    H138558   5.394   2.885   0.031  0.2222  1.3729 -1.2456
 5689TIP3    H238559   5.268   2.929   0.102 -0.0977 -2.8123  0.9381
 5690TIP3   OH238560   2.984   3.697  12.284 -0.0032  0.4824 -0.1079
 5690TIP3    H138561   3.013   3.777  12.328 -0.2938  0.9576 -0.7568
 5690TIP3    H238562   3.050   3.632  12.305 -0.2887  0.6250  1.2703
 5691TIP3   OH238563   3.273   4.889  15.842  0.3700 -0.1333 -0.2521
 5691TIP3    H138564   3.307   4.902  15.931 -0.6056  0.5404  0.0354
 5691TIP3    H238565   3.215   4.813  15.849  3.5416 -2.7506 -1.2399
 5692TIP3   OH238566   5.020   2.236  12.848 -0.4572 -0.0402 -0.1445
 5692TIP3    H138567   4.973   2.173  12.792 -0.4322 -0.6352  0.4930
 5692TIP3    H238568   5.005   2.204  12.937  0.5822  0.1700  0.1097
 5693TIP3   OH238569   6.242   4.150  11.993  0.0726  0.2008  0.1143
 5693TIP3    H138570   6.184   4.225  11.980 -2.1778 -1.2948  1.2975
 5693TIP3    H238571   6.233   4.098  11.914 -0.1989 -0.0355  0.2999
 5694TIP3   OH238572   2.131   5.758   2.140 -0.5829  0.6044 -0.4787
 5694TIP3    H138573   2.133   5.662   2.138 -2.4151  0.5008  0.8599
 5694TIP3    H238574   2.163   5.780   2.228  1.4690  1.3033 -1.3835
 5695TIP3   OH238575   3.613   1.330  16.260 -0.5944 -0.0172  0.6917
 5695TIP3    H138576   3.553   1.256  16.267 -1.9641  0.9140 -0.6239
 5695TIP3    H238577   3.672   1.306  16.189 -1.5314  0.4580 -0.2650
 5696TIP3   OH238578   2.350   2.814   5.366  0.5371  0.1597 -0.0050
 5696TIP3    H138579   2.339   2.779   5.277 -0.3506 -2.0854  0.9310
 5696TIP3    H238580   2.361   2.908   5.354  2.3692 -0.3293 -2.6158
 5697TIP3   OH238581   5.422   0.656   1.599 -0.1997  0.0493  0.0267
 5697TIP3    H138582   5.365   0.714   1.549 -1.2639 -0.3298  0.7916
 5697TIP3    H238583   5.443   0.704   1.678  2.6173  1.2086 -1.3796
 5698TIP3   OH238584   4.823   2.069   0.542 -0.0747  0.3294 -0.3002
 5698TIP3    H138585   4.813   2.003   0.611  0.1587  0.3387 -0.2557
 5698TIP3    H238586   4.911   2.103   0.555  1.3228 -2.1470 -2.7951
 5699TIP3   OH238587   1.219   0.533   0.215 -0.6628 -0.8740 -0.0510
 5699TIP3    H138588   1.209   0.620   0.253  0.8428 -1.4655  1.7927
 5699TIP3    H238589   1.196   0.473   0.287  0.6761 -1.9983 -0.5339
 5700TIP3   OH238590   3.124   4.431   5.638  0.4266 -0.1570 -0.0828
 5700TIP3    H138591   3.041   4.387   5.622 -0.6032  1.2838  1.1239
 5700TIP3    H238592   3.130   4.438   5.733  1.4497  0.6219 -0.1937
 5701TIP3   OH238593   1.285   6.389   2.668 -0.4601  0.4680  0.2890
 5701TIP3    H138594   1.281   6.437   2.585 -0.6183  0.8178  0.4955
 5701TIP3    H238595   1.259   6.454   2.733 -0.3242  0.1954  0.6120
 5702TIP3   OH238596   0.863   0.156   1.190  0.3690  0.9710  0.2322
 5702TIP3    H138597   0.893   0.236   1.149 -1.0997  0.3891 -2.0830
 5702TIP3    H238598   0.771   0.173   1.212  0.5943  0.5943  1.5031
 5703TIP3   OH238599   5.486   5.056  14.604 -0.4958 -0.0789  0.4325
 5703TIP3    H138600   5.559   5.024  14.656 -0.9714  0.3928  1.3984
 5703TIP3    H238601   5.466   4.984  14.545 -1.9059 -1.8226  2.9483
 5704TIP3   OH238602   1.026   5.130   1.971  0.3461 -0.4073  0.0354
 5704TIP3    H138603   1.080   5.053   1.954 -0.3491 -0.6726 -1.0848
 5704TIP3    H238604   1.089   5.199   1.990  0.9635 -1.3267  1.3873
 5705TIP3   OH238605   4.516   0.543  11.288 -0.2961 -0.1610  0.1982
 5705TIP3    H138606   4.502   0.631  11.253  1.8087  0.2336  0.3034
 5705TIP3    H238607   4.517   0.486  11.210 -0.2930  0.1002  0.0061
 5706TIP3   OH238608   3.819   3.202   1.612  0.0366 -0.0163 -0.2975
 5706TIP3    H138609   3.886   3.247   1.663 -0.3707 -2.6953  2.6942
 5706TIP3    H238610   3.864   3.127   1.574 -0.7517 -0.5435 -0.1857
 5707TIP3   OH238611   0.306   3.137   5.726 -0.8565 -0.2120 -0.4990
 5707TIP3    H138612   0.270   3.056   5.691 -1.0408  0.2072 -1.2975
 5707TIP3    H238613   0.396   3.139   5.695  0.5578 -2.2622  3.1916
 5708TIP3   OH238614   0.494   3.650   5.956 -0.0596 -0.2643 -0.0870
 5708TIP3    H138615   0.459   3.683   6.039  0.6636 -1.0806  0.5517
 5708TIP3    H238616   0.565   3.711   5.934 -1.1914  0.8178 -0.8867
 5709TIP3   OH238617   5.728   4.878   6.544 -0.0645  0.2140 -0.4117
 5709TIP3    H138618   5.767   4.940   6.482  0.7138 -0.0046 -0.1548
 5709TIP3    H238619   5.796   4.812   6.557 -1.6929 -1.9067 -2.3495
 5710TIP3   OH238620   0.525   0.631  12.259  0.0755 -0.2727  0.8550
 5710TIP3    H138621   0.522   0.536  12.271  1.0608 -0.0301  3.2119
 5710TIP3    H238622   0.438   0.661  12.286  0.4757 -0.2837  2.1504
 5711TIP3   OH238623   4.451   4.670  10.950 -0.1586  0.0229 -0.2739
 5711TIP3    H138624   4.492   4.658  10.865  1.7608  1.4398  0.4126
 5711TIP3    H238625   4.471   4.589  10.998 -1.2764 -0.7867 -1.1757
 5712TIP3   OH238626   0.150   1.580   0.567  0.0015 -0.2810  0.0747
 5712TIP3    H138627   0.149   1.672   0.591 -2.9632 -0.5145  0.9534
 5712TIP3    H238628   0.113   1.577   0.479 -0.4749 -0.7157  0.2916
 5713TIP3   OH238629   0.712   2.389  10.823  0.1913 -0.1265  0.3267
 5713TIP3    H138630   0.728   2.315  10.765  3.8922  1.0881 -0.3559
 5713TIP3    H238631   0.681   2.459  10.765  0.2323 -0.0570  0.3890
 5714TIP3   OH238632   2.204   2.785   4.209  0.4634  0.0558  0.2988
 5714TIP3    H138633   2.251   2.751   4.285 -0.6917 -0.5603  0.7443
 5714TIP3    H238634   2.194   2.710   4.151  0.0212  0.1817  0.2080
 5715TIP3   OH238635   4.970   4.650  12.499  0.3118  0.4838 -0.5272
 5715TIP3    H138636   5.048   4.683  12.454 -0.0814  1.4431 -0.5141
 5715TIP3    H238637   5.002   4.627  12.587  0.3215  2.0840 -0.1052
 5716TIP3   OH238638   4.009   4.596  13.185  0.1572 -0.4980 -0.6282
 5716TIP3    H138639   4.054   4.678  13.206 -0.9449  1.1346 -4.2494
 5716TIP3    H238640   4.047   4.569  13.101 -1.1138 -2.5065 -0.5905
 5717TIP3   OH238641   4.529   2.297  11.840 -0.3101 -0.2708  0.1228
 5717TIP3    H138642   4.548   2.285  11.933 -1.5826  0.9144  0.5544
 5717TIP3    H238643   4.438   2.326  11.838 -1.4411 -3.5798 -1.7100
 5718TIP3   OH238644   2.040   0.815   3.062 -0.4650  0.7211  0.0754
 5718TIP3    H138645   1.949   0.793   3.041 -0.4175  0.2535  0.3457
 5718TIP3    H238646   2.091   0.747   3.018 -0.2782  0.6854  0.3470
 5719TIP3   OH238647   1.816   5.913   6.682  0.4254 -0.1227 -0.1886
 5719TIP3    H138648   1.748   5.847   6.668  0.2472  0.3502 -1.6250
 5719TIP3    H238649   1.868   5.878   6.755  1.2574 -2.6069 -1.8837
 5720TIP3   OH238650   1.333   5.493   4.123 -0.0201 -0.7501 -0.0414
 5720TIP3    H138651   1.262   5.538   4.170 -0.3831  0.7739 -1.9798
 5720TIP3    H238652   1.377   5.442   4.191 -1.7380 -0.1597  1.5835
 5721TIP3   OH238653   3.384   0.188   3.005  0.6671  0.1122 -0.5611
 5721TIP3    H138654   3.388   0.196   2.909  0.4271  0.3762 -0.5475
 5721TIP3    H238655   3.317   0.122   3.020  1.9463 -1.2547 -0.6364
 5722TIP3   OH238656   3.394   6.405  17.228  0.1381 -0.4254  0.3374
 5722TIP3    H138657   3.446   6.461  17.171 -1.3478  0.1306 -0.5146
 5722TIP3    H238658   3.425   6.316  17.209 -1.2248 -0.3889 -2.3609
 5723TIP3   OH238659   2.672   1.763  14.441 -0.0984  0.1077  0.0715
 5723TIP3    H138660   2.734   1.757  14.369 -0.1507  1.7476 -0.1271
 5723TIP3    H238661   2.661   1.857  14.456  0.5099 -0.1936  2.7280
 5724TIP3   OH238662   3.317   2.307  11.221 -0.5813  0.4540  0.2380
 5724TIP3    H138663   3.288   2.270  11.138  0.3542 -0.6097  0.3742
 5724TIP3    H238664   3.396   2.357  11.200  0.4378 -0.9361  0.6877
 5725TIP3   OH238665   2.119   5.806   4.325 -0.5078  0.5838 -0.6325
 5725TIP3    H138666   2.124   5.711   4.319 -0.2016  0.4898  1.0005
 5725TIP3    H238667   2.174   5.829   4.400  0.3210  2.1456 -1.6960
 5726TIP3   OH238668   5.607   6.231   0.149  0.3663 -0.4340 -0.5606
 5726TIP3    H138669   5.547   6.284   0.096  1.1852  0.7430 -0.3372
 5726TIP3    H238670   5.686   6.225   0.095  0.4798 -0.9452 -0.3307
 5727TIP3   OH238671   6.637   2.363  15.266 -0.7358  0.5444 -0.1316
 5727TIP3    H138672   6.666   2.391  15.353 -0.5787  0.0198 -0.0118
 5727TIP3    H238673   6.623   2.445  15.218  0.2006  0.8254  0.0482
 5728TIP3   OH238674   1.338   6.208   2.860  0.1156  0.4198 -0.1557
 5728TIP3    H138675   1.318   6.278   2.798 -0.9575  0.0380 -0.2586
 5728TIP3    H238676   1.370   6.136   2.806  1.1881  0.8091 -0.0528
 5729TIP3   OH238677   0.561   2.114  15.414  0.0923  0.9299  0.2486
 5729TIP3    H138678   0.480   2.159  15.391 -0.8299 -0.7167  0.1510
 5729TIP3    H238679   0.615   2.120  15.335 -0.5721  0.6981 -0.2309
 5730TIP3   OH238680   3.224   4.343   3.758 -0.0463  0.7981  0.2965
 5730TIP3    H138681   3.149   4.285   3.767 -0.3965  1.3823  1.2967
 5730TIP3    H238682   3.289   4.309   3.820 -0.3734  1.6481  1.1180
 5731TIP3   OH238683   0.234   6.657   4.199 -0.0062  0.0567  0.6235
 5731TIP3    H138684   0.246   6.713   4.275 -2.5423  0.5514  0.6889
 5731TIP3    H238685   0.188   6.713   4.136  1.1672 -0.6647 -0.9124
 5732TIP3   OH238686   6.635   2.729  11.720 -0.0040 -0.3792 -0.0983
 5732TIP3    H138687   6.556   2.756  11.673 -0.9362 -0.2013  1.5381
 5732TIP3    H238688   6.609   2.651  11.768  0.3726  0.5266  1.6317
 5733TIP3   OH238689   6.074   3.071  14.567 -0.2854 -0.2075 -0.0183
 5733TIP3    H138690   6.098   3.058  14.475  0.4349 -1.4150  0.3355
 5733TIP3    H238691   5.989   3.029  14.575  1.1156 -2.9897  0.6305
 5734TIP3   OH238692   5.776   4.952  15.663  0.3670 -0.2371  0.1475
 5734TIP3    H138693   5.761   4.899  15.742  0.5380 -1.1825 -0.4381
 5734TIP3    H238694   5.773   4.888  15.592  0.0728  0.6372 -0.6191
 5735TIP3   OH238695   0.743   4.457   0.813  0.1146  0.0774 -0.3632
 5735TIP3    H138696   0.654   4.429   0.793  0.8537 -1.4198 -1.6417
 5735TIP3    H238697   0.771   4.399   0.885  0.3875 -0.0871 -0.6016
 5736TIP3   OH238698   1.431   4.819  10.776 -0.3674  0.0161 -0.2259
 5736TIP3    H138699   1.415   4.852  10.864  1.6196 -0.0760  0.1936
 5736TIP3    H238700   1.452   4.727  10.788  0.1451  0.0583 -0.7820
 5737TIP3   OH238701   1.759   3.338   3.510 -0.2761 -0.1901  0.1673
 5737TIP3    H138702   1.841   3.368   3.471 -0.4138  1.6693  1.2132
 5737TIP3    H238703   1.693   3.354   3.443 -0.2680  1.4598  0.5294
 5738TIP3   OH238704   4.306   6.392  16.932 -0.0424 -0.4490 -0.1210
 5738TIP3    H138705   4.221   6.408  16.974  0.9611  1.4238  1.2663
 5738TIP3    H238706   4.312   6.458  16.864 -0.6109 -1.9600 -1.6715
 5739TIP3   OH238707   0.137   0.806   4.048 -0.4983 -0.6230  0.0628
 5739TIP3    H138708   0.222   0.786   4.087 -0.4712 -0.6273  0.0006
 5739TIP3    H238709   0.103   0.879   4.101 -0.7983 -1.1288  0.5751
 5740TIP3   OH238710   4.701   3.615   2.244 -0.5207  0.3139 -0.1577
 5740TIP3    H138711   4.671   3.567   2.166  0.2794  0.1051 -0.3430
 5740TIP3    H238712   4.643   3.585   2.314 -0.7120 -0.1269 -0.4996
 5741TIP3   OH238713   6.131   2.231   5.924  0.0388 -0.0953  0.2563
 5741TIP3    H138714   6.202   2.232   5.860  0.0532 -0.8968  0.2575
 5741TIP3    H238715   6.054   2.261   5.876 -0.6786 -3.7487 -0.9996
 5742TIP3   OH238716   4.364   1.359   1.836  0.3574  0.4919 -0.1271
 5742TIP3    H138717   4.360   1.369   1.741  0.9109  0.6112 -0.1408
 5742TIP3    H238718   4.361   1.265   1.851  2.0128  0.3733 -0.3625
 5743TIP3   OH238719   3.171   4.128  14.211  0.5176  0.3161  0.7676
 5743TIP3    H138720   3.141   4.143  14.122  1.9323  0.4458  0.3036
 5743TIP3    H238721   3.141   4.039  14.232 -1.3278  0.9320  0.8157
 5744TIP3   OH238722   3.301   5.350  16.334  0.7474 -0.2702 -0.1175
 5744TIP3    H138723   3.308   5.392  16.420 -1.0809 -1.5619  0.6929
 5744TIP3    H238724   3.390   5.355  16.298  1.5562  0.2454  1.8695
 5745TIP3   OH238725   2.234   5.922  14.146  0.4579  0.3567  0.4964
 5745TIP3    H138726   2.181   5.957  14.217 -1.7298 -1.4084 -0.2136
 5745TIP3    H238727   2.231   5.989  14.078 -1.8934 -0.2086  0.0030
 5746TIP3   OH238728   0.010   0.035   1.954  0.0819 -0.7919  0.7304
 5746TIP3    H138729   0.102   0.016   1.971  0.5364  1.2087  0.5968
 5746TIP3    H238730  -0.004   0.006   1.864  1.7932  2.9309 -0.8330
 5747TIP3   OH238731   5.610   6.715   4.516 -0.0711  0.3775 -0.1190
 5747TIP3    H138732   5.690   6.714   4.463  0.6849 -1.7929  0.9825
 5747TIP3    H238733   5.540   6.729   4.452  0.9876 -0.3123 -1.4753
 5748TIP3   OH238734   2.365   6.193  13.878  0.4776  0.1621 -0.2163
 5748TIP3    H138735   2.301   6.122  13.870  4.7684 -3.8304 -1.1501
 5748TIP3    H238736   2.350   6.247  13.800 -1.8943 -0.5059 -0.2782
 5749TIP3   OH238737   1.544   3.049  15.046 -0.1224 -0.5876 -0.3997
 5749TIP3    H138738   1.625   3.099  15.058 -1.0763  0.6311  1.1538
 5749TIP3    H238739   1.546   2.982  15.114 -1.4968  0.9247  1.1763
 5750TIP3   OH238740   3.880   3.926   0.867  0.2843  0.4396 -0.2661
 5750TIP3    H138741   3.795   3.898   0.834 -0.1765  0.1833  1.1115
 5750TIP3    H238742   3.938   3.851   0.853  0.5962  1.0204 -2.2805
 5751TIP3   OH238743   0.509   1.643   3.962 -0.2957 -0.2685 -0.3077
 5751TIP3    H138744   0.503   1.555   4.000 -2.9579  0.2589  0.6587
 5751TIP3    H238745   0.511   1.702   4.038  2.3703  0.4869 -0.9313
 5752TIP3   OH238746   6.551   6.351   0.550 -0.1690 -0.2576  0.6828
 5752TIP3    H138747   6.639   6.342   0.514 -0.3437  1.4432 -0.2234
 5752TIP3    H238748   6.565   6.379   0.640  0.2331  1.7533  0.0257
 5753TIP3   OH238749   4.892   5.312   3.726  0.0204  0.4412  0.3528
 5753TIP3    H138750   4.902   5.405   3.746  1.3908  0.4950 -0.4897
 5753TIP3    H238751   4.974   5.288   3.683 -0.2592 -1.1995  0.6985
 5754TIP3   OH238752   0.387   3.581  17.161 -0.6296  0.3031 -0.4192
 5754TIP3    H138753   0.427   3.504  17.120 -1.3311  0.3225 -1.1389
 5754TIP3    H238754   0.296   3.580  17.131 -0.7294  1.2254 -0.1575
 5755TIP3   OH238755   4.289   4.294   0.950 -0.5208  0.0279 -0.6241
 5755TIP3    H138756   4.200   4.278   0.921 -0.5572  1.1668 -1.1616
 5755TIP3    H238757   4.296   4.389   0.956 -0.4320 -0.1045  2.8162
 5756TIP3   OH238758   6.079   2.290  12.038  0.0607  0.2355 -0.3796
 5756TIP3    H138759   6.135   2.285  12.115 -2.4844  0.1595  1.4978
 5756TIP3    H238760   6.068   2.383  12.021 -0.9958  0.2872  0.5630
 5757TIP3   OH238761   0.570   3.558  16.147  0.1578  0.3816  0.1220
 5757TIP3    H138762   0.486   3.576  16.106 -0.1314  0.9812  0.9729
 5757TIP3    H238763   0.553   3.561  16.241  1.4293  2.0738  0.3315
 5758TIP3   OH238764   1.698   6.464   2.834  0.3497  0.0982 -0.0273
 5758TIP3    H138765   1.717   6.382   2.788  0.8746 -0.1244  0.5795
 5758TIP3    H238766   1.734   6.532   2.778 -1.1224  0.0084 -1.1175
 5759TIP3   OH238767   0.546   4.516  13.988  0.9954 -0.2200 -0.1192
 5759TIP3    H138768   0.530   4.610  13.975  0.4141 -0.1767  0.8577
 5759TIP3    H238769   0.586   4.487  13.906  3.2035  1.3311  0.3319
 5760TIP3   OH238770   3.577   5.189   4.702 -0.1822 -0.3195 -0.2672
 5760TIP3    H138771   3.502   5.225   4.654 -0.4657  0.9005  1.0561
 5760TIP3    H238772   3.566   5.222   4.791  0.8708 -1.7550  0.4109
 5761TIP3   OH238773   3.577   6.702   2.286  0.6878  0.0886  0.2763
 5761TIP3    H138774   3.537   6.707   2.199 -2.2844  3.0226  1.7224
 5761TIP3    H238775   3.512   6.657   2.339  1.3134  0.7418  1.6147
 5762TIP3   OH238776   5.929   6.506   1.631 -0.6128  0.2552  0.2597
 5762TIP3    H138777   5.951   6.571   1.565 -1.9672 -0.7769 -1.2312
 5762TIP3    H238778   6.004   6.507   1.691  0.8298  0.8702 -1.5188
 5763TIP3   OH238779   4.015   1.516  11.779  0.0736  0.2448  0.4791
 5763TIP3    H138780   3.980   1.570  11.708  0.6331 -0.9821 -0.7649
 5763TIP3    H238781   3.953   1.443  11.786 -0.7382  1.0873  2.2233
 5764TIP3   OH238782   5.488   0.934  15.770 -0.6648 -0.1377  0.0950
 5764TIP3    H138783   5.582   0.920  15.780 -0.7126 -0.2188  0.4510
 5764TIP3    H238784   5.469   1.007  15.828 -0.8865 -0.3656  0.3106
 5765TIP3   OH238785   5.652   6.797  11.704 -0.3729 -0.3001  0.3131
 5765TIP3    H138786   5.632   6.740  11.778 -0.9281 -1.3273 -0.6120
 5765TIP3    H238787   5.748   6.800  11.702 -0.3411 -1.0222  0.5096
 5766TIP3   OH238788   3.073   6.507   4.332  0.4009  0.7144 -0.0471
 5766TIP3    H138789   2.985   6.529   4.302  0.0007  1.6240  1.7611
 5766TIP3    H238790   3.093   6.424   4.288 -1.6262  0.1470  0.0516
 5767TIP3   OH238791   0.985   1.868   6.178  0.9637  0.0757 -0.6922
 5767TIP3    H138792   1.047   1.844   6.247  1.9366 -1.5347 -2.0767
 5767TIP3    H238793   0.899   1.863   6.220  1.5251 -1.1454  0.3443
 5768TIP3   OH238794   5.774   1.859  15.500 -0.4586 -0.3751  0.3754
 5768TIP3    H138795   5.722   1.917  15.556  1.1093  2.1125 -0.6451
 5768TIP3    H238796   5.734   1.866  15.414  1.3850  1.4116 -0.3755
 5769TIP3   OH238797   0.543   5.295   1.001  0.3071 -0.3253 -0.3518
 5769TIP3    H138798   0.542   5.200   1.003  2.9250 -0.3734  1.3315
 5769TIP3    H238799   0.636   5.319   1.004 -0.3101  2.2721 -0.0246
 5770TIP3   OH238800   3.642   2.567   1.470 -0.3812 -0.5587  0.2858
 5770TIP3    H138801   3.634   2.472   1.464 -1.0922 -0.4403 -0.8245
 5770TIP3    H238802   3.554   2.600   1.449 -0.1474  0.3439  0.6762
 5771TIP3   OH238803   1.646   5.636   4.346  0.1979  0.0308 -0.5652
 5771TIP3    H138804   1.695   5.618   4.266 -0.5990 -0.0560 -1.0359
 5771TIP3    H238805   1.638   5.732   4.347 -0.6671 -0.0342 -1.1141
 5772TIP3   OH238806   2.123   6.638   5.687  0.6098  0.4687 -0.6240
 5772TIP3    H138807   2.102   6.611   5.597 -0.5678 -0.9707  0.0567
 5772TIP3    H238808   2.074   6.577   5.742  0.0602  2.3382  1.0009
 5773TIP3   OH238809   0.059   4.973   2.135  0.1248 -0.0547 -1.2964
 5773TIP3    H138810   0.027   4.944   2.221  2.0732  3.2960  0.6857
 5773TIP3    H238811  -0.014   4.957   2.076 -1.4917 -1.8953  1.0828
 5774TIP3   OH238812   1.715   5.062  14.087  0.1485 -0.4658 -0.3267
 5774TIP3    H138813   1.774   5.067  14.162  0.4903 -1.3668 -0.5244
 5774TIP3    H238814   1.681   4.973  14.089 -1.5291  0.1727  0.0089
 5775TIP3   OH238815   0.451   2.863  14.019 -0.1658  0.0841 -0.4082
 5775TIP3    H138816   0.442   2.915  13.939  1.4567 -1.3418 -1.5508
 5775TIP3    H238817   0.364   2.825  14.032 -0.3297 -0.0764 -1.8130
 5776TIP3   OH238818   3.924   6.698  15.509  0.2213 -0.4161 -0.4655
 5776TIP3    H138819   3.985   6.692  15.583  1.2821  1.2359 -1.1677
 5776TIP3    H238820   3.957   6.771  15.457 -0.7210 -1.3399 -2.4037
 5777TIP3   OH238821   6.532   0.201   5.656  0.1002 -0.4164 -0.2304
 5777TIP3    H138822   6.503   0.116   5.690  0.4059 -0.7737 -0.8543
 5777TIP3    H238823   6.563   0.182   5.568  1.2408  0.1406  0.0359
 5778TIP3   OH238824   6.760   3.530   5.831 -0.6465 -0.5136 -0.2922
 5778TIP3    H138825   6.720   3.616   5.839  1.6127  0.3393  2.9041
 5778TIP3    H238826   6.853   3.545   5.847 -0.3023 -3.6319  1.0290
 5779TIP3   OH238827   6.308   4.304  12.588  0.1306 -0.0758  0.1884
 5779TIP3    H138828   6.399   4.331  12.572  0.9438 -2.0347  1.2337
 5779TIP3    H238829   6.307   4.278  12.681 -0.8631 -2.2941 -0.3992
 5780TIP3   OH238830   1.644   0.211   4.101  0.4118 -0.0760 -0.5505
 5780TIP3    H138831   1.662   0.303   4.085  0.5889 -0.0074  0.0536
 5780TIP3    H238832   1.726   0.166   4.080  1.0484  0.1486  1.3868
 5781TIP3   OH238833   0.388   0.533   2.509  0.1067  0.2207 -0.1504
 5781TIP3    H138834   0.327   0.476   2.461 -0.2389  1.0535 -0.7239
 5781TIP3    H238835   0.331   0.595   2.556  0.4367 -0.7589  1.5752
 5782TIP3   OH238836   0.517   4.989  15.311 -0.5654 -0.1336  0.2116
 5782TIP3    H138837   0.421   4.983  15.316 -0.7019  0.6005 -1.1642
 5782TIP3    H238838   0.535   4.991  15.217  0.6821  1.5219  0.4789
 5783TIP3   OH238839   5.522   6.642   5.260 -0.3886 -0.3528 -0.2041
 5783TIP3    H138840   5.608   6.600   5.256 -0.3258 -0.1321 -1.3249
 5783TIP3    H238841   5.501   6.644   5.353  2.4732  2.8486  0.4760
 5784TIP3   OH238842   0.420   5.560   0.536 -0.1992 -0.1653 -0.4729
 5784TIP3    H138843   0.389   5.540   0.624  1.3233 -0.0756  0.0968
 5784TIP3    H238844   0.498   5.614   0.549  1.5017 -2.2264 -1.7914
 5785TIP3   OH238845   2.139   1.444  11.730 -0.1092 -0.0396  0.0488
 5785TIP3    H138846   2.075   1.491  11.675 -0.0602 -0.6330 -0.5168
 5785TIP3    H238847   2.088   1.417  11.807 -0.2078  0.6843  0.2469
 5786TIP3   OH238848   0.912   2.775  12.319  0.2692 -0.2588  0.1173
 5786TIP3    H138849   0.915   2.681  12.299 -0.8997 -0.4425  0.7679
 5786TIP3    H238850   0.889   2.816  12.236  0.6072 -0.5656 -0.1278
 5787TIP3   OH238851   3.385   3.413  11.255 -0.3013 -0.2808  0.1377
 5787TIP3    H138852   3.449   3.449  11.195  0.3577 -1.0410  0.3718
 5787TIP3    H238853   3.436   3.363  11.319 -1.1879 -1.8353 -0.3327
 5788TIP3   OH238854   0.422   5.851   2.324 -0.0473  0.0391 -0.7449
 5788TIP3    H138855   0.358   5.905   2.277  0.8038  3.0934  1.4249
 5788TIP3    H238856   0.375   5.819   2.401 -0.5830 -2.5180 -2.0910
 5789TIP3   OH238857   6.385   5.156   3.709 -0.3912  0.2220 -0.2194
 5789TIP3    H138858   6.290   5.165   3.712 -0.3140  0.8341  0.7131
 5789TIP3    H238859   6.416   5.239   3.672 -0.2677 -0.3536 -1.4357
 5790TIP3   OH238860   4.300   5.728  15.736  0.1763  0.1216 -0.6255
 5790TIP3    H138861   4.233   5.660  15.720  1.4742 -1.1412 -0.7918
 5790TIP3    H238862   4.288   5.752  15.828 -0.0471 -0.6051 -0.4588
 5791TIP3   OH238863   3.916   1.970  11.738 -0.2406  0.6836  0.2005
 5791TIP3    H138864   3.870   2.026  11.675 -3.2522  0.3384  1.9962
 5791TIP3    H238865   3.949   1.897  11.685 -3.4672 -0.0497 -0.8823
 5792TIP3   OH238866   0.221   5.023   1.515 -0.0237 -0.5184 -0.2773
 5792TIP3    H138867   0.303   4.976   1.528 -0.9722 -2.4051 -0.9821
 5792TIP3    H238868   0.235   5.108   1.558  2.0244 -1.0862  0.2258
 5793TIP3   OH238869   1.338   4.691  12.592  0.0645 -0.4571 -0.0976
 5793TIP3    H138870   1.428   4.716  12.571 -0.0218  0.2096  0.3026
 5793TIP3    H238871   1.330   4.703  12.686 -0.1703 -1.4213  0.0050
 5794TIP3   OH238872   5.104   2.453   4.858  0.1569  0.1380 -0.4378
 5794TIP3    H138873   5.009   2.456   4.862  0.1043 -2.2732  0.7695
 5794TIP3    H238874   5.133   2.519   4.922 -0.6938  0.2746 -0.1927
 5795TIP3   OH238875   1.487   6.060  15.504  0.4204  1.4001  0.1900
 5795TIP3    H138876   1.523   6.052  15.592  1.1877  1.4569 -0.1123
 5795TIP3    H238877   1.395   6.038  15.514  1.0759 -1.5278  0.5405
 5796TIP3   OH238878   3.986   3.142   5.764  0.1046  0.0381  0.4759
 5796TIP3    H138879   3.938   3.061   5.784 -0.4567  0.4869  0.9575
 5796TIP3    H238880   3.938   3.210   5.811  1.0354  0.5397  0.7085
 5797TIP3   OH238881   5.255   0.750  13.161  0.1678 -0.2049 -0.8667
 5797TIP3    H138882   5.343   0.753  13.198  0.4204 -0.0935 -1.4677
 5797TIP3    H238883   5.209   0.683  13.212  0.1817  0.6853  0.3446
 5798TIP3   OH238884   2.204   2.374  16.231  0.3400  0.1050  0.2847
 5798TIP3    H138885   2.141   2.326  16.284  0.6174 -0.9552 -0.3136
 5798TIP3    H238886   2.165   2.378  16.144  0.3251  0.9575  0.3306
 5799TIP3   OH238887   6.240   4.350   2.014  0.4766 -0.3962 -0.1690
 5799TIP3    H138888   6.151   4.368   1.984  0.6824 -0.0892 -0.5937
 5799TIP3    H238889   6.234   4.349   2.109  0.0529 -0.1971 -0.1962
 5800TIP3   OH238890   4.718   1.989  12.008 -0.2894  0.2850  0.1160
 5800TIP3    H138891   4.810   1.963  12.008 -0.4166 -0.1873  1.1484
 5800TIP3    H238892   4.673   1.918  12.054 -1.3346 -0.0292 -1.3621
 5801TIP3   OH238893   5.570   2.969   6.746  0.3930  0.5927  0.2510
 5801TIP3    H138894   5.489   2.919   6.751 -1.2124  2.9435 -1.2219
 5801TIP3    H238895   5.636   2.906   6.715 -0.9216 -1.2441  1.1275
 5802TIP3   OH238896   5.903   0.178   3.208 -0.2426 -0.3656 -0.2408
 5802TIP3    H138897   5.929   0.248   3.268  0.1653 -1.0773  0.4162
 5802TIP3    H238898   5.946   0.201   3.125  1.9695 -1.1489  0.6312
 5803TIP3   OH238899   1.309   4.373  15.590  0.1908  0.0373 -0.2014
 5803TIP3    H138900   1.261   4.409  15.515  0.5436 -0.8781 -0.8759
 5803TIP3    H238901   1.349   4.450  15.632 -1.6003  0.7815  0.1957
 5804TIP3   OH238902   4.835   5.030  13.641 -0.3341  0.2589 -0.3552
 5804TIP3    H138903   4.882   5.031  13.558 -1.9738 -1.9498 -1.3527
 5804TIP3    H238904   4.773   5.102  13.635 -0.0290  0.4855 -0.7986
 5805TIP3   OH238905   6.463   1.916  11.171  0.5016 -0.4082  0.5294
 5805TIP3    H138906   6.453   1.829  11.132  0.3595 -0.7102  1.2261
 5805TIP3    H238907   6.391   1.967  11.134 -0.0917 -0.9103  0.9771
 5806TIP3   OH238908   6.231   0.994  15.701  0.7335 -0.2062  0.8423
 5806TIP3    H138909   6.254   0.990  15.794 -0.2449 -0.7518  1.0765
 5806TIP3    H238910   6.175   0.918  15.687  0.4512  0.1571 -0.0762
 5807TIP3   OH238911   0.129   0.533   3.050  0.1640  0.0267  0.1775
 5807TIP3    H138912   0.217   0.507   3.022  0.2348  1.7011 -1.2611
 5807TIP3    H238913   0.070   0.480   2.996  0.2877  0.2382 -0.1632
 5808TIP3   OH238914   6.181   3.053   1.470 -0.4179 -0.1335  0.3985
 5808TIP3    H138915   6.232   3.112   1.414  0.3430 -0.3305  0.8719
 5808TIP3    H238916   6.244   3.021   1.534 -0.9730 -0.9832  0.5288
 5809TIP3   OH238917   0.539   3.296  14.685 -0.0144  0.2896  0.5158
 5809TIP3    H138918   0.598   3.352  14.737  0.0611 -1.0217  1.8778
 5809TIP3    H238919   0.597   3.244  14.630 -0.0107  0.4890  0.3294
 5810TIP3   OH238920   6.547   5.503   1.683  0.1117 -0.3682 -0.0480
 5810TIP3    H138921   6.597   5.452   1.619  0.5260 -0.3749  0.2757
 5810TIP3    H238922   6.456   5.485   1.662  0.2499 -0.6151 -0.4410
 5811TIP3   OH238923   2.447   1.879   3.495 -0.3281  0.1970 -0.1160
 5811TIP3    H138924   2.485   1.865   3.408 -1.1235 -0.1138 -0.4226
 5811TIP3    H238925   2.433   1.973   3.500 -0.3524  0.2093 -0.3636
 5812TIP3   OH238926   1.823   5.456  14.590 -0.4773 -0.6976 -1.0795
 5812TIP3    H138927   1.857   5.520  14.527  0.9669  0.7613  1.1241
 5812TIP3    H238928   1.798   5.508  14.666 -0.9381 -2.5733  0.0793
 5813TIP3   OH238929   2.104   5.593   2.500  0.3531  0.1792  0.1136
 5813TIP3    H138930   2.135   5.527   2.561 -0.2161  1.7648  2.1910
 5813TIP3    H238931   2.165   5.666   2.511  0.5436  0.3125 -1.6043
 5814TIP3   OH238932   5.641   2.940   4.625 -0.1720  0.5956  0.2420
 5814TIP3    H138933   5.662   3.031   4.607 -1.0091  0.9384  0.9304
 5814TIP3    H238934   5.627   2.901   4.539  0.1244  1.1293 -0.0510
 5815TIP3   OH238935   6.342   3.385  11.629 -0.3173  0.4822 -0.5883
 5815TIP3    H138936   6.263   3.355  11.583 -0.8509  0.8418  0.0881
 5815TIP3    H238937   6.343   3.479  11.617 -1.5710  0.8494  1.8223
 5816TIP3   OH238938   3.392   5.351   0.693  0.2696 -0.2982  0.2555
 5816TIP3    H138939   3.457   5.322   0.628  2.6392  0.2709  2.2792
 5816TIP3    H238940   3.362   5.436   0.660  2.3004  0.5254  0.4615
 5817TIP3   OH238941   0.344   2.262   4.679 -0.4884 -0.5152  0.4394
 5817TIP3    H138942   0.354   2.350   4.714  1.0424 -0.5155  0.0348
 5817TIP3    H238943   0.250   2.253   4.663 -0.6499  1.0498  0.4445
 5818TIP3   OH238944   4.123   3.097  13.411  0.4601  0.4465  0.3271
 5818TIP3    H138945   4.033   3.120  13.433 -0.0492  1.6961 -2.7649
 5818TIP3    H238946   4.148   3.160  13.342  2.6511 -1.7065 -0.9401
 5819TIP3   OH238947   2.865   6.705   2.279 -0.6435 -0.2497  0.2243
 5819TIP3    H138948   2.828   6.776   2.333 -3.4442 -0.8414 -0.8295
 5819TIP3    H238949   2.926   6.750   2.220 -0.6417  0.9681  1.1215
 5820TIP3   OH238950   5.222   3.360  16.156  0.4869  0.1495  0.1070
 5820TIP3    H138951   5.253   3.344  16.245 -0.0014 -1.0962  0.0636
 5820TIP3    H238952   5.126   3.364  16.163  0.4601  0.3708 -0.3118
 5821TIP3   OH238953   5.734   6.321  13.972 -0.3043  0.0758  0.0699
 5821TIP3    H138954   5.671   6.308  14.042 -0.8486  0.5620 -0.3321
 5821TIP3    H238955   5.801   6.255  13.988 -0.4698  0.1220  0.9963
 5822TIP3   OH238956   6.064   4.131   5.691  0.5725 -0.4995 -0.0605
 5822TIP3    H138957   5.994   4.066   5.705 -0.5370  0.9594  1.3770
 5822TIP3    H238958   6.108   4.136   5.776  1.0804  0.1620 -0.3630
 5823TIP3   OH238959   3.291   6.311  12.536  0.0402 -0.6533  0.5122
 5823TIP3    H138960   3.360   6.374  12.518  1.0138 -2.0329 -0.7599
 5823TIP3    H238961   3.210   6.362  12.533  0.7619  0.4387 -1.0391
 5824TIP3   OH238962   5.329   4.590   0.129  0.3749  0.1827  0.0383
 5824TIP3    H138963   5.246   4.575   0.084  0.1531 -1.1566  0.8694
 5824TIP3    H238964   5.349   4.506   0.171  1.2530  1.0136  1.3105
 5825TIP3   OH238965   5.676   0.802  13.531  0.2595  0.4573 -0.2822
 5825TIP3    H138966   5.685   0.788  13.626 -3.2834  2.2009  0.4002
 5825TIP3    H238967   5.754   0.852  13.507  0.1313  1.9419  2.1923
 5826TIP3   OH238968   3.326   5.602  14.557 -0.4055  0.4086  0.2977
 5826TIP3    H138969   3.350   5.694  14.570 -1.8310  1.1972 -2.1681
 5826TIP3    H238970   3.246   5.606  14.504 -0.5234 -2.2559  0.2176
 5827TIP3   OH238971   4.741   6.323   1.238  0.5763 -0.2393  0.1482
 5827TIP3    H138972   4.713   6.325   1.330 -0.3337 -0.2369 -0.1251
 5827TIP3    H238973   4.813   6.260   1.237  0.7537 -0.0577  0.9096
 5828TIP3   OH238974   1.096   4.375  13.678  0.2020  0.2773  0.1437
 5828TIP3    H138975   1.047   4.371  13.596  0.8490  2.3868 -0.3705
 5828TIP3    H238976   1.029   4.366  13.746 -0.4281 -0.6790 -0.5840
 5829TIP3   OH238977   0.478   1.939  13.882  0.3398 -0.5405 -0.5313
 5829TIP3    H138978   0.498   1.883  13.957  0.8251  1.1272  0.6010
 5829TIP3    H238979   0.384   1.957  13.889  0.7307  1.0741  0.7025
 5830TIP3   OH238980   3.867   0.070   4.520 -0.3783 -0.5453  0.3134
 5830TIP3    H138981   3.929   0.037   4.585  0.0643  0.2982  0.3279
 5830TIP3    H238982   3.906   0.152   4.489 -0.8147 -0.7112 -0.6870
 5831TIP3   OH238983   2.818   0.362  15.852 -0.8192 -0.0769  0.5523
 5831TIP3    H138984   2.871   0.316  15.787  0.1106  1.9445 -0.1763
 5831TIP3    H238985   2.757   0.296  15.885 -1.5806 -1.0455 -2.6365
 5832TIP3   OH238986   4.495   5.264   2.836  1.1328  0.1698  0.3131
 5832TIP3    H138987   4.488   5.260   2.932  0.4661 -0.0835  0.2583
 5832TIP3    H238988   4.572   5.211   2.816 -0.2991 -2.0318  0.5191
 5833TIP3   OH238989   2.355   5.243  13.279  0.0773 -0.1317 -0.1395
 5833TIP3    H138990   2.376   5.315  13.339 -1.0738 -0.4204  0.6348
 5833TIP3    H238991   2.374   5.164  13.329 -0.5456 -0.3717 -0.2711
 5834TIP3   OH238992   5.864   4.757  17.005 -0.0195 -0.1755 -0.1083
 5834TIP3    H138993   5.954   4.789  17.003  0.0446 -0.2578  0.8839
 5834TIP3    H238994   5.828   4.793  17.086 -1.4389  1.3316 -1.3897
 5835TIP3   OH238995   1.000   0.556  12.337 -0.4155 -0.4263 -0.0062
 5835TIP3    H138996   1.095   0.549  12.336 -0.2650  1.0992  0.9269
 5835TIP3    H238997   0.982   0.645  12.307 -1.5316 -0.6341  0.0226
 5836TIP3   OH238998   3.529   0.050  13.337  0.5926 -0.3520  0.3783
 5836TIP3    H138999   3.476   0.107  13.282  1.3626 -0.7452 -0.7894
 5836TIP3    H239000   3.618   0.086  13.332  1.0111 -1.4191 -0.0632
 5837TIP3   OH239001   0.336   4.333   0.802 -0.0718 -0.3779 -0.4503
 5837TIP3    H139002   0.251   4.292   0.785 -0.2230 -0.1390 -0.2710
 5837TIP3    H239003   0.399   4.265   0.782 -0.2762 -0.3439 -1.2345
 5838TIP3   OH239004   1.300   4.004  13.002 -0.0484 -0.1826 -0.8685
 5838TIP3    H139005   1.310   4.069  13.071  1.3682  0.5529 -1.7410
 5838TIP3    H239006   1.322   3.921  13.043  0.6130  0.2272 -0.3878
 5839TIP3   OH239007   3.610   2.115  17.172  0.1201  0.0458 -0.2792
 5839TIP3    H139008   3.632   2.127  17.264  0.5856 -0.7284 -0.2953
 5839TIP3    H239009   3.516   2.134  17.168 -0.2051 -1.3396  0.6117
 5840TIP3   OH239010   4.682   4.826  14.547 -0.0816 -0.1909 -0.7200
 5840TIP3    H139011   4.758   4.779  14.513  1.1492  0.2666  1.2878
 5840TIP3    H239012   4.621   4.757  14.572  0.3585 -0.6281 -0.8411
 5841TIP3   OH239013   1.193   2.041  13.286 -0.1050  0.1347  0.1784
 5841TIP3    H139014   1.114   2.002  13.249  0.2524  0.0791 -0.5295
 5841TIP3    H239015   1.161   2.097  13.356 -0.8717  0.8980 -0.7603
 5842TIP3   OH239016   0.543   4.056   5.334  0.0128  0.3094  0.4637
 5842TIP3    H139017   0.470   4.008   5.295  0.5696  0.2276 -0.4830
 5842TIP3    H239018   0.503   4.136   5.368 -0.4831  0.3620 -0.2323
 5843TIP3   OH239019   5.902   1.419   4.688 -0.3699 -0.4183 -0.6285
 5843TIP3    H139020   5.941   1.506   4.686 -1.8000  0.2254 -1.5059
 5843TIP3    H239021   5.859   1.414   4.774  1.0499 -0.8895  0.0775
 5844TIP3   OH239022   4.888   5.766  12.127 -0.5306  0.0941  0.0286
 5844TIP3    H139023   4.917   5.790  12.215  0.8761  0.5892 -0.5591
 5844TIP3    H239024   4.962   5.719  12.089 -1.5363 -1.0726 -0.5135
 5845TIP3   OH239025   6.006   5.986   2.529  0.0268 -0.3874 -0.7361
 5845TIP3    H139026   6.070   6.007   2.596 -1.0229  1.0406 -0.1633
 5845TIP3    H239027   6.009   5.890   2.523  0.3695 -0.5157  1.1175
 5846TIP3   OH239028   2.358   3.083  14.992  0.6296  0.2754 -0.1259
 5846TIP3    H139029   2.451   3.100  14.983  0.8947  0.0508  2.0861
 5846TIP3    H239030   2.318   3.170  15.003  1.1328  0.1131  3.5489
 5847TIP3   OH239031   5.391   1.305  14.945  0.3015  1.2278  0.3432
 5847TIP3    H139032   5.341   1.264  15.015  0.7548  1.9780  1.1218
 5847TIP3    H239033   5.456   1.239  14.919 -0.4063  0.6407  0.0428
 5848TIP3   OH239034   2.792   0.318   4.117 -0.1951  0.0220  0.0228
 5848TIP3    H139035   2.859   0.362   4.065  0.1696 -1.8113 -1.1203
 5848TIP3    H239036   2.782   0.233   4.075 -2.5330 -0.1103  0.7792
 5849TIP3   OH239037   4.778   5.708  16.508 -0.4384  0.3645  0.2308
 5849TIP3    H139038   4.752   5.622  16.541 -0.6708  0.1996 -0.3590
 5849TIP3    H239039   4.750   5.770  16.575  2.4703 -0.2763  2.0672
 5850TIP3   OH239040   0.226   4.069   4.416 -0.2719  0.2986 -0.2524
 5850TIP3    H139041   0.177   4.019   4.352 -2.1418 -0.6362  1.8677
 5850TIP3    H239042   0.160   4.111   4.471  1.2790  0.1098  1.8232
 5851TIP3   OH239043   4.843   1.941   3.287 -0.3343 -0.4480 -0.2757
 5851TIP3    H139044   4.925   1.911   3.247 -0.6101 -0.3775 -0.8943
 5851TIP3    H239045   4.854   1.923   3.380 -0.0568 -1.4719 -0.5004
 5852TIP3   OH239046   5.113   2.428   6.389 -0.0702 -0.0705  0.1123
 5852TIP3    H139047   5.130   2.369   6.462  0.4210  0.0912  0.1303
 5852TIP3    H239048   5.198   2.469   6.371  0.2122 -1.3593 -1.6419
 5853TIP3   OH239049   1.716   0.528  14.975 -0.9548 -0.1241  0.1188
 5853TIP3    H139050   1.791   0.576  15.010 -2.5807  2.1512  0.5926
 5853TIP3    H239051   1.692   0.466  15.045 -0.7963  0.5686  0.7895
 5854TIP3   OH239052   2.744   2.751   5.790  0.1001  0.4072  0.1451
 5854TIP3    H139053   2.756   2.662   5.823  0.6371  0.4192 -0.0088
 5854TIP3    H239054   2.657   2.777   5.820 -0.2935 -0.3814 -0.3070
 5855TIP3   OH239055   3.075   5.560  15.144  0.5590  0.4813 -0.4883
 5855TIP3    H139056   3.106   5.471  15.132  1.3556  0.6738  0.0905
 5855TIP3    H239057   3.105   5.607  15.066  1.3988  0.5716 -0.1197
 5856TIP3   OH239058   6.152   5.351   4.096 -0.2514  0.1025  0.3566
 5856TIP3    H139059   6.239   5.320   4.121 -1.7277 -2.8989  2.0143
 5856TIP3    H239060   6.130   5.417   4.162  0.1527 -0.1926  0.7898
 5857TIP3   OH239061   3.883   5.680  13.176  0.4281 -0.9905 -0.4889
 5857TIP3    H139062   3.805   5.735  13.165  0.8130 -0.2096  0.5272
 5857TIP3    H239063   3.856   5.594  13.145 -0.9500 -0.8063  0.1244
 5858TIP3   OH239064   4.712   4.036  17.032 -0.8788 -0.6411  0.0355
 5858TIP3    H139065   4.698   4.103  16.966 -1.1013 -1.6944 -0.9984
 5858TIP3    H239066   4.628   4.027  17.076 -0.2402  1.3853  1.7373
 5859TIP3   OH239067   1.876   1.496  14.531 -0.5044 -0.6170  0.3199
 5859TIP3    H139068   1.947   1.441  14.498  0.2334  1.0741 -0.9841
 5859TIP3    H239069   1.920   1.557  14.591 -1.0937 -0.5306  0.6660
 5860TIP3   OH239070   4.594   5.812   5.009  0.3379  0.2950 -0.2120
 5860TIP3    H139071   4.663   5.871   4.978  0.9950  0.0458  0.7505
 5860TIP3    H239072   4.585   5.747   4.940 -1.2459  2.1954 -1.8660
 5861TIP3   OH239073   5.403   4.298   3.756  0.0336  0.0270 -0.6183
 5861TIP3    H139074   5.436   4.220   3.712  1.6092  0.4575 -0.2172
 5861TIP3    H239075   5.481   4.344   3.786 -0.9230  1.1696  0.1752
 5862TIP3   OH239076   0.820   2.344  15.391 -0.4538 -0.1071  0.2069
 5862TIP3    H139077   0.824   2.358  15.296 -1.8774  0.6507  0.2514
 5862TIP3    H239078   0.882   2.407  15.427 -1.3532  0.9539 -0.0884
 5863TIP3   OH239079   6.801   6.594  16.174 -0.3858  0.1587  0.0634
 5863TIP3    H139080   6.750   6.613  16.252  0.6896  1.0634  0.5556
 5863TIP3    H239081   6.887   6.568  16.207 -0.6650 -1.8202 -0.7323
 5864TIP3   OH239082   1.812   2.001  13.668  0.7725  0.4200  0.3439
 5864TIP3    H139083   1.752   2.062  13.711  1.1478  1.8135 -1.0682
 5864TIP3    H239084   1.799   1.918  13.714 -0.3389  1.3532  1.7581
 5865TIP3   OH239085   0.714   1.053  15.335 -0.4605  0.4925  0.5551
 5865TIP3    H139086   0.793   1.061  15.281 -0.2061 -1.5317  0.5751
 5865TIP3    H239087   0.666   1.134  15.319  0.7584  0.9643 -0.8632
 5866TIP3   OH239088   1.605   2.910   2.301  0.3764 -0.4358  0.3279
 5866TIP3    H139089   1.562   2.854   2.366  0.8617 -0.0526  0.9874
 5866TIP3    H239090   1.684   2.942   2.345 -0.5212  1.7611  0.3875
 5867TIP3   OH239091   5.546   3.399   3.433  0.1410  0.0668  0.4824
 5867TIP3    H139092   5.638   3.418   3.414 -0.5337  1.3962 -1.7194
 5867TIP3    H239093   5.509   3.484   3.456 -0.7582 -0.2891  0.3569
 5868TIP3   OH239094   2.180   1.180   1.219 -0.3312 -0.0330  0.2728
 5868TIP3    H139095   2.092   1.218   1.208  0.3534  2.0283  1.7556
 5868TIP3    H239096   2.219   1.187   1.132 -1.6811 -1.1567 -0.4612
 5869TIP3   OH239097   4.871   6.193  10.423  0.6912  0.1192  0.1802
 5869TIP3    H139098   4.824   6.190  10.506  1.0108 -0.3423  0.3465
 5869TIP3    H239099   4.927   6.270  10.429  1.6955 -0.6692  0.9183
 5870TIP3   OH239100   3.969   0.226  11.987 -0.1673 -0.2827  0.2923
 5870TIP3    H139101   4.041   0.213  11.925  0.2664 -0.7134  0.8737
 5870TIP3    H239102   3.892   0.238  11.932 -0.2031 -3.0608 -0.3202
 5871TIP3   OH239103   4.026   4.355   2.297 -0.2527 -0.0247  0.1622
 5871TIP3    H139104   4.014   4.261   2.311 -1.5744 -0.2244 -1.9928
 5871TIP3    H239105   4.107   4.362   2.247 -1.4846 -0.2951 -1.9742
 5872TIP3   OH239106   6.429   5.534  16.483 -0.4594 -0.6872 -0.1869
 5872TIP3    H139107   6.522   5.551  16.473 -0.2594 -1.7780 -0.2504
 5872TIP3    H239108   6.416   5.530  16.578 -0.9467  2.0689 -0.0849
 5873TIP3   OH239109   1.812   0.669   2.964  0.1852 -0.3963 -0.3417
 5873TIP3    H139110   1.725   0.630   2.953 -0.3317  1.0415 -1.5523
 5873TIP3    H239111   1.860   0.645   2.885  0.3814  0.1136 -0.3809
 5874TIP3   OH239112   3.306   0.737  10.566 -0.0247  0.0865  0.2304
 5874TIP3    H139113   3.229   0.711  10.617  0.2402 -1.8539 -0.3452
 5874TIP3    H239114   3.366   0.775  10.631 -0.1003 -1.4743  1.2355
 5875TIP3   OH239115   0.903   5.315  15.483 -0.3969  0.0313  0.3259
 5875TIP3    H139116   0.876   5.405  15.464 -0.9432 -0.3706 -0.7948
 5875TIP3    H239117   0.826   5.262  15.461 -0.2285 -0.6742  1.4029
 5876TIP3   OH239118   1.553   0.509   2.555  0.5114 -0.2826  0.4601
 5876TIP3    H139119   1.486   0.444   2.578 -0.6508  1.1385  1.2219
 5876TIP3    H239120   1.632   0.458   2.539 -0.7552 -2.0162 -0.5024
 5877TIP3   OH239121   0.593   5.949   5.732  0.1632  0.0655  0.4968
 5877TIP3    H139122   0.595   5.912   5.820  1.7958  0.6103  0.6909
 5877TIP3    H239123   0.529   5.895   5.685 -0.4647 -0.4391  1.9037
 5878TIP3   OH239124   0.537   1.837  17.152  0.2028  0.7047 -0.2110
 5878TIP3    H139125   0.469   1.884  17.104  0.4134  1.2066 -0.0279
 5878TIP3    H239126   0.527   1.867  17.243  0.6040  0.7108 -0.1682
 5879TIP3   OH239127   0.102   2.553  11.846 -0.0264  0.0930 -0.0620
 5879TIP3    H139128   0.020   2.552  11.895  0.5969 -0.3849  1.0024
 5879TIP3    H239129   0.091   2.487  11.778 -0.3092 -0.3722  0.4369
 5880TIP3   OH239130   0.854   6.650  10.733 -0.8043  0.1715  0.6293
 5880TIP3    H139131   0.941   6.665  10.695 -1.7431  0.5180 -1.4724
 5880TIP3    H239132   0.793   6.688  10.670 -2.5335 -0.5926  1.7782
 5881TIP3   OH239133   1.625   5.683  11.242 -0.4623  0.0875  0.0887
 5881TIP3    H139134   1.540   5.700  11.283 -0.8798  0.3298 -0.8833
 5881TIP3    H239135   1.687   5.733  11.295 -1.0716  0.8174  0.1182
 5882TIP3   OH239136   1.842   5.886   6.387  0.1280  0.0690 -0.3386
 5882TIP3    H139137   1.750   5.904   6.406  0.0589 -0.5352 -0.0943
 5882TIP3    H239138   1.889   5.921   6.464 -0.0044 -0.7727  0.1270
 5883TIP3   OH239139   5.074   2.179  15.389  0.3751  0.9327  0.4021
 5883TIP3    H139140   5.158   2.212  15.420 -0.5125  2.1571  1.5504
 5883TIP3    H239141   5.011   2.249  15.410 -0.9447  0.0066 -0.3689
 5884TIP3   OH239142   0.153   2.880  13.563  0.0549 -0.3335  0.3078
 5884TIP3    H139143   0.063   2.873  13.533  0.0174  2.5855 -0.4827
 5884TIP3    H239144   0.204   2.834  13.497 -0.9367 -3.5793  1.6969
 5885TIP3   OH239145   0.579   2.178  11.818 -0.1749 -0.0858 -0.3497
 5885TIP3    H139146   0.621   2.214  11.896  0.7743  1.3764 -1.5160
 5885TIP3    H239147   0.605   2.237  11.747 -0.7493 -1.5903 -1.8420
 5886TIP3   OH239148   4.756   2.774   1.604 -0.2109  0.1435  0.1020
 5886TIP3    H139149   4.820   2.744   1.669 -1.7591  0.1763  1.6544
 5886TIP3    H239150   4.737   2.864   1.629 -2.7765 -0.6649  1.2029
 5887TIP3   OH239151   5.616   2.930  11.594  0.1953 -0.1103 -0.1697
 5887TIP3    H139152   5.603   2.837  11.614 -0.2076  0.0433  0.3023
 5887TIP3    H239153   5.667   2.930  11.513  0.5275 -0.7444  0.0320
 5888TIP3   OH239154   3.272   0.667  15.108 -0.5827 -0.2954 -0.0755
 5888TIP3    H139155   3.361   0.635  15.094 -0.4006 -0.4324  1.3054
 5888TIP3    H239156   3.217   0.589  15.099 -0.5100 -0.3173 -0.3427
 5889TIP3   OH239157   3.566   6.790  15.555 -0.0498 -0.3598  0.0570
 5889TIP3    H139158   3.577   6.745  15.471  0.0761 -1.1754  0.5126
 5889TIP3    H239159   3.617   6.738  15.617 -0.3190  0.1224  0.6857
 5890TIP3   OH239160   5.933   5.280  10.624  0.4569  0.4165 -0.3264
 5890TIP3    H139161   5.950   5.305  10.715  0.6893 -1.0303  0.0409
 5890TIP3    H239162   5.869   5.344  10.593 -0.4538  0.2817  1.2019
 5891TIP3   OH239163   6.301   1.535  11.391  0.2734 -0.3746  0.8374
 5891TIP3    H139164   6.249   1.543  11.310  2.0902 -1.1435 -0.4469
 5891TIP3    H239165   6.238   1.507  11.457 -1.3186  0.5801 -0.2346
 5892TIP3   OH239166   6.585   2.953  10.944 -0.2504 -0.2912  0.3698
 5892TIP3    H139167   6.660   3.003  10.911 -0.8953  0.1299 -0.4762
 5892TIP3    H239168   6.549   2.909  10.867 -0.4851 -1.0052  0.8839
 5893TIP3   OH239169   1.561   3.616  10.762  0.6799 -0.7526  0.5398
 5893TIP3    H139170   1.526   3.701  10.791 -1.7847 -1.2010 -0.9634
 5893TIP3    H239171   1.610   3.636  10.682 -0.9543 -0.8871 -0.5160
 5894TIP3   OH239172   5.158   3.060   5.969 -0.8788 -0.0686 -0.0911
 5894TIP3    H139173   5.114   2.974   5.976  0.2391 -0.6339  0.0333
 5894TIP3    H239174   5.172   3.087   6.059  1.5508 -1.1975 -0.1069
 5895TIP3   OH239175   2.606   5.740  11.483  0.3859  0.0849  0.2733
 5895TIP3    H139176   2.512   5.728  11.469  0.4432  0.7139 -0.6831
 5895TIP3    H239177   2.646   5.659  11.450  0.2505  0.1882 -0.1452
 5896TIP3   OH239178   0.214   4.151  13.111  0.5235  0.7331  0.5312
 5896TIP3    H139179   0.202   4.171  13.204 -0.2666  2.0493  0.1635
 5896TIP3    H239180   0.306   4.125  13.104 -0.0958 -1.9582  2.0949
 5897TIP3   OH239181   1.865   3.088  14.389  0.2742 -0.6029  0.0642
 5897TIP3    H139182   1.890   3.125  14.305  0.0517 -0.0960  0.2206
 5897TIP3    H239183   1.940   3.033  14.414  0.3482 -0.7368 -0.4454
 5898TIP3   OH239184   5.994   2.256  17.019  0.1183  0.2644  0.2162
 5898TIP3    H139185   6.003   2.183  16.957 -1.1016  1.8529 -1.9190
 5898TIP3    H239186   5.908   2.244  17.058 -1.1901  1.8990 -2.0308
 5899TIP3   OH239187   0.502   5.020   1.003  0.6018  0.4436 -0.1865
 5899TIP3    H139188   0.454   5.026   1.086 -1.9296  0.4883 -1.5843
 5899TIP3    H239189   0.460   4.947   0.956  1.1734  1.1784 -1.9005
 5900TIP3   OH239190   5.741   4.117  11.716  0.3446  0.4673 -0.0126
 5900TIP3    H139191   5.646   4.120  11.717  0.3570  0.9007 -0.0591
 5900TIP3    H239192   5.762   4.024  11.710 -0.0680  0.3280  0.6753
 5901TIP3   OH239193   5.327   6.538   4.863  0.2761 -0.5583 -0.5441
 5901TIP3    H139194   5.285   6.573   4.785  0.0546 -1.4838 -0.8448
 5901TIP3    H239195   5.411   6.584   4.868 -0.4639  0.7970 -0.3221
 5902TIP3   OH239196   6.381   1.546  15.141 -0.4768  0.3377  0.3285
 5902TIP3    H139197   6.458   1.523  15.192 -1.1020  0.0496  1.1589
 5902TIP3    H239198   6.392   1.639  15.121 -1.0226  0.8771  2.4143
 5903TIP3   OH239199   1.929   1.033  11.935 -0.0473 -0.0866 -0.6192
 5903TIP3    H139200   1.978   1.066  11.860  1.9723 -0.1803  0.6355
 5903TIP3    H239201   1.842   1.072  11.925 -0.0141 -0.5835 -3.3187
 5904TIP3   OH239202   4.173   5.721   4.965 -0.8720 -0.0096 -0.0937
 5904TIP3    H139203   4.091   5.673   4.977 -1.0045  0.1551 -0.3433
 5904TIP3    H239204   4.235   5.679   5.025 -0.7882 -0.9572 -0.8394
 5905TIP3   OH239205   2.077   3.565   4.250 -0.1729 -0.0598 -0.0141
 5905TIP3    H139206   2.044   3.600   4.167 -0.4156 -1.7629 -0.6689
 5905TIP3    H239207   1.998   3.551   4.303 -0.0078  1.1433  0.5630
 5906TIP3   OH239208   2.524   6.129  10.280 -0.5935  0.5017  0.2103
 5906TIP3    H139209   2.596   6.192  10.269 -0.4972  0.1452 -1.4624
 5906TIP3    H239210   2.451   6.180  10.315  0.4415  0.8831  1.8618
 5907TIP3   OH239211   3.602   2.312  16.833  0.6960  0.4000 -0.5381
 5907TIP3    H139212   3.529   2.371  16.851  1.1999  0.8900 -0.0662
 5907TIP3    H239213   3.666   2.331  16.902  0.8555 -0.7240 -0.3602
 5908TIP3   OH239214   5.968   1.027   3.612 -0.2574  0.2842  0.2032
 5908TIP3    H139215   5.965   1.056   3.521  1.8263  3.3461  1.0104
 5908TIP3    H239216   5.911   1.089   3.658  1.1135  0.6451  1.4249
 5909TIP3   OH239217   4.534   1.589   2.319 -0.6214 -0.4348  0.1321
 5909TIP3    H139218   4.460   1.559   2.371 -0.7958 -2.9382 -1.4777
 5909TIP3    H239219   4.608   1.536   2.349  0.3713  1.4699  1.1561
 5910TIP3   OH239220   4.274   1.697   0.222  0.1094  0.0430  0.2510
 5910TIP3    H139221   4.202   1.638   0.244  0.4280 -0.1891  0.7100
 5910TIP3    H239222   4.318   1.654   0.148  0.2514 -0.2290  0.4877
 5911TIP3   OH239223   5.464   0.603  12.027 -0.6040 -0.3457  0.1949
 5911TIP3    H139224   5.469   0.510  12.005 -1.6345 -0.4568  0.4281
 5911TIP3    H239225   5.411   0.641  11.957  2.2393  0.5901 -1.5219
 5912TIP3   OH239226   6.654   1.433   6.251  0.1775  0.6592 -0.2459
 5912TIP3    H139227   6.743   1.401   6.267 -0.1965 -0.1353  0.2573
 5912TIP3    H239228   6.662   1.529   6.256  0.9952  0.5934 -0.1832
 5913TIP3   OH239229   1.838   1.867  12.487 -0.1812 -0.4301  0.4857
 5913TIP3    H139230   1.928   1.897  12.504 -0.8705  0.8940  2.0383
 5913TIP3    H239231   1.837   1.776  12.516 -0.2359  0.6030  4.0539
 5914TIP3   OH239232   0.562   2.509   1.488  0.1858  0.3189 -0.4815
 5914TIP3    H139233   0.592   2.468   1.407  0.9970  1.6982 -0.8966
 5914TIP3    H239234   0.640   2.553   1.522 -0.4825  0.8552  0.3603
 5915TIP3   OH239235   4.809   5.183   5.474  0.5469 -0.2571 -0.4509
 5915TIP3    H139236   4.838   5.095   5.499  1.6801 -0.0996 -1.1586
 5915TIP3    H239237   4.842   5.195   5.385  0.8484  1.0825 -0.1729
 5916TIP3   OH239238   3.411   3.155  13.608  0.1493  0.8901  0.8301
 5916TIP3    H139239   3.332   3.122  13.565  0.4952 -0.5542  1.2766
 5916TIP3    H239240   3.380   3.229  13.661 -0.6125  1.4010 -0.3058
 5917TIP3   OH239241   3.677   3.274   4.905  0.0499 -0.3574 -0.2473
 5917TIP3    H139242   3.613   3.225   4.956 -2.5211  0.2738 -2.7511
 5917TIP3    H239243   3.697   3.351   4.959 -0.0608 -1.3809  1.2776
 5918TIP3   OH239244   3.924   1.690  14.186 -0.2937 -0.5373  0.4673
 5918TIP3    H139245   3.935   1.784  14.170 -2.1847 -0.8566 -3.5162
 5918TIP3    H239246   3.870   1.685  14.264 -1.6319  1.7718 -0.2563
 5919TIP3   OH239247   0.799   5.194  13.008 -0.6254  0.1524  0.1246
 5919TIP3    H139248   0.849   5.230  12.934 -2.1490  1.3536 -0.3254
 5919TIP3    H239249   0.823   5.249  13.082 -0.0797 -0.2578  0.2583
 5920TIP3   OH239250   4.219   4.713  15.209 -0.1024 -0.1091 -0.0084
 5920TIP3    H139251   4.262   4.787  15.168 -1.5975  0.4537 -0.5956
 5920TIP3    H239252   4.239   4.639  15.153 -0.9116  0.3802 -0.9522
 5921TIP3   OH239253   5.217   4.051  14.971 -0.0061 -0.2440  0.2018
 5921TIP3    H139254   5.187   3.972  14.926 -1.4177  0.6348 -0.4364
 5921TIP3    H239255   5.137   4.098  14.993  0.8485  2.0582 -1.3288
 5922TIP3   OH239256   0.283   0.024  12.737  0.2789 -0.5010 -0.4833
 5922TIP3    H139257   0.372   0.039  12.769 -0.2886  2.3302 -0.1036
 5922TIP3    H239258   0.233  -0.001  12.815 -0.0646  1.7392  0.0611
 5923TIP3   OH239259   2.108   2.096   2.755  0.7047 -0.1373 -0.0188
 5923TIP3    H139260   2.143   2.007   2.768  0.2427 -0.2170  0.6959
 5923TIP3    H239261   2.126   2.141   2.837  0.8754  0.4160 -0.3570
 5924TIP3   OH239262   6.220   0.768   6.127 -0.7186 -0.2859  0.0475
 5924TIP3    H139263   6.252   0.791   6.040 -0.0507  0.6043  0.5229
 5924TIP3    H239264   6.129   0.800   6.129 -0.6398 -0.0516 -0.2171
 5925TIP3   OH239265   2.380   0.827  15.564  0.7614  0.1014 -0.0969
 5925TIP3    H139266   2.381   0.781  15.648 -1.7287  0.5508  0.2081
 5925TIP3    H239267   2.472   0.851  15.549  1.1549  0.6223  2.8231
 5926TIP3   OH239268   0.328   6.815   4.634 -0.2312 -0.3018 -0.4707
 5926TIP3    H139269   0.291   6.903   4.640  0.2188 -0.1397 -0.1321
 5926TIP3    H239270   0.288   6.779   4.555  0.0651  0.4322 -0.9662
 5927TIP3   OH239271   5.667   2.068   2.651  0.3816 -0.5568  0.3222
 5927TIP3    H139272   5.602   2.095   2.586  0.8966  0.5087  0.2358
 5927TIP3    H239273   5.688   1.978   2.628  0.6026 -0.1692 -1.0377
 5928TIP3   OH239274   6.152   5.984  17.210  0.3215 -0.5638  0.5712
 5928TIP3    H139275   6.229   5.930  17.224 -0.4430 -1.6797  0.5137
 5928TIP3    H239276   6.087   5.925  17.173  0.3087  0.9597 -1.9456
 5929TIP3   OH239277   1.582   0.936  13.580  0.3253 -0.0008 -0.1356
 5929TIP3    H139278   1.541   0.870  13.635 -1.9108  0.6665 -0.9259
 5929TIP3    H239279   1.669   0.901  13.561  0.0886 -1.5328  1.4848
 5930TIP3   OH239280   0.568   6.116   5.536 -0.2616  0.3593 -0.0476
 5930TIP3    H139281   0.578   6.051   5.606 -0.6974  0.8362  0.4621
 5930TIP3    H239282   0.637   6.094   5.473 -1.6423 -1.8113 -0.8437
 5931TIP3   OH239283   0.738   2.027   3.965  0.2784  0.2321 -0.3760
 5931TIP3    H139284   0.726   1.938   3.931  0.2876 -0.1666  0.6553
 5931TIP3    H239285   0.649   2.058   3.983  0.3774 -0.2064  0.8781
 5932TIP3   OH239286   3.693   2.120  16.663 -0.0102  0.5103  0.2142
 5932TIP3    H139287   3.615   2.066  16.673  0.8198 -0.8249 -0.3534
 5932TIP3    H239288   3.679   2.194  16.722 -2.4429  1.1712 -1.1237
 5933TIP3   OH239289   4.398   0.297   2.944 -0.2716 -0.3555 -0.4934
 5933TIP3    H139290   4.491   0.293   2.965 -0.8140 -0.7980  1.9728
 5933TIP3    H239291   4.387   0.382   2.902  1.3438 -0.5483 -1.3399
 5934TIP3   OH239292   1.243   6.160  13.659  0.5089  0.5587 -0.3374
 5934TIP3    H139293   1.237   6.145  13.565 -0.5660  1.6649 -0.4517
 5934TIP3    H239294   1.181   6.230  13.676 -0.8376 -1.0381  1.5280
 5935TIP3   OH239295   0.535   6.000  13.333 -0.1952 -0.1900 -0.3563
 5935TIP3    H139296   0.530   5.906  13.315 -0.7143 -0.3862  0.7422
 5935TIP3    H239297   0.572   6.038  13.254  1.6524 -1.5384 -0.1556
 5936TIP3   OH239298   5.465   5.785   4.188 -0.3330  0.2989 -0.0207
 5936TIP3    H139299   5.494   5.836   4.113 -0.8469 -1.0373 -1.1300
 5936TIP3    H239300   5.441   5.851   4.253  2.4643  1.4541 -0.0915
 5937TIP3   OH239301   3.390   0.064   0.509  0.0803 -0.0618 -0.1021
 5937TIP3    H139302   3.448   0.109   0.570 -0.9814 -1.2653  1.8313
 5937TIP3    H239303   3.357   0.132   0.451 -0.5993  1.4553  2.0403
 5938TIP3   OH239304   3.207   4.620   2.532 -0.6868  0.2389 -0.4925
 5938TIP3    H139305   3.145   4.574   2.588 -3.1005  2.0704 -1.6151
 5938TIP3    H239306   3.284   4.634   2.589 -0.9499 -2.7081  0.6639
 5939TIP3   OH239307   2.734   5.913  14.349 -0.0564 -0.0208  0.2967
 5939TIP3    H139308   2.806   5.973  14.372  0.7404 -1.4224  1.6276
 5939TIP3    H239309   2.721   5.926  14.255  2.8104 -0.6113 -0.2488
 5940TIP3   OH239310   4.495   3.355  12.733  0.4418  0.1864  0.1533
 5940TIP3    H139311   4.494   3.368  12.638 -0.4777  0.1023  0.1469
 5940TIP3    H239312   4.436   3.281  12.747  0.2525  0.4682  0.8293
 5941TIP3   OH239313   5.730   4.238   4.099  0.3772  0.1477 -0.4310
 5941TIP3    H139314   5.714   4.308   4.036  0.2458 -0.2483 -0.8344
 5941TIP3    H239315   5.736   4.159   4.046 -1.3533 -0.4239  0.2183
 5942TIP3   OH239316   0.599   3.647   2.826  0.1875 -0.0195  0.3876
 5942TIP3    H139317   0.684   3.691   2.824  0.0127  0.3709  1.2565
 5942TIP3    H239318   0.619   3.558   2.855  0.3654 -0.0891  0.0549
 5943TIP3   OH239319   4.137   2.601   3.715  0.0060  0.8864  0.2988
 5943TIP3    H139320   4.205   2.590   3.781 -0.7317  1.8473  1.2227
 5943TIP3    H239321   4.137   2.518   3.667  2.4147  1.1814 -0.2767
 5944TIP3   OH239322   6.640   3.213  14.416  0.8140  0.5005  0.4861
 5944TIP3    H139323   6.658   3.227  14.324  0.6103 -1.5437  0.1006
 5944TIP3    H239324   6.609   3.122  14.421 -0.3012  0.9407  2.3905
 5945TIP3   OH239325   4.754   4.234  12.003  0.8188 -0.3639 -0.1958
 5945TIP3    H139326   4.802   4.161  12.042  0.1189  0.0204  1.4328
 5945TIP3    H239327   4.731   4.290  12.077  1.8441  1.8213 -1.4928
 5946TIP3   OH239328   6.323   0.591   5.615 -0.0182 -0.2564 -0.2600
 5946TIP3    H139329   6.343   0.524   5.680 -0.2851  0.0464  0.1324
 5946TIP3    H239330   6.280   0.543   5.544 -0.4094 -0.4669  0.1164
 5947TIP3   OH239331   6.320   6.066   5.317  0.4227  0.1649  0.4347
 5947TIP3    H139332   6.370   6.098   5.242  1.6834 -2.7909 -0.0696
 5947TIP3    H239333   6.326   6.137   5.381  1.1451  1.8643 -1.4446
 5948TIP3   OH239334   3.073   6.811   6.477 -0.1648 -0.0383  0.1216
 5948TIP3    H139335   3.126   6.764   6.412  1.1117  1.4668  0.0549
 5948TIP3    H239336   3.120   6.798   6.560 -1.8355 -2.0271  0.8196
 5949TIP3   OH239337   3.875   4.589   4.476 -0.2109 -0.1642 -0.2710
 5949TIP3    H139338   3.784   4.611   4.496 -0.4288 -1.3292  0.1078
 5949TIP3    H239339   3.908   4.552   4.558  0.6766  0.4993 -0.3349
 5950TIP3   OH239340   5.583   2.062  15.047 -0.4865  0.3613  0.3399
 5950TIP3    H139341   5.632   2.010  14.983 -0.9892 -0.5456  0.6765
 5950TIP3    H239342   5.491   2.046  15.026 -0.6799 -0.8042  1.9369
 5951TIP3   OH239343   2.275   3.386  14.070 -0.2269  0.5396 -0.1929
 5951TIP3    H139344   2.231   3.467  14.044 -0.6614 -0.1270 -1.5691
 5951TIP3    H239345   2.315   3.354  13.989 -0.1199 -0.6557  0.3342
 5952TIP3   OH239346   6.409   3.179  15.090 -0.7300 -0.2005  0.1769
 5952TIP3    H139347   6.464   3.257  15.104 -0.3166 -1.0223  3.4520
 5952TIP3    H239348   6.457   3.128  15.024 -1.0093  2.2628 -2.0419
 5953TIP3   OH239349   1.310   4.982   4.632  0.1497  0.4779 -0.0887
 5953TIP3    H139350   1.260   4.927   4.693  1.4932 -1.0858 -0.3682
 5953TIP3    H239351   1.246   5.045   4.599 -1.5869 -1.2676 -0.1695
 5954TIP3   OH239352   2.006   3.136  11.265 -0.2064 -0.1059 -0.4528
 5954TIP3    H139353   1.977   3.224  11.289 -0.8497 -0.0555 -1.4157
 5954TIP3    H239354   1.926   3.090  11.241 -0.0126 -1.2989  1.1111
 5955TIP3   OH239355   0.260   5.978  15.780  0.5663  0.4413  0.2103
 5955TIP3    H139356   0.266   6.070  15.805  0.9719  0.6400 -0.5951
 5955TIP3    H239357   0.351   5.951  15.767  0.4546 -0.0979  0.5196
 5956TIP3   OH239358   3.950   4.800  15.199  0.6966 -0.3737  0.1852
 5956TIP3    H139359   3.909   4.730  15.148 -0.0727 -0.8258  1.3998
 5956TIP3    H239360   4.042   4.775  15.205  0.9717  0.0794 -1.6121
 5957TIP3   OH239361   2.386   6.602   5.714 -0.2933  0.2154  0.9438
 5957TIP3    H139362   2.416   6.555   5.636 -0.0144 -0.5804  1.5149
 5957TIP3    H239363   2.292   6.584   5.717 -0.5687  1.4688 -0.0200
 5958TIP3   OH239364   3.663   1.465   0.212 -0.3678 -0.0400 -0.1955
 5958TIP3    H139365   3.599   1.394   0.217 -0.2118 -0.2270 -0.7642
 5958TIP3    H239366   3.747   1.421   0.222 -0.2608  0.0374 -0.7361
 5959TIP3   OH239367   4.151   3.461  15.417 -0.2643 -0.0061 -0.5436
 5959TIP3    H139368   4.171   3.543  15.372  0.2987 -0.8064 -1.7728
 5959TIP3    H239369   4.208   3.396  15.375 -0.8639 -1.0650  0.2654
 5960TIP3   OH239370   1.083   4.377   0.766  0.1052 -0.3064 -0.5738
 5960TIP3    H139371   1.015   4.408   0.825  2.7292  1.8595  1.4815
 5960TIP3    H239372   1.037   4.354   0.685 -3.0473  0.7868  0.8321
 5961TIP3   OH239373   6.800   6.774   2.390  0.1134  0.5145  0.0484
 5961TIP3    H139374   6.772   6.691   2.351  1.7101  0.6167 -1.3983
 5961TIP3    H239375   6.718   6.818   2.415 -0.8196 -0.8296 -0.5833
 5962TIP3   OH239376   4.871   4.343   1.923  0.1920  0.0232 -0.7239
 5962TIP3    H139377   4.790   4.292   1.926  0.0699  0.2902  1.0902
 5962TIP3    H239378   4.935   4.283   1.884 -0.3070 -1.0402  0.0403
 5963TIP3   OH239379   2.950   5.352  10.812  0.5433 -0.0567  0.2736
 5963TIP3    H139380   2.956   5.423  10.876  0.4321 -0.5818  0.8792
 5963TIP3    H239381   2.879   5.379  10.754  0.5988  0.3973  0.4089
 5964TIP3   OH239382   5.156   1.311   2.525  0.5066  0.5915  0.0775
 5964TIP3    H139383   5.073   1.304   2.477 -0.0808  2.1794  0.8002
 5964TIP3    H239384   5.202   1.384   2.483  0.5265  1.1902  1.1218
 5965TIP3   OH239385   1.460   2.499   3.934 -0.4172  0.6723 -0.2452
 5965TIP3    H139386   1.449   2.583   3.978  0.1642  0.8577 -0.4606
 5965TIP3    H239387   1.519   2.450   3.991 -0.7201  0.4236 -0.1431
 5966TIP3   OH239388   3.103   2.891  11.068 -0.0316 -0.3029  0.0278
 5966TIP3    H139389   3.050   2.949  11.122 -0.4090  1.1487 -1.8656
 5966TIP3    H239390   3.043   2.856  11.003  1.2716  1.5076 -2.2608
 5967TIP3   OH239391   0.836   6.486  13.614  0.0030  0.1469 -0.4141
 5967TIP3    H139392   0.785   6.421  13.663  0.0901 -1.1604 -1.9992
 5967TIP3    H239393   0.787   6.567  13.623  0.4890  0.1619  2.5692
 5968TIP3   OH239394   5.515   5.767  10.785 -0.0498  0.1314 -0.0406
 5968TIP3    H139395   5.453   5.713  10.737  0.7115  0.8979 -1.9171
 5968TIP3    H239396   5.590   5.710  10.800  0.5432  0.4987 -1.5641
 5969TIP3   OH239397   0.360   0.280   0.604  0.3792  0.4543 -0.0804
 5969TIP3    H139398   0.401   0.350   0.554 -1.5676  0.6189 -1.4868
 5969TIP3    H239399   0.433   0.239   0.651  2.0973  0.9415 -2.2329
 5970TIP3   OH239400   2.104   3.088   2.175  0.2192  0.2823  0.3323
 5970TIP3    H139401   2.087   3.019   2.239 -0.8689  0.9167  0.7444
 5970TIP3    H239402   2.104   3.169   2.227 -2.0698  0.9523 -0.6267
 5971TIP3   OH239403   1.211   2.059  16.918  0.6697  0.3828 -0.0914
 5971TIP3    H139404   1.284   2.116  16.943  1.2212 -0.2043 -0.3155
 5971TIP3    H239405   1.218   1.985  16.979  0.1982  0.3730 -0.0460
 5972TIP3   OH239406   5.768   2.706   0.248 -0.4215  0.7471 -0.0631
 5972TIP3    H139407   5.748   2.797   0.271  0.8236  0.8640  0.6024
 5972TIP3    H239408   5.861   2.707   0.226 -0.3423 -0.4287  0.2076
 5973TIP3   OH239409   0.537   5.759  11.557  0.0307 -0.3022 -0.1353
 5973TIP3    H139410   0.575   5.772  11.470  3.1758 -0.9668  1.0739
 5973TIP3    H239411   0.581   5.823  11.612 -0.3130 -1.3758  1.4006
 5974TIP3   OH239412   0.027   4.048  11.604 -0.3430 -0.0267 -0.8571
 5974TIP3    H139413   0.074   4.079  11.526  0.8453  0.7560  0.1683
 5974TIP3    H239414  -0.061   4.086  11.595 -0.4611 -0.5874 -2.2118
 5975TIP3   OH239415   3.474   5.173  12.137  0.1736  0.3346  0.1512
 5975TIP3    H139416   3.417   5.148  12.064  0.7002 -0.1952 -0.0849
 5975TIP3    H239417   3.557   5.196  12.095  0.9747 -1.4964  0.6955
 5976TIP3   OH239418   3.922   2.684  15.301 -0.2460 -0.7430 -0.1046
 5976TIP3    H139419   3.835   2.686  15.261  0.4441 -1.5737 -1.6567
 5976TIP3    H239420   3.936   2.774  15.333 -1.0849 -0.2555 -1.0948
 5977TIP3   OH239421   2.316   6.346   3.488 -0.3066  0.2720 -0.2877
 5977TIP3    H139422   2.408   6.342   3.515  0.0809 -0.7958 -1.7133
 5977TIP3    H239423   2.268   6.303   3.559  0.7147 -2.6298 -1.3006
 5978TIP3   OH239424   3.663   6.042   4.445  0.2985  0.1036 -0.2005
 5978TIP3    H139425   3.727   6.080   4.506  1.0059 -1.4622  0.0875
 5978TIP3    H239426   3.714   5.976   4.397 -0.3795  0.9911 -2.1420
 5979TIP3   OH239427   3.453   6.533  12.430 -0.2636 -0.1842  0.0106
 5979TIP3    H139428   3.518   6.553  12.498 -0.4005 -0.7851  0.3304
 5979TIP3    H239429   3.500   6.543  12.348 -0.1315  0.6908  0.1862
 5980TIP3   OH239430   0.739   4.031   0.165 -0.8538  0.2802 -0.6947
 5980TIP3    H139431   0.811   4.094   0.155  0.9985 -1.8316 -0.9740
 5980TIP3    H239432   0.782   3.946   0.169 -3.2757 -0.9372  0.3786
 5981TIP3   OH239433   1.320   3.013  14.024  0.2086  0.6359 -0.9286
 5981TIP3    H139434   1.315   3.007  13.929  0.6683 -0.8419 -0.8598
 5981TIP3    H239435   1.240   3.060  14.049  0.0987  1.0452 -2.0317
 5982TIP3   OH239436   0.762   6.436  11.301 -0.1429 -0.7398  0.4715
 5982TIP3    H139437   0.722   6.412  11.384 -2.1475  0.3968 -0.1363
 5982TIP3    H239438   0.840   6.487  11.326 -1.7315  1.1811  1.6723
 5983TIP3   OH239439   6.583   6.235  15.464 -0.0127 -0.6200 -0.1809
 5983TIP3    H139440   6.526   6.288  15.520 -0.1750 -0.4340 -0.5214
 5983TIP3    H239441   6.544   6.148  15.466  1.2014 -1.1564  1.7433
 5984TIP3   OH239442   3.547   1.374  11.845 -0.0458 -0.2603  0.6225
 5984TIP3    H139443   3.532   1.402  11.755 -1.5627  0.8622  1.1906
 5984TIP3    H239444   3.643   1.374  11.855  0.1725 -1.7029 -1.3618
 5985TIP3   OH239445   3.232   2.954  13.094 -0.1790  0.2288  0.4244
 5985TIP3    H139446   3.239   2.884  13.159  0.4437  1.1626  1.3836
 5985TIP3    H239447   3.320   2.992  13.090 -0.9854  2.3117  1.4757
 5986TIP3   OH239448   0.716   3.061  11.391 -0.2546  0.0572  0.1161
 5986TIP3    H139449   0.641   3.109  11.357 -0.1676  2.3958  3.1073
 5986TIP3    H239450   0.791   3.117  11.371  0.6592 -1.8441 -2.0437
 5987TIP3   OH239451   1.439   5.265  12.891 -0.4603  0.0316 -0.7369
 5987TIP3    H139452   1.501   5.337  12.900 -1.2544  0.8097 -1.3914
 5987TIP3    H239453   1.353   5.304  12.907 -0.7896 -1.0324  0.1595
 5988TIP3   OH239454   4.504   5.532  13.486  0.0967 -0.0548  0.5388
 5988TIP3    H139455   4.527   5.486  13.567 -1.9008 -0.0401  1.1411
 5988TIP3    H239456   4.410   5.517  13.475  0.6875 -1.7213 -2.8580
 5989TIP3   OH239457   1.072   6.357  13.631 -0.1661 -0.5422 -0.1832
 5989TIP3    H139458   1.133   6.431  13.634  1.0814 -1.5469 -0.3751
 5989TIP3    H239459   0.989   6.396  13.603  0.2996  0.8905  0.3627
 5990TIP3   OH239460   6.153   6.569  16.997  0.5877  0.0108  0.1379
 5990TIP3    H139461   6.166   6.483  16.955  1.4937 -0.5801  1.6094
 5990TIP3    H239462   6.233   6.617  16.978  0.4006  0.2615 -0.0241
 5991TIP3   OH239463   4.772   1.051  15.287  0.1576 -0.4148 -0.2650
 5991TIP3    H139464   4.777   1.052  15.191  1.9405 -1.5587 -0.2030
 5991TIP3    H239465   4.681   1.028  15.305 -0.5166  1.0273 -1.6653
 5992TIP3   OH239466   4.381   0.372  11.476  0.6077  0.8167 -0.0847
 5992TIP3    H139467   4.394   0.433  11.403  1.2333  1.3748  0.4953
 5992TIP3    H239468   4.288   0.381  11.498  1.2546  3.5122  1.7111
 5993TIP3   OH239469   5.517   1.392  13.369  0.1613  0.1122 -0.2377
 5993TIP3    H139470   5.505   1.301  13.397  0.2605  0.6703  1.7243
 5993TIP3    H239471   5.562   1.386  13.285  0.7218 -1.6553  0.1656
 5994TIP3   OH239472   1.325   4.043  12.627  0.1042  0.0986  0.1291
 5994TIP3    H139473   1.341   4.137  12.628  0.8441 -0.0233  0.1099
 5994TIP3    H239474   1.258   4.029  12.694  0.7245  0.5050  0.8439
 5995TIP3   OH239475   2.159   0.178  11.773 -0.2326  0.3978 -0.1463
 5995TIP3    H139476   2.076   0.161  11.727 -0.6698 -0.0530  0.7988
 5995TIP3    H239477   2.226   0.151  11.711 -0.7573  1.5320 -1.2502
 5996TIP3   OH239478   2.889   2.203   5.522  0.1497 -0.2226 -0.4583
 5996TIP3    H139479   2.904   2.144   5.596 -0.4912  0.5194  0.2868
 5996TIP3    H239480   2.972   2.204   5.474  0.8565 -0.0719  0.7327
 5997TIP3   OH239481   1.078   2.551  14.826 -0.2835  0.1055 -0.1900
 5997TIP3    H139482   1.023   2.557  14.904 -0.4075 -1.4680 -0.1459
 5997TIP3    H239483   1.136   2.476  14.843 -0.2532 -0.1944 -1.5753
 5998TIP3   OH239484   4.499   3.073  15.776  0.4203  0.4992  0.2917
 5998TIP3    H139485   4.505   3.160  15.817  0.5538 -0.3254  2.0599
 5998TIP3    H239486   4.415   3.038  15.807  0.4509 -0.0904 -0.2801
 5999TIP3   OH239487   4.465   5.812  12.276  0.5191  0.4790 -0.1584
 5999TIP3    H139488   4.482   5.883  12.215 -1.9371  1.2193 -0.0427
 5999TIP3    H239489   4.476   5.732  12.225 -1.1605  1.0824 -1.5090
 6000TIP3   OH239490   5.359   3.139  12.768 -0.2358  0.2439 -0.2381
 6000TIP3    H139491   5.299   3.190  12.713 -1.2231 -0.9821 -0.3326
 6000TIP3    H239492   5.400   3.203  12.826  0.5894  1.5174 -2.1994
 6001TIP3   OH239493   3.462   1.851   3.815 -0.1710  0.5536 -0.1240
 6001TIP3    H139494   3.395   1.917   3.833 -0.2052  0.3090  0.6662
 6001TIP3    H239495   3.544   1.899   3.820 -0.1433  0.3676  1.3077
 6002TIP3   OH239496   2.701   1.689   4.012 -0.1916 -0.6488  0.4266
 6002TIP3    H139497   2.698   1.664   3.920  0.7511 -0.9668  0.4825
 6002TIP3    H239498   2.790   1.722   4.026 -0.1229 -1.2206  1.3819
 6003TIP3   OH239499   6.151   4.727  17.026  0.1907  0.1467 -0.8310
 6003TIP3    H139500   6.217   4.704  17.092  0.6760  0.1277 -1.3199
 6003TIP3    H239501   6.200   4.774  16.959 -0.0589 -0.9405 -1.7934
 6004TIP3   OH239502   0.041   2.320   6.871  0.3284 -0.2048 -0.0420
 6004TIP3    H139503   0.107   2.251   6.863  0.6411  0.1751 -0.7314
 6004TIP3    H239504   0.050   2.371   6.791  0.1189  0.6636  0.4897
 6005TIP3   OH239505   6.137   0.090  16.135  0.1295 -0.1559 -0.4282
 6005TIP3    H139506   6.168   0.001  16.152 -2.8086 -0.9197  1.2060
 6005TIP3    H239507   6.202   0.127  16.075  1.7561 -3.1554 -0.5932
 6006TIP3   OH239508   2.738   5.830  16.119 -0.1711  0.1830 -0.5869
 6006TIP3    H139509   2.708   5.755  16.170 -0.9264  0.0772 -1.1734
 6006TIP3    H239510   2.812   5.865  16.169 -1.6798  0.8611  1.2635
 6007TIP3   OH239511   2.039   5.153  11.359  0.5097 -0.1877  0.2978
 6007TIP3    H139512   2.028   5.109  11.443  0.3894 -0.5221  0.1035
 6007TIP3    H239513   2.099   5.098  11.310  0.6971  0.0852  0.2169
 6008TIP3   OH239514   0.617   6.651  16.460  0.2825  0.1413  0.0732
 6008TIP3    H139515   0.600   6.686  16.373  0.6431  1.5235  0.5391
 6008TIP3    H239516   0.655   6.725  16.508  1.0434 -0.8952  1.0937
 6009TIP3   OH239517   0.595   0.057  10.732 -0.5944  0.0222  0.5891
 6009TIP3    H139518   0.587  -0.011  10.666  3.0554  0.8297 -0.7835
 6009TIP3    H239519   0.569   0.138  10.687  0.5748  0.3680  0.5228
 6010TIP3   OH239520   5.536   0.011  15.810 -0.0738  0.0247  0.1522
 6010TIP3    H139521   5.592  -0.039  15.869 -1.1734 -0.1533  1.0561
 6010TIP3    H239522   5.595   0.073  15.767  0.6914  0.3464  1.6502
 6011TIP3   OH239523   1.818   3.051   0.042  0.5172  0.7791 -0.0976
 6011TIP3    H139524   1.865   2.968   0.053  0.5624  0.8090 -0.0683
 6011TIP3    H239525   1.862   3.112   0.101 -0.5905  0.3829  1.1756
 6012TIP3   OH239526   2.939   2.203   2.947 -0.1565  0.2843 -0.3126
 6012TIP3    H139527   2.881   2.209   3.023  0.9605 -1.2705  0.7187
 6012TIP3    H239528   2.938   2.290   2.908 -1.5098  0.8402  0.9121
 6013TIP3   OH239529   3.347   1.285   5.554 -0.7431  0.4330  0.4186
 6013TIP3    H139530   3.399   1.205   5.567 -1.0031  0.2420  0.3019
 6013TIP3    H239531   3.397   1.335   5.489 -0.6962  0.2552  0.3139
 6014TIP3   OH239532   1.711   4.668  10.882  0.4788 -0.6228 -0.0359
 6014TIP3    H139533   1.786   4.646  10.828 -0.4452 -0.7614 -1.3009
 6014TIP3    H239534   1.637   4.626  10.839 -0.2522 -0.9517  1.4940
 6015TIP3   OH239535   2.879   5.569   0.411  0.5323  0.1252  0.5424
 6015TIP3    H139536   2.817   5.620   0.463 -1.7900 -1.5362 -0.5021
 6015TIP3    H239537   2.826   5.501   0.370  3.3122 -2.2531  0.7179
 6016TIP3   OH239538   2.151   3.553  11.704  0.2497 -0.0345  0.0735
 6016TIP3    H139539   2.186   3.534  11.618 -0.8933  0.1046 -0.4348
 6016TIP3    H239540   2.102   3.475  11.728  0.2540  0.0725  0.4318
 6017TIP3   OH239541   3.767   3.577   2.171 -0.7250  0.1431 -0.0435
 6017TIP3    H139542   3.846   3.629   2.187 -1.0538 -0.1750  2.9734
 6017TIP3    H239543   3.724   3.572   2.257 -2.2939 -2.4756 -0.9221
 6018TIP3   OH239544   6.614   4.479  12.166 -0.6714 -0.2725  0.7072
 6018TIP3    H139545   6.640   4.403  12.114  2.3185  2.0048 -1.2929
 6018TIP3    H239546   6.680   4.484  12.236  0.3161  1.5780 -0.3325
 6019TIP3   OH239547   5.328   0.434  13.002 -0.1864  0.4572  0.1588
 6019TIP3    H139548   5.381   0.497  13.051 -0.4528  0.8230 -0.0170
 6019TIP3    H239549   5.270   0.488  12.948 -1.2721  0.0705  0.9160
 6020TIP3   OH239550   4.854   4.450  13.426 -0.2111  0.1060 -0.3438
 6020TIP3    H139551   4.946   4.429  13.413 -0.2129  0.3755 -0.7750
 6020TIP3    H239552   4.851   4.489  13.514  0.3733  1.8174 -1.0603
 6021TIP3   OH239553   0.352   5.790  10.915 -0.2457 -0.0070  0.6364
 6021TIP3    H139554   0.408   5.722  10.877  0.9993  0.8852  0.8284
 6021TIP3    H239555   0.376   5.870  10.867  1.0488  1.0545  2.9886
 6022TIP3   OH239556   3.856   6.781  12.215  0.2415 -0.2076  0.1522
 6022TIP3    H139557   3.783   6.792  12.153  1.0179  0.2610 -0.7032
 6022TIP3    H239558   3.829   6.830  12.292  0.4578  1.5917 -0.8785
 6023TIP3   OH239559   6.316   2.489   1.992 -0.2341  0.0753 -0.1242
 6023TIP3    H139560   6.242   2.493   2.053  0.6989 -0.0772  1.0308
 6023TIP3    H239561   6.383   2.545   2.031  1.4285 -2.2393  0.4694
 6024TIP3   OH239562   3.661   4.326   5.589  0.5863  0.5327 -0.0501
 6024TIP3    H139563   3.570   4.336   5.619  0.9056  0.8385  0.8349
 6024TIP3    H239564   3.695   4.415   5.583  1.0423  0.3865  0.3031
 6025TIP3   OH239565   1.706   0.061   2.410  0.2099 -0.4704  0.1900
 6025TIP3    H139566   1.678   0.034   2.497  2.8954  0.6780  1.4629
 6025TIP3    H239567   1.657   0.141   2.392 -0.1368 -0.5501  0.7920
 6026TIP3   OH239568   3.803   4.246   1.780 -0.5837 -0.0717 -0.4664
 6026TIP3    H139569   3.811   4.174   1.841  1.5582 -0.4987 -1.2116
 6026TIP3    H239570   3.779   4.205   1.697 -1.4933  0.3090 -0.4034
 6027TIP3   OH239571   1.739   4.538   1.610 -0.5300 -0.6132  0.7022
 6027TIP3    H139572   1.680   4.490   1.668 -0.3053 -2.2774 -0.4194
 6027TIP3    H239573   1.739   4.487   1.528  0.1847  0.9690 -0.3008
 6028TIP3   OH239574   3.012   4.075   1.571 -0.4002 -0.0825 -0.0285
 6028TIP3    H139575   2.923   4.059   1.602 -0.8835  0.0198 -1.3470
 6028TIP3    H239576   3.012   4.167   1.546 -0.4798 -0.5736 -1.8534
 6029TIP3   OH239577   3.306   0.335   5.982 -0.5477  0.2511 -0.2783
 6029TIP3    H139578   3.276   0.316   6.071 -3.3615  0.0693 -1.2036
 6029TIP3    H239579   3.306   0.430   5.977 -1.3386  0.2526 -0.3659
 6030TIP3   OH239580   0.159   4.122  13.388 -0.0368  0.1524 -0.3073
 6030TIP3    H139581   0.182   4.142  13.479  0.7990 -0.8830 -0.2726
 6030TIP3    H239582   0.124   4.033  13.392  1.3663 -0.4501 -1.1944
 6031TIP3   OH239583   6.664   5.176   2.728  0.5364  0.2563  0.4201
 6031TIP3    H139584   6.586   5.132   2.761  1.1972 -1.2380 -0.0067
 6031TIP3    H239585   6.647   5.190   2.635  0.1155  1.3856  0.6551
 6032TIP3   OH239586   5.595   6.194   4.502  0.8855  0.2673 -0.4454
 6032TIP3    H139587   5.638   6.220   4.584 -0.4468  0.9076  0.0636
 6032TIP3    H239588   5.553   6.274   4.471 -0.9820 -0.6248 -0.2827
 6033TIP3   OH239589   0.756   0.277  10.784 -0.0747  0.3149  0.5575
 6033TIP3    H139590   0.815   0.314  10.719  2.7755 -2.6662  1.2777
 6033TIP3    H239591   0.735   0.190  10.750 -0.4491 -0.3648  2.4504
 6034TIP3   OH239592   0.340   5.821  14.521  0.0999  0.1522  0.2569
 6034TIP3    H139593   0.286   5.845  14.446  1.1654  0.8767 -0.2919
 6034TIP3    H239594   0.303   5.739  14.553 -0.7417  0.1674 -0.6772
 6035TIP3   OH239595   1.320   2.806   4.497 -0.0172 -0.9267 -0.8763
 6035TIP3    H139596   1.254   2.874   4.510  1.8042  0.8904 -0.7823
 6035TIP3    H239597   1.335   2.770   4.584  0.6347  0.1392 -0.5405
 6036TIP3   OH239598   6.128   1.500   4.292  0.4897 -0.3069 -0.1236
 6036TIP3    H139599   6.217   1.497   4.257  0.3713 -1.8539 -0.3434
 6036TIP3    H239600   6.080   1.433   4.243 -0.7568  0.3801  0.1176
 6037TIP3   OH239601   2.814   6.519   4.242  0.1990 -0.4153 -0.0685
 6037TIP3    H139602   2.791   6.486   4.155  0.1616  1.6672 -0.8812
 6037TIP3    H239603   2.746   6.583   4.263  0.8394 -0.0631  0.9932
 6038TIP3   OH239604   1.506   0.540  14.458 -0.4128  0.4949  0.2051
 6038TIP3    H139605   1.597   0.512  14.468 -0.0056  0.8519 -2.1615
 6038TIP3    H239606   1.511   0.635  14.442 -1.3721  0.9132  2.1696
 6039TIP3   OH239607   0.858   0.731  16.830 -0.5586  0.3953  0.1146
 6039TIP3    H139608   0.803   0.658  16.801 -0.6660  0.1553  0.8988
 6039TIP3    H239609   0.833   0.804  16.774 -0.4867 -0.1552 -0.6462
 6040TIP3   OH239610   1.245   5.140   1.816  0.0175  0.0168  0.0124
 6040TIP3    H139611   1.184   5.181   1.754  0.0864 -3.7630 -2.7243
 6040TIP3    H239612   1.330   5.176   1.792 -0.5967  2.6062  1.5036
 6041TIP3   OH239613   4.309   4.973  14.563 -0.0191  0.7329  0.0054
 6041TIP3    H139614   4.222   4.966  14.524 -0.0116  0.0677  0.0906
 6041TIP3    H239615   4.359   5.024  14.500  0.1244 -0.7453 -1.1253
 6042TIP3   OH239616   3.851   4.376   2.024 -0.1204 -0.0063  0.2100
 6042TIP3    H139617   3.806   4.341   1.947  2.5833 -1.9974 -0.5461
 6042TIP3    H239618   3.944   4.357   2.008  0.3865 -1.5865  4.5245
 6043TIP3   OH239619   3.984   4.666  16.188  0.2001  0.2334  0.0256
 6043TIP3    H139620   4.019   4.654  16.100  1.6088  0.5945  0.5244
 6043TIP3    H239621   3.891   4.645  16.179 -0.2101  2.6379 -2.0941
 6044TIP3   OH239622   3.333   4.938  16.099  0.5319  0.3036 -0.2422
 6044TIP3    H139623   3.246   4.976  16.107 -0.1045 -1.2424  0.5241
 6044TIP3    H239624   3.387   4.987  16.161  0.5413  2.1378 -1.6695
 6045TIP3   OH239625   0.198   0.872  15.156  0.4015  0.2174  0.0690
 6045TIP3    H139626   0.271   0.812  15.172  1.4701  1.2262 -0.8164
 6045TIP3    H239627   0.232   0.931  15.088 -0.8795  1.3557  0.4120
 6046TIP3   OH239628   1.894   4.434  14.470 -0.2759 -0.3783  0.1917
 6046TIP3    H139629   1.809   4.409  14.433 -0.4430  0.6059 -0.0895
 6046TIP3    H239630   1.948   4.355  14.460 -0.9137 -0.7559 -0.3489
 6047TIP3   OH239631   2.399   1.422  11.802 -0.3431  0.1025 -0.1196
 6047TIP3    H139632   2.427   1.334  11.777 -4.4000 -1.3982  0.2136
 6047TIP3    H239633   2.310   1.429  11.768  0.7733  5.1142 -2.3748
 6048TIP3   OH239634   3.340   3.249  12.993  0.5302 -0.5148  0.4282
 6048TIP3    H139635   3.367   3.338  12.972 -0.5515 -0.4977 -0.9901
 6048TIP3    H239636   3.308   3.254  13.082  0.8874  0.4244  0.5112
 6049TIP3   OH239637   4.217   5.419  13.977 -0.2456 -0.4020  0.2749
 6049TIP3    H139638   4.140   5.401  14.030  0.0934 -1.3496  0.4611
 6049TIP3    H239639   4.232   5.513  13.987 -0.6558 -0.4307  1.2110
 6050TIP3   OH239640   6.797   2.512   6.590  0.1193  0.3023 -0.4704
 6050TIP3    H139641   6.889   2.522   6.615  0.7165  0.3209 -2.5505
 6050TIP3    H239642   6.749   2.567   6.652  1.4707 -0.0731  0.9190
 6051TIP3   OH239643   4.022   4.963  14.955  0.3709 -0.1111 -0.1530
 6051TIP3    H139644   4.063   4.957  15.041  0.7311 -1.0848 -0.3793
 6051TIP3    H239645   3.947   5.021  14.967 -0.3983 -1.3664  1.1273
 6052TIP3   OH239646   3.433   3.488   0.874  0.3858  0.1261  0.4571
 6052TIP3    H139647   3.454   3.416   0.815  0.6965  0.7619 -0.2154
 6052TIP3    H239648   3.337   3.490   0.876  0.3480 -1.3648  1.8012
 6053TIP3   OH239649   1.629   2.351  13.000 -0.1605 -0.4662  0.4894
 6053TIP3    H139650   1.639   2.328  13.092  0.8569 -1.5625  0.1147
 6053TIP3    H239651   1.718   2.361  12.967 -0.5326  1.7215  0.0503
 6054TIP3   OH239652   5.984   3.690   1.961 -0.3695 -0.1690 -0.5335
 6054TIP3    H139653   5.988   3.732   2.047 -0.9534 -0.1166 -0.5346
 6054TIP3    H239654   6.000   3.761   1.899  1.0661 -0.3820 -0.4312
 6055TIP3   OH239655   4.329   4.158  17.079  1.1614 -0.4913  0.0337
 6055TIP3    H139656   4.269   4.124  17.012  0.8537  0.2427 -0.0679
 6055TIP3    H239657   4.409   4.179  17.032  1.4424 -1.3131  0.1379
 6056TIP3   OH239658   0.990   3.317  11.916  0.6322  0.4333 -0.1954
 6056TIP3    H139659   0.920   3.287  11.858 -0.4730  0.0576  1.2937
 6056TIP3    H239660   1.024   3.395  11.873  1.0782 -0.8357 -2.2627
 6057TIP3   OH239661   6.258   0.416   2.885 -0.0220 -0.1609  1.0018
 6057TIP3    H139662   6.266   0.418   2.790 -0.9739  0.3291  0.9335
 6057TIP3    H239663   6.277   0.506   2.912 -0.3815 -0.1518  1.2245
 6058TIP3   OH239664   0.200   6.799   3.735 -0.3247 -0.1583  0.2251
 6058TIP3    H139665   0.245   6.718   3.761 -1.1167  0.0442  2.3322
 6058TIP3    H239666   0.260   6.841   3.673  1.4143 -0.9649  1.3245
 6059TIP3   OH239667   6.392   5.268   4.855 -0.1607  0.4470 -0.3217
 6059TIP3    H139668   6.472   5.225   4.827 -1.7578 -2.1439 -1.1271
 6059TIP3    H239669   6.379   5.339   4.792 -0.5545 -1.6114 -2.6561
 6060TIP3   OH239670   2.480   5.153  15.295 -0.0517  0.6263  0.0618
 6060TIP3    H139671   2.531   5.089  15.245 -2.0239 -0.1852 -0.9435
 6060TIP3    H239672   2.389   5.127  15.282 -0.7830  2.5231  1.1917
 6061TIP3   OH239673   1.698   0.471  16.560 -0.3161  0.5081  0.0123
 6061TIP3    H139674   1.701   0.408  16.488 -1.2522  1.6240 -1.0351
 6061TIP3    H239675   1.705   0.418  16.639 -1.3041 -0.9290 -0.8421
 6062TIP3   OH239676   4.682   1.981  11.538 -0.0922 -0.5377 -0.5972
 6062TIP3    H139677   4.699   2.070  11.569 -0.2290 -0.9938  0.8184
 6062TIP3    H239678   4.741   1.969  11.464  0.1856  0.5981 -0.5606
 6063TIP3   OH239679   0.573   5.354   4.797 -0.2344  0.3056  0.0964
 6063TIP3    H139680   0.556   5.443   4.828 -0.4690 -0.2411  1.5424
 6063TIP3    H239681   0.653   5.362   4.745 -0.2009  1.3336  0.2942
 6064TIP3   OH239682   0.893   3.966  13.105  0.6874  0.4897 -0.0743
 6064TIP3    H139683   0.914   4.022  13.180 -2.2020  0.1699  1.0677
 6064TIP3    H239684   0.800   3.983  13.088  0.7643 -1.0475 -2.2162
 6065TIP3   OH239685   4.955   4.179  13.981 -0.7634  0.2929 -0.6745
 6065TIP3    H139686   4.873   4.221  13.956 -1.1122  0.2963  0.4216
 6065TIP3    H239687   4.927   4.098  14.025 -0.3096  1.6591  2.2363
 6066TIP3   OH239688   6.609   1.896   2.268  0.1743  0.2782 -0.5674
 6066TIP3    H139689   6.605   1.925   2.177  0.8614 -0.4203 -0.8246
 6066TIP3    H239690   6.614   1.977   2.319  1.8491  0.6283 -1.2582
 6067TIP3   OH239691   6.406   4.283   6.097  1.2224  0.0082  0.3742
 6067TIP3    H139692   6.430   4.205   6.148  1.0183  0.9517  1.9381
 6067TIP3    H239693   6.479   4.343   6.109  1.1718  0.2303 -0.4492
 6068TIP3   OH239694   0.118   0.911  11.069 -0.1073 -0.0058 -0.1501
 6068TIP3    H139695   0.160   0.910  10.983 -0.6402 -1.6396 -0.4061
 6068TIP3    H239696   0.032   0.871  11.055 -0.9488  1.4206  0.7808
 6069TIP3   OH239697   0.385   5.127   3.962 -0.0922 -0.4721 -0.8294
 6069TIP3    H139698   0.385   5.043   3.917 -0.3078 -0.7376 -0.3317
 6069TIP3    H239699   0.394   5.105   4.054 -0.5475  0.0314 -0.6639
 6070TIP3   OH239700   1.522   2.682   5.500  0.9446  0.6203 -0.4067
 6070TIP3    H139701   1.454   2.641   5.554 -0.3724 -0.9544 -3.1919
 6070TIP3    H239702   1.603   2.638   5.525  0.2548 -0.5233 -0.1853
 6071TIP3   OH239703   2.015   3.884   2.335 -0.6174 -0.4555 -0.2352
 6071TIP3    H139704   1.964   3.955   2.297 -0.0060 -0.0762 -0.3493
 6071TIP3    H239705   2.092   3.877   2.279  1.5888  1.8250  2.3326
 6072TIP3   OH239706   6.338   1.028   5.307  0.3333  1.1262 -0.0493
 6072TIP3    H139707   6.390   1.014   5.386  2.5956  0.3638 -1.6223
 6072TIP3    H239708   6.303   0.942   5.285  0.9963  1.0408 -0.7626
 6073TIP3   OH239709   4.969   5.444  12.984  0.2213 -0.2165  0.3055
 6073TIP3    H139710   5.042   5.453  13.044 -0.0432  1.5687  0.3784
 6073TIP3    H239711   4.891   5.458  13.039  0.0064  2.2422 -0.5513
 6074TIP3   OH239712   1.937   3.610  13.429  0.2341 -0.0675  0.1498
 6074TIP3    H139713   1.902   3.535  13.381 -2.7858  1.6285 -0.4072
 6074TIP3    H239714   1.958   3.674  13.361 -1.4282  1.2732  0.8541
 6075TIP3   OH239715   6.282   1.741  12.456 -0.0940 -0.1236  0.4704
 6075TIP3    H139716   6.292   1.652  12.423 -1.6082 -1.1702  2.7189
 6075TIP3    H239717   6.349   1.791  12.411  0.7645 -2.3975 -0.8460
 6076TIP3   OH239718   2.875   3.511  14.207  0.1587  0.2684  0.0744
 6076TIP3    H139719   2.788   3.493  14.172 -0.0989 -0.6808  1.1765
 6076TIP3    H239720   2.926   3.433  14.185  0.3121  0.1719  0.7490
 6077TIP3   OH239721   2.553   6.392  11.976 -0.3876  0.3176 -0.0879
 6077TIP3    H139722   2.597   6.476  11.991 -0.9407  0.9931 -2.0942
 6077TIP3    H239723   2.488   6.411  11.909 -1.7471 -1.3299  0.7363
 6078TIP3   OH239724   5.416   4.225  14.882 -0.2638 -0.0121 -0.1548
 6078TIP3    H139725   5.366   4.307  14.885 -0.8550 -0.3940  0.5645
 6078TIP3    H239726   5.359   4.160  14.923 -0.1565 -0.9846 -1.4876
 6079TIP3   OH239727   6.214   2.351  13.295  0.1251  0.4547  0.1182
 6079TIP3    H139728   6.152   2.336  13.224 -0.0480  1.7310 -0.0248
 6079TIP3    H239729   6.285   2.290  13.279 -0.6076 -0.2877 -0.3163
 6080TIP3   OH239730   3.383   2.131   2.435 -0.1969 -0.0242 -0.5602
 6080TIP3    H139731   3.337   2.203   2.393 -0.0155 -0.6133 -1.8104
 6080TIP3    H239732   3.454   2.109   2.374  1.1849  0.2864  0.9174
 6081TIP3   OH239733   6.548   2.976  14.074 -0.0635  0.0839 -0.3952
 6081TIP3    H139734   6.620   2.973  14.010  0.3304  0.5694  0.0251
 6081TIP3    H239735   6.583   2.930  14.151  0.1089  1.0984  0.1283
 6082TIP3   OH239736   2.881   3.907   6.429 -0.3485  0.1763  0.3875
 6082TIP3    H139737   2.837   3.824   6.447 -0.2777 -0.0487 -0.4576
 6082TIP3    H239738   2.969   3.896   6.465 -0.4190 -0.0223  0.5000
 6083TIP3   OH239739   3.387   2.369  12.000 -0.3112 -1.0350 -0.4469
 6083TIP3    H139740   3.356   2.280  11.988 -0.6698 -1.0138  0.3148
 6083TIP3    H239741   3.331   2.406  12.069  0.8476 -0.7375  0.3695
 6084TIP3   OH239742   5.018   6.446  13.212 -0.2979 -0.6067 -0.6543
 6084TIP3    H139743   5.066   6.382  13.264  0.2473 -0.2792 -0.7501
 6084TIP3    H239744   5.023   6.528  13.262 -0.1289 -0.3942 -1.0166
 6085TIP3   OH239745   2.960   2.179  11.846  0.6028  0.7945  0.7167
 6085TIP3    H139746   2.956   2.096  11.800  1.1670  0.9107  0.4494
 6085TIP3    H239747   3.041   2.220  11.814 -0.0045  1.7261  0.3549
 6086TIP3   OH239748   4.191   0.308   1.990 -0.2844  0.2377 -0.1356
 6086TIP3    H139749   4.253   0.367   2.032 -0.0275 -1.4755  1.9607
 6086TIP3    H239750   4.105   0.348   2.007 -0.2205 -0.6664  2.4576
 6087TIP3   OH239751   4.020   0.710  14.470 -0.9334  0.1364 -0.1843
 6087TIP3    H139752   4.095   0.752  14.428 -0.0540  0.8516  2.0312
 6087TIP3    H239753   4.057   0.634  14.515 -1.3833  0.9365  1.5703
 6088TIP3   OH239754   6.418   2.952  15.255 -0.1556  0.4200 -0.0912
 6088TIP3    H139755   6.400   2.887  15.187 -1.0748  0.9917 -0.4181
 6088TIP3    H239756   6.461   3.024  15.208 -0.9664  0.8988 -0.1119
 6089TIP3   OH239757   6.795   6.810  17.073 -0.4825  0.4280  0.2775
 6089TIP3    H139758   6.753   6.743  17.127 -0.9525  1.5474  1.3423
 6089TIP3    H239759   6.737   6.886  17.080  0.0507  0.9580 -0.8933
 6090TIP3   OH239760   4.796   6.405  13.463  0.2257  0.2478  0.1460
 6090TIP3    H139761   4.778   6.499  13.465 -0.7417  0.0819 -0.2924
 6090TIP3    H239762   4.816   6.382  13.553 -3.4833  0.1390  1.0324
 6091TIP3   OH239763   1.926   1.629  11.597 -0.0924 -0.3123  0.4442
 6091TIP3    H139764   1.934   1.724  11.593  0.6629 -0.4108 -0.6059
 6091TIP3    H239765   1.835   1.611  11.573  0.0049  0.1001 -0.2379
 6092TIP3   OH239766   6.542   0.077   2.433 -0.5163 -0.8448  0.5551
 6092TIP3    H139767   6.523   0.135   2.359 -0.7804  0.0746  1.3391
 6092TIP3    H239768   6.471   0.093   2.495  1.6450  1.0669  2.6020
 6093TIP3   OH239769   0.366   5.508   5.046 -0.2485  0.2371  0.2212
 6093TIP3    H139770   0.303   5.522   5.117 -0.4660 -0.0742  0.0868
 6093TIP3    H239771   0.387   5.415   5.050 -0.2657  0.2169 -0.1313
 6094TIP3   OH239772   0.912   3.721  15.679  0.0338 -0.0385 -0.1996
 6094TIP3    H139773   0.826   3.724  15.721 -0.2121 -2.6451 -0.3972
 6094TIP3    H239774   0.894   3.733  15.586 -0.2394 -1.3459 -0.3315
 6095TIP3   OH239775   1.532   6.807  13.393  0.8931 -0.1033  0.3182
 6095TIP3    H139776   1.548   6.717  13.365  2.7344 -0.5642  2.6961
 6095TIP3    H239777   1.471   6.799  13.466  2.0693  0.4653  1.3733
 6096TIP3   OH239778   0.748   1.359  17.058 -0.1330  0.1417  0.1321
 6096TIP3    H139779   0.722   1.351  16.966 -1.6228 -2.2682  0.7147
 6096TIP3    H239780   0.665   1.373  17.105  0.1050 -2.6257  1.4949
 6097TIP3   OH239781   5.557   6.798  11.302 -0.4609  0.0841 -0.1249
 6097TIP3    H139782   5.525   6.877  11.257 -1.0814 -0.7384 -1.1343
 6097TIP3    H239783   5.650   6.794  11.278 -0.1960  1.0115  0.6853
 6098TIP3   OH239784   2.765   4.093   2.027  0.3602 -0.1023  0.5214
 6098TIP3    H139785   2.721   4.034   2.089  2.2345 -0.5558  1.4647
 6098TIP3    H239786   2.696   4.119   1.965 -0.9529 -1.7124  1.2626
 6099TIP3   OH239787   3.272   2.535  15.390  0.5326 -0.0307 -0.0130
 6099TIP3    H139788   3.287   2.502  15.479 -2.4095 -0.9450  0.2068
 6099TIP3    H239789   3.257   2.629  15.401 -0.2804 -0.2152  0.5521
 6100TIP3   OH239790   0.900   3.007  13.953 -0.4702 -0.4196 -0.4415
 6100TIP3    H139791   0.811   3.031  13.979 -0.3307 -0.2282 -0.1336
 6100TIP3    H239792   0.952   3.085  13.971 -0.2628 -0.4863 -0.7482
 6101TIP3   OH239793   6.563   5.969  13.844 -0.1597 -0.4428  0.1880
 6101TIP3    H139794   6.604   5.987  13.759 -2.2055 -0.8616 -0.9363
 6101TIP3    H239795   6.536   6.055  13.876 -0.1131 -0.3635  0.0198
 6102TIP3   OH239796   2.249   6.685   1.650 -0.3074 -0.2014  0.0959
 6102TIP3    H139797   2.328   6.631   1.657 -1.2179 -1.8250 -1.6479
 6102TIP3    H239798   2.178   6.627   1.678 -0.8278  1.5036  2.4376
 6103TIP3   OH239799   2.820   6.327   0.130 -0.0797  0.4184 -0.2833
 6103TIP3    H139800   2.821   6.348   0.037 -0.3739  0.8043 -0.1997
 6103TIP3    H239801   2.848   6.235   0.134 -0.5958  0.2348 -0.7889
 6104TIP3   OH239802   6.177   6.044  11.751 -0.3037  0.8488  0.1668
 6104TIP3    H139803   6.180   6.087  11.837 -0.1163  1.4057 -0.1084
 6104TIP3    H239804   6.178   6.117  11.688  2.0803  0.4391 -0.3567
 6105TIP3   OH239805   1.939   4.174   3.440  0.1405 -0.1330  0.0288
 6105TIP3    H139806   2.029   4.169   3.407 -0.3378 -1.9060 -1.0414
 6105TIP3    H239807   1.893   4.228   3.376 -0.1490 -1.3473 -0.8027
 6106TIP3   OH239808   5.081   2.609   1.969 -0.4047  0.3915 -0.0847
 6106TIP3    H139809   5.131   2.690   1.954 -0.2621  0.4887  0.9128
 6106TIP3    H239810   5.141   2.552   2.017 -0.8552  0.0647  0.0880
 6107TIP3   OH239811   4.908   2.632   4.476  0.2626 -0.4316 -0.1853
 6107TIP3    H139812   4.848   2.686   4.425 -1.3789  0.4127  2.5344
 6107TIP3    H239813   4.964   2.695   4.521 -0.6807 -0.9754  1.8255
 6108TIP3   OH239814   1.558   5.137  11.583 -0.6225  0.0969 -0.5930
 6108TIP3    H139815   1.573   5.129  11.489  0.7020 -1.7531 -0.2566
 6108TIP3    H239816   1.612   5.068  11.621 -0.7368  1.1695  1.5633
 6109TIP3   OH239817   5.231   6.654  14.783  0.2604 -0.4590 -0.8187
 6109TIP3    H139818   5.270   6.664  14.697 -1.1718  0.4899 -1.3886
 6109TIP3    H239819   5.219   6.743  14.815  1.8299 -0.8219  0.8689
 6110TIP3   OH239820   5.334   0.758   3.885  0.5310  0.0066  0.1556
 6110TIP3    H139821   5.372   0.793   3.804  0.7738 -0.6128  0.0001
 6110TIP3    H239822   5.372   0.671   3.894 -0.6324 -0.5144  0.1461
 6111TIP3   OH239823   2.852   6.593  11.765 -0.5618  0.0407 -0.4174
 6111TIP3    H139824   2.876   6.617  11.855  0.9899 -1.4954 -0.3863
 6111TIP3    H239825   2.913   6.641  11.710  0.4007 -1.2418 -0.4961
 6112TIP3   OH239826   1.910   0.835   2.620  0.0453  0.0530  0.2903
 6112TIP3    H139827   1.953   0.755   2.649  0.3301  0.5393  1.2215
 6112TIP3    H239828   1.817   0.814   2.621  0.1891 -0.6634 -0.7032
 6113TIP3   OH239829   3.175   3.451   0.544 -0.1610 -0.2434 -0.1809
 6113TIP3    H139830   3.239   3.445   0.473 -0.3688 -0.8708 -0.3091
 6113TIP3    H239831   3.196   3.535   0.587 -0.4376  0.4365 -1.3560
 6114TIP3   OH239832   0.508   5.492   5.919  0.0530  0.4967 -0.0479
 6114TIP3    H139833   0.498   5.529   6.007 -0.6352  0.2504 -0.0238
 6114TIP3    H239834   0.548   5.407   5.934 -2.5199 -0.7139  0.2467
 6115TIP3   OH239835   0.667   3.324  11.290  0.2658 -0.6123 -0.2366
 6115TIP3    H139836   0.586   3.371  11.271 -0.0522 -0.9817  0.1883
 6115TIP3    H239837   0.712   3.319  11.206 -0.8649 -1.7623 -0.7782
 6116TIP3   OH239838   4.752   2.420  16.769 -0.0878  0.3369 -0.3520
 6116TIP3    H139839   4.804   2.466  16.834 -1.9437  1.2371  0.5202
 6116TIP3    H239840   4.723   2.488  16.708  0.6206 -0.3183 -1.4550
 6117TIP3   OH239841   4.994   5.502   5.466 -0.5785 -0.4122 -0.4415
 6117TIP3    H139842   5.008   5.477   5.375  2.4078  0.6990 -0.3208
 6117TIP3    H239843   5.051   5.444   5.516 -2.8779 -1.6482  0.8720
 6118TIP3   OH239844   1.827   2.901   5.756  0.0574  0.1194  0.2992
 6118TIP3    H139845   1.859   2.990   5.743 -0.2216  0.0736 -0.7278
 6118TIP3    H239846   1.777   2.905   5.838  0.0965  0.8892  0.2862
 6119TIP3   OH239847   2.084   0.647  10.496 -0.5338 -0.2429 -0.2940
 6119TIP3    H139848   2.011   0.690  10.452 -0.1728  1.5872  0.7912
 6119TIP3    H239849   2.148   0.718  10.510  0.7717 -1.4796  0.1442
 6120TIP3   OH239850   4.293   3.279   2.531  0.2300 -0.2363  0.5884
 6120TIP3    H139851   4.255   3.277   2.443  0.5452 -0.4079  0.4569
 6120TIP3    H239852   4.229   3.327   2.583  1.0943  1.8311 -0.2032
 6121TIP3   OH239853   0.462   5.586  15.656 -0.5088 -0.5506 -0.1440
 6121TIP3    H139854   0.458   5.566  15.563  0.8279  0.7153 -0.4969
 6121TIP3    H239855   0.526   5.524  15.692 -0.1326 -0.2567 -0.2996
 6122TIP3   OH239856   5.877   3.392   5.210  0.3038 -0.1280  0.3718
 6122TIP3    H139857   5.888   3.326   5.278  1.7417  1.2322  1.4952
 6122TIP3    H239858   5.956   3.386   5.156 -0.1611 -0.2174 -0.3084
 6123TIP3   OH239859   2.744   6.717   6.212  0.3135  0.0312  0.1151
 6123TIP3    H139860   2.804   6.667   6.268 -0.6323 -0.2677  0.8763
 6123TIP3    H239861   2.760   6.808   6.237  1.3917  0.0638 -0.6310
 6124TIP3   OH239862   5.726   3.671  12.922 -0.1040 -0.6650  0.1302
 6124TIP3    H139863   5.807   3.663  12.974  1.3178 -1.4205 -2.1387
 6124TIP3    H239864   5.661   3.621  12.972  1.2200 -1.3658  1.2018
 6125TIP3   OH239865   4.309   5.540   1.157  0.0734 -0.6255 -0.2647
 6125TIP3    H139866   4.326   5.503   1.070 -0.1406  0.0249 -0.5845
 6125TIP3    H239867   4.216   5.526   1.172  0.4861 -2.4795  0.6865
 6126TIP3   OH239868   6.788   2.838  16.673  0.1995  0.0733  0.4927
 6126TIP3    H139869   6.880   2.865  16.671 -0.1576  1.3198  0.3974
 6126TIP3    H239870   6.746   2.890  16.605 -0.3198 -1.5007 -0.4031
 6127TIP3   OH239871   1.388   2.820   1.780  0.1558 -0.2541 -0.1882
 6127TIP3    H139872   1.479   2.813   1.807  0.2008 -0.4891 -0.3974
 6127TIP3    H239873   1.390   2.870   1.699  0.2007 -1.1664 -0.7526
 6128TIP3   OH239874   6.612   3.758   0.665  0.2947  0.2387 -0.0838
 6128TIP3    H139875   6.658   3.695   0.609 -0.2392  0.9857 -1.3783
 6128TIP3    H239876   6.648   3.843   0.641 -1.1720  0.7509 -0.5486
 6129TIP3   OH239877   2.726   4.048   3.600 -0.3669  0.1529 -0.2129
 6129TIP3    H139878   2.722   4.065   3.505  1.3187  0.8407 -0.1833
 6129TIP3    H239879   2.770   3.963   3.607 -1.2708 -0.3041 -0.0740
 6130TIP3   OH239880   6.044   5.110  14.743  0.1438  0.1377  0.0342
 6130TIP3    H139881   6.049   5.142  14.833  1.2635 -0.6058  0.2481
 6130TIP3    H239882   6.096   5.173  14.693  0.0935  0.1679  0.0207
 6131TIP3   OH239883   6.376   6.161  13.168 -0.1761 -0.1646 -0.4210
 6131TIP3    H139884   6.315   6.087  13.169 -0.9765  0.4315 -2.3292
 6131TIP3    H239885   6.321   6.237  13.148  0.4786  1.1394  2.5364
 6132TIP3   OH239886   1.741   0.117  14.169 -0.1005 -0.3691  0.0492
 6132TIP3    H139887   1.752   0.209  14.147  0.8404 -0.6169 -0.5392
 6132TIP3    H239888   1.809   0.099  14.235 -1.1955 -0.2901  1.2128
 6133TIP3   OH239889   3.243   1.157  12.641 -0.2948  0.0137  0.1861
 6133TIP3    H139890   3.165   1.112  12.672 -0.4358 -1.2044 -1.8427
 6133TIP3    H239891   3.211   1.216  12.573  0.5587 -0.6566 -0.8161
 6134TIP3   OH239892   2.919   3.359   4.797  0.0661  0.0728  0.0951
 6134TIP3    H139893   2.987   3.322   4.741 -0.3714  0.1646 -0.5045
 6134TIP3    H239894   2.837   3.334   4.753 -0.2734  0.2230  0.6481
 6135TIP3   OH239895   1.747   4.212  13.720 -0.5098 -0.3154 -0.3107
 6135TIP3    H139896   1.768   4.273  13.650  2.1956 -0.1543  0.5948
 6135TIP3    H239897   1.702   4.266  13.786  2.9022  1.0527  1.0174
 6136TIP3   OH239898   3.194   2.810   3.986 -0.6349 -0.8942 -0.0978
 6136TIP3    H139899   3.267   2.751   3.969 -0.0816 -0.1339 -0.3907
 6136TIP3    H239900   3.118   2.767   3.946 -0.6291 -2.3662  1.4238
 6137TIP3   OH239901   0.911   1.138   3.004  0.7134 -0.1144  0.3311
 6137TIP3    H139902   0.864   1.189   2.938  0.6243 -1.1161 -0.3783
 6137TIP3    H239903   0.842   1.096   3.056  0.7875  0.4630  0.9078
 6138TIP3   OH239904   6.816   6.091   0.553  0.0555  0.4037  0.8405
 6138TIP3    H139905   6.874   6.124   0.622  1.4854  0.5527 -0.3882
 6138TIP3    H239906   6.784   6.007   0.586  2.9473 -0.8815  0.5571
 6139TIP3   OH239907   4.749   2.661  10.733 -0.5539 -0.0533  0.3779
 6139TIP3    H139908   4.665   2.632  10.698 -0.8068 -0.1752  1.0841
 6139TIP3    H239909   4.734   2.751  10.761 -0.1886  0.2476 -0.3719
 6140TIP3   OH239910   6.377   5.401   5.868 -0.8636 -0.1881  0.1766
 6140TIP3    H139911   6.376   5.423   5.775  1.2097 -0.2319  0.1079
 6140TIP3    H239912   6.417   5.477   5.910  1.7268 -1.6733  0.5310
 6141TIP3   OH239913   6.267   5.001   4.230 -0.7586 -0.6548  0.1568
 6141TIP3    H139914   6.294   5.088   4.259 -0.9849  0.1930 -2.0661
 6141TIP3    H239915   6.186   4.983   4.277 -0.3916  0.0721  1.0702
 6142TIP3   OH239916   6.628   3.206   4.902 -0.3950  0.0843  0.5891
 6142TIP3    H139917   6.583   3.188   4.985 -1.0260  0.6630  0.3801
 6142TIP3    H239918   6.720   3.210   4.925 -0.5661  0.2017  1.2668
 6143TIP3   OH239919   2.995   3.761   0.967 -0.2173 -0.4618 -0.0361
 6143TIP3    H139920   3.042   3.840   0.940  0.7848 -0.7145  0.9053
 6143TIP3    H239921   2.970   3.779   1.058  0.7188 -1.5413  0.4399
 6144TIP3   OH239922   3.827   1.166  12.939  0.0629 -0.7435 -0.4836
 6144TIP3    H139923   3.875   1.248  12.930 -0.1691 -0.4265  0.9756
 6144TIP3    H239924   3.755   1.173  12.876 -0.5419  0.6091  0.3373
 6145TIP3   OH239925   4.697   1.424   2.957  0.1966  0.8469 -0.0695
 6145TIP3    H139926   4.707   1.345   3.011  2.5276  0.1905 -1.3959
 6145TIP3    H239927   4.745   1.492   3.005  0.4538  0.8000 -0.2639
 6146TIP3   OH239928   3.433   2.215   0.323 -0.3621 -0.0172 -0.2978
 6146TIP3    H139929   3.460   2.292   0.372 -0.2659  1.0743 -2.0263
 6146TIP3    H239930   3.369   2.248   0.260 -0.3084 -1.3465 -1.0598
 6147TIP3   OH239931   4.893   6.031   2.058  0.5974  0.3149 -0.0520
 6147TIP3    H139932   4.902   5.940   2.030 -0.1783 -0.1474  1.1627
 6147TIP3    H239933   4.977   6.052   2.099  0.6336  0.0366  0.0129
 6148TIP3   OH239934   3.195   1.203  15.810  0.0039  0.2471 -0.0988
 6148TIP3    H139935   3.268   1.213  15.749 -2.3373  0.1209 -3.0126
 6148TIP3    H239936   3.186   1.290  15.851  1.7752  0.2481  0.3323
 6149TIP3   OH239937   5.250   4.585   4.731  0.6888 -0.3886  0.6840
 6149TIP3    H139938   5.337   4.599   4.768  0.4289 -1.4332  1.7350
 6149TIP3    H239939   5.265   4.529   4.655  1.1263  1.0229 -0.2945
 6150TIP3   OH239940   5.256   5.954  17.292  0.1401  0.3918  0.1559
 6150TIP3    H139941   5.347   5.934  17.314  0.5376 -0.0442 -1.7981
 6150TIP3    H239942   5.237   6.034  17.341  1.5491  0.4444  0.6453
 6151TIP3   OH239943   0.104   5.124  15.942  0.0910 -0.0566 -0.1716
 6151TIP3    H139944   0.067   5.071  15.872 -0.7595  1.1666 -0.6623
 6151TIP3    H239945   0.162   5.186  15.898  1.8432 -1.1732  0.4864
 6152TIP3   OH239946   0.639   2.678   4.615  0.1956 -0.0862  0.6704
 6152TIP3    H139947   0.634   2.735   4.692  1.9334 -1.0812  1.5460
 6152TIP3    H239948   0.625   2.590   4.649 -2.7051 -0.2304 -0.7133
 6153TIP3   OH239949   6.705   5.366   0.109  0.4586 -0.0734  0.0131
 6153TIP3    H139950   6.792   5.353   0.072  1.0197 -0.2271  1.3729
 6153TIP3    H239951   6.662   5.281   0.100  0.0305  0.3038 -1.6994
 6154TIP3   OH239952   1.264   5.028  12.033 -0.1166 -0.4242  0.0309
 6154TIP3    H139953   1.346   4.993  11.997  0.0864 -0.8947  0.9222
 6154TIP3    H239954   1.237   4.962  12.097 -0.9905 -0.0768  0.0163
 6155TIP3   OH239955   3.067   6.750  15.554 -0.1807 -0.6100 -0.0644
 6155TIP3    H139956   3.086   6.667  15.511  0.0125  0.0451 -1.2694
 6155TIP3    H239957   2.994   6.787  15.505 -1.0260 -0.5913  1.1819
 6156TIP3   OH239958   1.643   2.331   3.555  0.6911 -0.3392  0.1478
 6156TIP3    H139959   1.614   2.241   3.571 -0.8565  0.1425  0.1183
 6156TIP3    H239960   1.597   2.356   3.475  0.1879  0.8933  0.8174
 6157TIP3   OH239961   1.808   2.439   6.305  0.1832 -0.1619 -1.2404
 6157TIP3    H139962   1.853   2.389   6.373 -1.9883  1.1835  1.2459
 6157TIP3    H239963   1.727   2.392   6.289 -0.7391  1.2237 -0.6615
 6158TIP3   OH239964   4.332   5.424  16.588  0.7881  0.0426  0.1751
 6158TIP3    H139965   4.260   5.463  16.538  2.2589  0.8665 -1.3158
 6158TIP3    H239966   4.293   5.406  16.674 -0.6899  2.1923  0.0015
 6159TIP3   OH239967   4.617   1.645   1.190  0.1392  0.0360 -0.2193
 6159TIP3    H139968   4.693   1.696   1.219  1.0541 -2.3585  1.7740
 6159TIP3    H239969   4.655   1.565   1.153 -1.3544 -0.6371 -0.3366
 6160TIP3   OH239970   2.080   4.327   4.242 -0.0548  0.1496 -0.2229
 6160TIP3    H139971   2.141   4.387   4.199 -0.5191 -0.2830 -1.5260
 6160TIP3    H239972   1.994   4.365   4.227 -0.3417 -0.7435 -0.9323
 6161TIP3   OH239973   3.151   5.899   5.802  0.0857 -0.3724  0.2900
 6161TIP3    H139974   3.172   5.992   5.796  0.3268 -0.4932 -1.0037
 6161TIP3    H239975   3.060   5.897   5.832  0.3100  0.2557  1.0457
 6162TIP3   OH239976   4.967   3.874  15.419 -0.4431  0.6216 -0.3251
 6162TIP3    H139977   4.981   3.901  15.510  1.4951 -0.1796 -0.3521
 6162TIP3    H239978   5.038   3.812  15.402 -3.1435 -2.4104 -1.0885
 6163TIP3   OH239979   5.354   5.861   3.114  0.2212  0.6936 -0.2541
 6163TIP3    H139980   5.293   5.935   3.106  0.5583  0.9048 -0.9465
 6163TIP3    H239981   5.310   5.800   3.173  0.0752  1.5841  0.5712
 6164TIP3   OH239982   0.064   2.858  16.343  0.7356 -0.0986  0.1274
 6164TIP3    H139983   0.111   2.808  16.411 -0.9049  1.0434  2.1527
 6164TIP3    H239984  -0.021   2.816  16.338 -0.2597  1.7626  1.0369
 6165TIP3   OH239985   4.997   6.815  14.036  0.2531  0.5879 -0.1427
 6165TIP3    H139986   4.994   6.764  14.117  0.9564  2.0610  0.8235
 6165TIP3    H239987   4.933   6.772  13.979  0.5869 -1.1672  0.7662
 6166TIP3   OH239988   5.266   4.582  14.489 -0.3620  0.3930  0.7358
 6166TIP3    H139989   5.194   4.644  14.476  0.5764  1.3952  0.2073
 6166TIP3    H239990   5.247   4.509  14.430 -1.7241 -0.0552  1.7141
 6167TIP3   OH239991   3.190   2.715   5.444 -0.0075  0.5035 -0.8030
 6167TIP3    H139992   3.139   2.720   5.364  2.3399 -1.6972 -2.5055
 6167TIP3    H239993   3.138   2.661   5.503 -1.1608  1.1056 -1.2599
 6168TIP3   OH239994   2.121   5.515  14.755  0.2934 -0.0713 -0.3732
 6168TIP3    H139995   2.039   5.564  14.764  1.2433  1.8988 -2.0134
 6168TIP3    H239996   2.093   5.428  14.725 -1.3375 -0.2599  1.5138
 6169TIP3   OH239997   1.882   4.488  13.637 -0.0435  0.2835 -0.0412
 6169TIP3    H139998   1.830   4.567  13.629  1.1113  0.9763 -0.9608
 6169TIP3    H239999   1.849   4.430  13.567  0.4777  0.7590 -0.6857
 6170TIP3   OH240000   2.880   5.600  15.517 -0.4765 -0.3128  0.4649
 6170TIP3    H140001   2.959   5.546  15.514 -1.7324 -2.1251 -1.2656
 6170TIP3    H240002   2.868   5.630  15.427 -1.8952 -0.2353  0.6665
 6171TIP3   OH240003   4.928   1.317  11.734  0.1598  0.4881  0.6407
 6171TIP3    H140004   4.945   1.410  11.718  0.8371  0.4009  0.8105
 6171TIP3    H240005   4.885   1.315  11.820 -0.2781  0.6818  0.4238
 6172TIP3   OH240006   2.255   4.489   5.319 -0.4286  0.8058 -0.2171
 6172TIP3    H140007   2.313   4.414   5.301  0.4719  2.0187 -2.5752
 6172TIP3    H240008   2.195   4.457   5.386  0.6636 -1.6774 -0.3650
 6173TIP3   OH240009   1.296   3.240   0.129 -0.1346  0.3172 -0.1336
 6173TIP3    H140010   1.384   3.219   0.098 -0.0511 -0.0292  0.3355
 6173TIP3    H240011   1.310   3.282   0.213 -0.4663 -0.6194  0.3939
 6174TIP3   OH240012   6.317   0.586   3.570 -0.0559 -0.2232  0.2010
 6174TIP3    H140013   6.370   0.534   3.631 -0.6016 -0.4739  0.4697
 6174TIP3    H240014   6.227   0.575   3.602 -0.3900 -0.6542 -0.8627
 6175TIP3   OH240015   5.978   1.218   1.478 -0.3693 -0.2058 -0.2308
 6175TIP3    H140016   5.916   1.205   1.406 -0.6808 -2.8980  0.4444
 6175TIP3    H240017   5.995   1.129   1.510  2.5861  0.6241  0.6462
 6176TIP3   OH240018   6.256   6.273  15.899 -0.3432 -0.2663  0.8895
 6176TIP3    H140019   6.208   6.333  15.842  0.8496 -0.6480 -0.5291
 6176TIP3    H240020   6.324   6.328  15.939  1.4370 -0.8570 -1.2340
 6177TIP3   OH240021   5.861   0.653  11.423  0.6326 -0.0026  0.1418
 6177TIP3    H140022   5.880   0.583  11.360  0.9734  0.0685  0.1662
 6177TIP3    H240023   5.826   0.724  11.369  0.6313 -0.0569  0.0702
 6178TIP3   OH240024   5.510   5.212   1.829 -0.2459 -0.3828  0.0406
 6178TIP3    H140025   5.545   5.190   1.743 -2.1633 -0.0394 -0.8616
 6178TIP3    H240026   5.527   5.305   1.839 -0.2265 -0.3735 -0.0740
 6179TIP3   OH240027   4.141   6.465  13.293 -0.1675  0.2047 -0.2532
 6179TIP3    H140028   4.231   6.450  13.322 -0.1071  0.0652 -0.5086
 6179TIP3    H240029   4.088   6.441  13.368  0.0325  0.7602  0.0654
 6180TIP3   OH240030   5.833   1.335  15.366 -0.0058 -0.2249  0.1294
 6180TIP3    H140031   5.753   1.341  15.314  0.3564  2.8820 -0.1708
 6180TIP3    H240032   5.816   1.389  15.443  1.2180 -0.8733  0.8719
 6181TIP3   OH240033   4.981   0.789   3.230  0.1021 -0.0042 -0.0911
 6181TIP3    H140034   4.903   0.836   3.261 -0.3727  0.0990 -1.4283
 6181TIP3    H240035   4.947   0.710   3.189  0.8219 -0.8204  0.8764
 6182TIP3   OH240036   2.913   0.816   5.274 -0.0584  0.0042  0.3524
 6182TIP3    H140037   2.935   0.723   5.270  1.4770  0.3777 -0.5238
 6182TIP3    H240038   2.945   0.845   5.360  1.5271  0.1915 -0.2748
 6183TIP3   OH240039   0.188   3.706   5.662  0.4684 -1.0426 -0.7347
 6183TIP3    H140040   0.277   3.740   5.664  0.0983  0.0210 -1.4907
 6183TIP3    H240041   0.190   3.628   5.717  1.8188 -0.9240 -0.6044
 6184TIP3   OH240042   6.284   1.079  15.022  0.0751  0.6583 -0.5000
 6184TIP3    H140043   6.359   1.081  15.081  0.6415  1.4568 -1.2351
 6184TIP3    H240044   6.322   1.092  14.935 -0.7611 -0.3628 -1.0328
 6185TIP3   OH240045   0.302   1.217  13.638  0.5293  0.2264  0.4995
 6185TIP3    H140046   0.339   1.128  13.644  0.0434  0.0202  0.4693
 6185TIP3    H240047   0.374   1.271  13.607  0.2855 -0.5119 -1.4028
 6186TIP3   OH240048   6.666   1.546  14.235 -0.0905  0.0002 -0.6006
 6186TIP3    H140049   6.638   1.522  14.147  3.1737 -0.3309 -1.6061
 6186TIP3    H240050   6.737   1.485  14.255 -0.9263 -0.0641  2.3708
 6187TIP3   OH240051   4.632   3.691  16.580  0.1296 -0.1333  0.3665
 6187TIP3    H140052   4.671   3.653  16.659  2.2567  0.1965 -0.5084
 6187TIP3    H240053   4.624   3.784  16.600 -1.6071 -0.4061  1.0844
 6188TIP3   OH240054   3.175   0.107   3.760  0.0324 -0.0384 -0.1967
 6188TIP3    H140055   3.120   0.030   3.774 -0.3461  0.5058  1.4992
 6188TIP3    H240056   3.174   0.153   3.844  0.1445  1.8846 -1.2032
 6189TIP3   OH240057   1.590   3.869   5.880 -0.4861 -0.4550  0.2779
 6189TIP3    H140058   1.645   3.929   5.930  0.9067 -0.5975 -1.0212
 6189TIP3    H240059   1.622   3.782   5.904 -1.2853 -0.6190  0.7825
 6190TIP3   OH240060   5.665   4.518  17.010 -0.0966 -0.5744 -0.2467
 6190TIP3    H140061   5.665   4.609  16.983 -0.2620 -0.2836  0.6998
 6190TIP3    H240062   5.618   4.518  17.094  0.1324 -1.4824 -0.1136
 6191TIP3   OH240063   4.167   5.730  12.417 -0.2647 -0.1342  0.4256
 6191TIP3    H140064   4.253   5.723  12.375 -0.6242  2.3098 -0.7905
 6191TIP3    H240065   4.104   5.711  12.346 -0.7857 -0.2130  0.9049
 6192TIP3   OH240066   6.813   1.512   3.889 -0.1771  0.5219 -0.2362
 6192TIP3    H140067   6.876   1.489   3.820  3.0129  1.5106  2.1816
 6192TIP3    H240068   6.832   1.604   3.909 -1.4191  0.4316  1.5244
 6193TIP3   OH240069   1.566   5.620   5.071 -0.1234 -0.3156 -0.0506
 6193TIP3    H140070   1.556   5.607   5.165  2.1528 -1.3238  0.0846
 6193TIP3    H240071   1.605   5.539   5.039  3.1591  1.6067 -1.1482
 6194TIP3   OH240072   5.518   3.117   6.046 -0.8802  0.1292 -0.1226
 6194TIP3    H140073   5.496   3.080   6.132  0.5019 -1.5749 -0.4779
 6194TIP3    H240074   5.506   3.211   6.057 -1.1575 -0.1092  1.8096
 6195TIP3   OH240075   3.354   0.623   2.444  0.1745 -0.3532 -0.3227
 6195TIP3    H140076   3.318   0.536   2.460  1.5135 -0.9861 -0.6105
 6195TIP3    H240077   3.435   0.625   2.495  0.0905  0.7765 -0.2175
 6196TIP3   OH240078   5.928   3.138   1.984  0.1615 -0.0220 -0.3497
 6196TIP3    H140079   5.906   3.212   1.928 -0.2748 -0.1057 -0.2989
 6196TIP3    H240080   5.884   3.158   2.067 -0.0394 -0.3839 -0.3687
 6197TIP3   OH240081   2.343   5.340  13.786  0.4264 -0.0191 -0.6526
 6197TIP3    H140082   2.341   5.245  13.780 -2.0162 -0.0799  0.6583
 6197TIP3    H240083   2.436   5.362  13.794  0.9872 -2.2915 -0.7628
 6198TIP3   OH240084   1.016   1.721  14.226  0.2235 -0.1068 -0.2435
 6198TIP3    H140085   1.003   1.811  14.256  1.4097 -0.4182  1.2596
 6198TIP3    H240086   0.929   1.681  14.231  0.4148 -0.1753  2.9298
 6199TIP3   OH240087   0.365   1.668  14.945 -0.3142 -0.4644  0.1295
 6199TIP3    H140088   0.451   1.707  14.961 -1.2857  1.0442  1.8054
 6199TIP3    H240089   0.325   1.726  14.879 -0.6825 -0.2189  0.5681
 6200TIP3   OH240090   6.534   1.879  17.292 -0.1849 -0.3133  0.1291
 6200TIP3    H140091   6.498   1.961  17.326 -2.5396 -1.5943  0.8995
 6200TIP3    H240092   6.457   1.823  17.281  1.3472 -2.3063 -0.6956
 6201TIP3   OH240093   3.815   3.234  12.719 -0.5406 -0.3441 -0.9243
 6201TIP3    H140094   3.780   3.243  12.630 -2.1553 -2.1342 -0.5021
 6201TIP3    H240095   3.776   3.307  12.767  0.2411  0.5615 -1.6521
 6202TIP3   OH240096   2.722   6.483   3.978  0.0247 -0.0314 -0.2034
 6202TIP3    H140097   2.663   6.441   4.041  0.4356  2.0196  1.6057
 6202TIP3    H240098   2.667   6.550   3.937  0.1428 -0.4555 -1.0591
 6203TIP3   OH240099   1.647   3.919   4.896 -0.1210  0.2588 -0.3900
 6203TIP3    H140100   1.627   3.975   4.821  1.5803  0.6113 -0.6083
 6203TIP3    H240101   1.562   3.888   4.926 -0.8993  0.9174 -1.8460
 6204TIP3   OH240102   3.944   0.526  13.424 -0.2128 -0.3035  0.1563
 6204TIP3    H140103   3.857   0.566  13.415 -1.2851 -2.7378 -0.5127
 6204TIP3    H240104   3.930   0.450  13.480  1.5076 -0.7081  0.0621
 6205TIP3   OH240105   5.523   5.901   0.102  0.0100 -0.2560  0.0333
 6205TIP3    H140106   5.552   5.816   0.135 -0.4853 -0.2359  0.5276
 6205TIP3    H240107   5.595   5.931   0.047  0.4719 -0.6928  0.3940
 6206TIP3   OH240108   0.988   3.711  16.641 -0.1906 -0.1543 -0.0940
 6206TIP3    H140109   0.909   3.656  16.646 -1.2913  1.3637 -0.2055
 6206TIP3    H240110   0.976   3.761  16.560  1.1621 -0.2953 -0.3848
 6207TIP3   OH240111   6.289   3.752  13.604  0.3772 -0.4441  0.2358
 6207TIP3    H140112   6.342   3.715  13.674  1.0198  0.2340  0.1277
 6207TIP3    H240113   6.324   3.712  13.524  2.2920  1.6588 -0.0641
 6208TIP3   OH240114   3.160   1.973  14.571 -0.0381  0.1129  0.7694
 6208TIP3    H140115   3.108   1.991  14.492 -0.5206  1.3634  1.3517
 6208TIP3    H240116   3.249   1.998  14.547  0.4922 -2.8152 -0.5057
 6209TIP3   OH240117   1.273   5.767  14.199 -0.0141 -0.1866 -0.2697
 6209TIP3    H140118   1.363   5.773  14.166  0.1111 -0.0103  0.0971
 6209TIP3    H240119   1.260   5.674  14.215  0.2949 -0.1510  0.1988
 6210TIP3   OH240120   0.799   1.704   5.528 -0.2946 -0.1236 -0.1665
 6210TIP3    H140121   0.734   1.767   5.560 -1.7418 -1.0370 -1.2492
 6210TIP3    H240122   0.826   1.655   5.605 -2.3290 -1.0228 -0.0075
 6211TIP3   OH240123   2.624   4.429  13.688  1.0585  0.2943 -0.2795
 6211TIP3    H140124   2.585   4.353  13.729 -1.3967  0.7641 -1.6549
 6211TIP3    H240125   2.707   4.441  13.733  0.6358 -2.0874  1.1819
 6212TIP3   OH240126   2.357   0.992  10.876 -0.5522 -0.0870  0.0104
 6212TIP3    H140127   2.402   1.066  10.835 -1.7816 -0.1042 -1.4164
 6212TIP3    H240128   2.278   0.981  10.824 -0.5594 -2.1731  0.4390
 6213TIP3   OH240129   5.902   0.474   6.062 -0.3148 -0.2212  0.3570
 6213TIP3    H140130   5.872   0.439   6.146 -0.3322 -1.8215 -0.2969
 6213TIP3    H240131   5.996   0.455   6.061  0.1864  2.1244  1.1254
 6214TIP3   OH240132   3.909   6.501  16.444 -0.3395 -0.1345 -0.4468
 6214TIP3    H140133   3.880   6.559  16.515 -0.1583  0.1413 -0.5945
 6214TIP3    H240134   3.834   6.446  16.425 -0.9583  0.9748 -1.2384
 6215TIP3   OH240135   5.085   2.917   1.428 -0.6670 -0.0057 -0.4476
 6215TIP3    H140136   5.173   2.881   1.425 -1.3740 -1.7805 -0.3800
 6215TIP3    H240137   5.089   2.983   1.498  0.3403 -0.7739  0.2358
 6216TIP3   OH240138   2.892   4.554   5.867 -0.4638  0.3312 -0.2056
 6216TIP3    H140139   2.976   4.524   5.904 -1.4491 -1.9116  0.2715
 6216TIP3    H240140   2.840   4.577   5.944 -0.7973  0.3834 -0.4502
 6217TIP3   OH240141   5.284   6.290   0.055 -1.0685 -0.0222 -0.5723
 6217TIP3    H140142   5.250   6.276   0.143 -0.6469  0.8868 -0.2583
 6217TIP3    H240143   5.208   6.318   0.004 -1.5169 -1.5318 -0.7394
 6218TIP3   OH240144   0.834   2.401   0.409 -0.3195  0.1843 -0.4504
 6218TIP3    H140145   0.857   2.480   0.361 -1.3761  0.5067 -0.4444
 6218TIP3    H240146   0.741   2.388   0.390 -0.6218  0.0197  1.0835
 6219TIP3   OH240147   3.351   1.293  12.862 -0.2244  0.0740  0.0644
 6219TIP3    H140148   3.326   1.247  12.782 -0.5366 -0.8449  0.6689
 6219TIP3    H240149   3.272   1.291  12.916 -0.5542  2.2653 -0.3090
 6220TIP3   OH240150   4.703   2.353   1.813 -0.2144  0.3149  0.4962
 6220TIP3    H140151   4.679   2.266   1.779  1.1843  0.0595  0.1290
 6220TIP3    H240152   4.740   2.398   1.737  1.2956  0.3686  1.2494
 6221TIP3   OH240153   1.484   0.581   5.165  0.8335  0.2505 -0.1292
 6221TIP3    H140154   1.568   0.537   5.154  0.1742 -0.9329 -0.5030
 6221TIP3    H240155   1.507   0.670   5.191  2.1793 -0.3991  0.9612
 6222TIP3   OH240156   5.432   2.740  14.132  0.0993  0.0287  0.1280
 6222TIP3    H140157   5.357   2.771  14.182  0.0016 -0.9460  0.5916
 6222TIP3    H240158   5.396   2.679  14.068  0.6326 -1.4237  1.1936
 6223TIP3   OH240159   4.440   5.611   5.541 -0.2639  0.3327  0.1130
 6223TIP3    H140160   4.469   5.688   5.491  0.5183 -1.6307 -2.5996
 6223TIP3    H240161   4.514   5.550   5.535 -0.1911 -0.0301  3.6902
 6224TIP3   OH240162   3.695   2.184   0.648  0.3648  0.4154 -0.5520
 6224TIP3    H140163   3.790   2.173   0.641  0.2492 -0.2504 -1.1745
 6224TIP3    H240164   3.661   2.150   0.565 -0.4533  0.1257 -0.1054
 6225TIP3   OH240165   5.430   1.707  13.098 -0.4845 -0.0688  0.1950
 6225TIP3    H140166   5.489   1.771  13.057  1.3142 -0.6258  1.7881
 6225TIP3    H240167   5.449   1.625  13.052 -1.1726  0.0739 -0.3467
 6226TIP3   OH240168   0.456   0.673  14.222 -0.3679 -0.6594  0.2005
 6226TIP3    H140169   0.408   0.592  14.240 -2.0124  0.1480 -0.4952
 6226TIP3    H240170   0.473   0.671  14.128 -0.4581 -0.1673  0.1728
 6227TIP3   OH240171   2.966   6.418   3.870  0.2236  0.7756  0.1633
 6227TIP3    H140172   2.882   6.434   3.912  0.1701 -0.7684  0.6535
 6227TIP3    H240173   2.944   6.370   3.790  0.5340  1.5037 -0.3641
 6228TIP3   OH240174   0.349   3.393   1.898 -0.7564  0.8472 -0.4330
 6228TIP3    H140175   0.397   3.475   1.908 -1.7687  1.2240  1.5228
 6228TIP3    H240176   0.398   3.330   1.951 -1.8163  0.9944  0.7539
 6229TIP3   OH240177   0.184   2.675  10.388  0.3309 -0.1719  0.0832
 6229TIP3    H140178   0.157   2.626  10.310 -1.2616  1.5576 -0.4682
 6229TIP3    H240179   0.173   2.612  10.460  1.7711 -1.7654 -1.0513
 6230TIP3   OH240180   0.975   2.182   2.967  0.3540  0.1042 -0.0404
 6230TIP3    H140181   0.924   2.185   3.048  2.7981  1.1894  1.5095
 6230TIP3    H240182   0.947   2.101   2.924 -1.8149  0.0997  1.2952
 6231TIP3   OH240183   5.609   0.233  11.593 -0.0364  0.7037 -0.0346
 6231TIP3    H140184   5.687   0.275  11.560 -0.9792  1.9378 -0.7157
 6231TIP3    H240185   5.637   0.144  11.616  0.3664 -0.7306 -5.4658
 6232TIP3   OH240186   5.452   1.473  12.939 -0.7369  0.5623  0.0326
 6232TIP3    H140187   5.487   1.474  12.850  1.8538  0.1821  1.0167
 6232TIP3    H240188   5.410   1.388  12.947  0.6050 -0.1271 -0.2314
 6233TIP3   OH240189   1.531   2.025  14.618 -0.4798 -0.0200 -0.1141
 6233TIP3    H140190   1.580   2.100  14.585 -0.6823  0.6173  1.0176
 6233TIP3    H240191   1.516   1.970  14.540  1.3883  0.1141 -0.5879
 6234TIP3   OH240192   0.214   2.107   0.312 -0.4115  0.1609  0.0782
 6234TIP3    H140193   0.174   2.162   0.245 -3.0364 -2.3972 -0.5258
 6234TIP3    H240194   0.144   2.089   0.375  0.4666 -2.1819  0.4576
 6235TIP3   OH240195   6.770   4.498  13.533  0.8788 -0.0657 -0.1055
 6235TIP3    H140196   6.797   4.573  13.480  1.1269  1.5655  2.2669
 6235TIP3    H240197   6.684   4.523  13.569  0.7524 -1.0945  0.3334
 6236TIP3   OH240198   3.400   5.616  15.584 -0.4931  0.5193 -0.1669
 6236TIP3    H140199   3.448   5.689  15.546 -1.0715  0.8323 -0.3072
 6236TIP3    H240200   3.388   5.641  15.676  0.2862  0.0866  0.0584
 6237TIP3   OH240201   5.198   3.437  13.903  0.2729 -0.4509 -0.7139
 6237TIP3    H140202   5.203   3.477  13.816  1.5052  0.7569 -0.1247
 6237TIP3    H240203   5.178   3.345  13.886 -1.5009  0.1659 -2.1739
 6238TIP3   OH240204   1.846   2.410   1.277 -0.3880 -0.0866 -0.2105
 6238TIP3    H140205   1.940   2.395   1.267 -0.2804  1.3830 -1.5114
 6238TIP3    H240206   1.805   2.336   1.232  0.1312 -1.5598  1.6980
 6239TIP3   OH240207   4.717   6.550   3.336  0.2445  0.2557  0.5729
 6239TIP3    H140208   4.646   6.521   3.280  1.1834  0.6879 -0.8676
 6239TIP3    H240209   4.688   6.528   3.425  0.4656 -4.1736 -0.3349
 6240TIP3   OH240210   5.420   6.655  13.916 -0.1587 -0.1441  1.0676
 6240TIP3    H140211   5.359   6.601  13.966 -0.8181 -0.9199 -0.5115
 6240TIP3    H240212   5.476   6.591  13.872 -0.4838  0.4657 -0.2520
 6241TIP3   OH240213   1.856   1.076   6.162  0.2196  0.1727 -0.3757
 6241TIP3    H140214   1.923   1.110   6.222  0.4201  0.9712 -1.0404
 6241TIP3    H240215   1.839   0.987   6.193 -1.5812  1.4499  2.4802
 6242TIP3   OH240216   2.734   0.549   5.984  0.3221  0.0934 -1.1281
 6242TIP3    H140217   2.725   0.641   5.959  1.8812  0.5368 -0.1231
 6242TIP3    H240218   2.708   0.547   6.077  1.1351 -0.3174 -0.9074
 6243TIP3   OH240219   6.532   5.773  16.313 -0.6608 -0.2400 -0.3162
 6243TIP3    H140220   6.616   5.730  16.298  0.5330  1.5809  0.8460
 6243TIP3    H240221   6.468   5.718  16.269  0.6570 -3.6486  1.8074
 6244TIP3   OH240222   5.667   0.284   3.447 -0.6242  0.4358 -0.2960
 6244TIP3    H140223   5.594   0.321   3.397 -1.2712 -0.2151  0.1776
 6244TIP3    H240224   5.742   0.338   3.421 -1.5729  2.1694  0.4548
 6245TIP3   OH240225   1.232   0.853   2.746  0.0798 -0.0317  0.4544
 6245TIP3    H140226   1.218   0.905   2.666  0.4748 -0.3160  0.2002
 6245TIP3    H240227   1.232   0.762   2.715  0.7262 -0.1185  0.7083
 6246TIP3   OH240228   3.418   4.107  13.826  0.2112  0.3790  0.0590
 6246TIP3    H140229   3.325   4.095  13.844  0.3399 -1.6164 -0.4551
 6246TIP3    H240230   3.422   4.123  13.731  0.2719  2.2309  0.3438
 6247TIP3   OH240231   1.068   0.063  12.561 -0.3047  0.1604  0.4172
 6247TIP3    H140232   1.068   0.034  12.653 -0.6804  0.2082  0.4313
 6247TIP3    H240233   1.105   0.152  12.564 -2.0999  0.9046  0.7562
 6248TIP3   OH240234   6.489   3.468   4.020  0.0543  0.1118 -0.4973
 6248TIP3    H140235   6.420   3.411   4.053  1.4065  0.8632  3.9448
 6248TIP3    H240236   6.442   3.540   3.978 -1.8099 -0.6101  0.3126
 6249TIP3   OH240237   4.999   2.129  12.580 -0.0172 -0.3344  0.6687
 6249TIP3    H140238   5.055   2.151  12.505 -0.8460  2.6049  0.8180
 6249TIP3    H240239   4.932   2.071  12.544  0.1614  0.2651 -0.6730
 6250TIP3   OH240240   1.712   6.374   4.376  0.5712  0.8026 -0.2346
 6250TIP3    H140241   1.704   6.464   4.407 -1.7359 -0.3068  2.6373
 6250TIP3    H240242   1.626   6.336   4.390  1.7510 -2.1322 -0.5672
 6251TIP3   OH240243   0.160   5.694   1.500  0.1519 -0.2615 -0.4299
 6251TIP3    H140244   0.237   5.741   1.531  1.0210 -0.8570 -1.6228
 6251TIP3    H240245   0.177   5.680   1.407 -1.7448  0.2653 -0.8830
 6252TIP3   OH240246   2.053   3.349  15.828  0.2786  0.0401  0.1505
 6252TIP3    H140247   2.097   3.406  15.891  0.8568  0.9149 -1.0240
 6252TIP3    H240248   1.983   3.402  15.792 -0.1785 -0.5264  0.1978
 6253TIP3   OH240249   4.243   5.820   3.255 -0.5323  0.1854  0.0008
 6253TIP3    H140250   4.283   5.777   3.331  0.2255  0.4847 -0.2264
 6253TIP3    H240251   4.309   5.882   3.225  0.2328 -1.7373 -2.4763
 6254TIP3   OH240252   0.239   6.096  16.275  0.0641  0.3699 -0.5997
 6254TIP3    H140253   0.327   6.092  16.238  0.4224  1.3324  0.1365
 6254TIP3    H240254   0.217   6.005  16.295  1.0726  0.1720 -0.3749
 6255TIP3   OH240255   4.961   5.138  11.447  0.7824 -0.6142 -0.0878
 6255TIP3    H140256   4.988   5.211  11.391  1.5234 -2.4102 -2.1419
 6255TIP3    H240257   4.866   5.149  11.456  0.7534  0.0938 -1.1364
 6256TIP3   OH240258   2.984   4.544  17.000  0.4435  0.0662  0.3072
 6256TIP3    H140259   3.065   4.548  17.049  0.4323 -0.3695  0.3644
 6256TIP3    H240260   3.010   4.558  16.909  0.3205  2.0348  0.5570
 6257TIP3   OH240261   1.985   0.760   0.041  0.4019  0.1217 -0.2371
 6257TIP3    H140262   2.076   0.764   0.010 -0.3270  0.9964 -2.4107
 6257TIP3    H240263   1.956   0.672   0.019  0.2881  0.3207 -0.9108
 6258TIP3   OH240264   0.693   2.290  11.126 -0.4104 -0.1247 -0.7667
 6258TIP3    H140265   0.769   2.331  11.086  1.1216 -1.7800  0.3394
 6258TIP3    H240266   0.648   2.245  11.054 -0.0017  0.3613 -1.3246
 6259TIP3   OH240267   0.116   0.060  15.535  0.2564 -0.5880  0.7876
 6259TIP3    H140268   0.183  -0.003  15.562  1.3122  0.6238  1.0501
 6259TIP3    H240269   0.158   0.145  15.544 -0.3498  0.0411 -1.8441
 6260TIP3   OH240270   5.940   4.910   0.360  0.5602 -0.0965  0.0671
 6260TIP3    H140271   5.994   4.834   0.338  1.7794  0.4386  1.1043
 6260TIP3    H240272   5.857   4.894   0.316  0.8934 -1.8946  0.0414
 6261TIP3   OH240273   3.140   2.495   3.505 -0.0970 -0.0735  0.1211
 6261TIP3    H140274   3.053   2.483   3.542  0.3318  0.5478  1.3592
 6261TIP3    H240275   3.188   2.416   3.531 -0.1601 -0.2286 -0.2200
 6262TIP3   OH240276   1.200   6.074  15.542  0.6715  0.1162  0.3522
 6262TIP3    H140277   1.165   6.125  15.470  0.7049 -0.0312  0.2303
 6262TIP3    H240278   1.127   6.018  15.570 -0.1871  2.1331  2.2454
 6263TIP3   OH240279   4.727   3.692  10.643 -0.3813  0.1413 -0.3067
 6263TIP3    H140280   4.671   3.687  10.565  0.9385 -0.9633 -1.1974
 6263TIP3    H240281   4.691   3.626  10.702  0.2015 -0.8400 -1.0331
 6264TIP3   OH240282   4.619   3.431  15.117 -0.6971  0.0410 -1.0493
 6264TIP3    H140283   4.672   3.433  15.037  0.2633 -0.7080 -0.4566
 6264TIP3    H240284   4.573   3.347  15.112  0.8044 -0.8618  0.0732
 6265TIP3   OH240285   5.923   0.640   1.620 -0.6700 -0.5153 -0.6382
 6265TIP3    H140286   5.831   0.629   1.597 -0.2282 -2.9447 -1.3137
 6265TIP3    H240287   5.934   0.585   1.698 -0.7294  2.9759  1.9629
 6266TIP3   OH240288   1.457   4.432  12.875 -0.1109 -0.1927  0.5543
 6266TIP3    H140289   1.402   4.429  12.953  0.3950  0.7413  0.9527
 6266TIP3    H240290   1.502   4.347  12.873 -1.0835 -0.7158  0.5631
 6267TIP3   OH240291   4.090   1.532   1.004  0.1001 -0.0762  0.1782
 6267TIP3    H140292   4.042   1.487   0.934 -1.2867  0.8277  0.5406
 6267TIP3    H240293   4.134   1.605   0.960  0.9466 -0.7553 -0.1102
 6268TIP3   OH240294   1.690   5.128  15.277  0.2254  0.2699  0.7310
 6268TIP3    H140295   1.731   5.067  15.216  0.0685  1.2356 -0.3597
 6268TIP3    H240296   1.760   5.155  15.337  0.2970 -0.9485  1.2056
 6269TIP3   OH240297   0.322   0.930   0.951  0.0731  0.3636  0.4581
 6269TIP3    H140298   0.318   1.024   0.969 -0.4257  0.0991  1.7550
 6269TIP3    H240299   0.254   0.892   1.007  2.4229 -1.1484  2.3466
 6270TIP3   OH240300   1.863   2.224  12.534  0.2967 -0.5367 -0.4273
 6270TIP3    H140301   1.860   2.301  12.592  2.4166 -0.0346 -0.9414
 6270TIP3    H240302   1.898   2.258  12.452 -0.9557 -1.6229 -1.4279
 6271TIP3   OH240303   2.584   3.766  16.785  0.4251  0.0571 -0.2805
 6271TIP3    H140304   2.609   3.698  16.847  0.0724  1.1506  1.0980
 6271TIP3    H240305   2.489   3.762  16.781  0.5181 -0.8773 -1.7739
 6272TIP3   OH240306   6.307   6.324   1.834  0.0116  0.3800  0.2534
 6272TIP3    H140307   6.358   6.244   1.825  0.0969  0.3518  0.9724
 6272TIP3    H240308   6.309   6.344   1.927 -0.7862  0.7113  0.2085
 6273TIP3   OH240309   1.421   2.745  13.311 -0.5748 -0.0610  0.3785
 6273TIP3    H140310   1.339   2.777  13.275 -1.2713 -1.9457  0.2556
 6273TIP3    H240311   1.396   2.676  13.371  0.8670  0.0365  1.1125
 6274TIP3   OH240312   2.536   0.249  13.709 -0.0287  0.3975 -0.3687
 6274TIP3    H140313   2.466   0.298  13.754  0.6629  0.1839  0.9676
 6274TIP3    H240314   2.576   0.197  13.778  1.4800  0.5407 -1.1270
 6275TIP3   OH240315   1.621   2.681  16.477  0.2822  0.2558 -0.3867
 6275TIP3    H140316   1.629   2.762  16.527 -0.9064 -0.0656  0.3366
 6275TIP3    H240317   1.536   2.687  16.433 -0.3385 -1.0976  0.5885
 6276TIP3   OH240318   6.408   5.191  16.621  0.4187  0.0513  0.4347
 6276TIP3    H140319   6.351   5.268  16.629 -0.1044 -0.4602  1.6355
 6276TIP3    H240320   6.458   5.189  16.703  0.4863 -0.8531  0.3753
 6277TIP3   OH240321   5.957   2.790   4.171 -0.0510  0.2851  0.6732
 6277TIP3    H140322   6.007   2.714   4.141  1.6688  1.8840 -0.5812
 6277TIP3    H240323   6.012   2.829   4.239 -0.8510  0.5373  1.1849
 6278TIP3   OH240324   1.095   5.902   2.128  0.1479  0.0158 -0.4272
 6278TIP3    H140325   1.018   5.864   2.170  0.5518 -0.1422  0.1785
 6278TIP3    H240326   1.150   5.826   2.107 -0.1832  0.0645 -1.5199
 6279TIP3   OH240327   4.783   3.935   5.159  0.0637 -0.4294  0.2791
 6279TIP3    H140328   4.814   3.854   5.199  1.0943 -0.2900 -0.2198
 6279TIP3    H240329   4.861   3.991   5.154 -0.0434 -0.4414 -1.9090
 6280TIP3   OH240330   3.900   6.350   3.052  0.0212 -0.0676  0.1595
 6280TIP3    H140331   3.844   6.391   3.117  1.3160  0.9921  0.6224
 6280TIP3    H240332   3.947   6.282   3.100 -2.1504 -2.1799 -0.6137
 6281TIP3   OH240333   3.568   2.495   2.992  0.5075  0.5843 -0.7030
 6281TIP3    H140334   3.605   2.557   3.055 -1.7238  2.1490 -0.8335
 6281TIP3    H240335   3.599   2.409   3.020  0.2755  1.3520  2.0141
 6282TIP3   OH240336   2.459   6.000   0.832 -0.3755 -0.2386  0.6859
 6282TIP3    H140337   2.481   5.913   0.865 -1.2981 -0.2285  1.3559
 6282TIP3    H240338   2.372   6.017   0.867 -0.0337  1.1270  0.8831
 6283TIP3   OH240339   6.491   6.043  16.736 -0.3787  0.0189  0.0576
 6283TIP3    H140340   6.405   6.071  16.706 -0.7514 -0.4487  0.6678
 6283TIP3    H240341   6.522   6.115  16.791 -0.7098 -0.1379  0.4509
 6284TIP3   OH240342   3.726   3.605   6.482 -0.4047  0.0165 -0.3825
 6284TIP3    H140343   3.734   3.700   6.475  0.1719 -0.0695 -0.9753
 6284TIP3    H240344   3.684   3.590   6.567 -1.5801  0.8384 -0.8237
 6285TIP3   OH240345   3.881   5.936  13.785  0.4671  0.1014  0.1526
 6285TIP3    H140346   3.790   5.941  13.814  0.0336  0.2731 -1.1834
 6285TIP3    H240347   3.914   5.855  13.824  0.2949  0.9795  2.1344
 6286TIP3   OH240348   4.788   0.793   2.008 -0.1065 -0.0700  0.2280
 6286TIP3    H140349   4.801   0.836   1.924 -1.5555  1.3729  0.7122
 6286TIP3    H240350   4.746   0.859   2.063  0.9861 -0.9154  2.1610
 6287TIP3   OH240351   6.724   2.173   5.650  0.1714  0.0362  0.1095
 6287TIP3    H140352   6.707   2.212   5.565  0.2540  0.5087  0.3055
 6287TIP3    H240353   6.685   2.086   5.645  1.1515 -0.3557 -0.7843
 6288TIP3   OH240354   1.653   1.265  13.476  0.2664  0.1994 -0.6684
 6288TIP3    H140355   1.612   1.310  13.402 -0.6678 -0.9774 -0.8915
 6288TIP3    H240356   1.708   1.197  13.436  1.7091  1.1546 -0.3444
 6289TIP3   OH240357   6.141   5.003  10.884  0.3041 -0.3079  0.2833
 6289TIP3    H140358   6.110   5.022  10.796 -1.6300  0.3616  1.0746
 6289TIP3    H240359   6.148   4.907  10.887 -0.2990 -0.3738 -0.3922
 6290TIP3   OH240360   2.789   1.806   1.804 -0.1961 -0.3024  0.0044
 6290TIP3    H140361   2.878   1.770   1.796 -0.1260  0.0172 -0.6957
 6290TIP3    H240362   2.750   1.794   1.718 -0.2702  1.0316 -0.1686
 6291TIP3   OH240363   3.191   6.597  12.745  0.0049 -0.9833  0.0544
 6291TIP3    H140364   3.260   6.656  12.775  1.6812 -1.5228 -2.6452
 6291TIP3    H240365   3.110   6.647  12.757  0.9954  0.3052  1.5954
 6292TIP3   OH240366   4.636   2.291   4.180  0.1037  0.2274 -0.5039
 6292TIP3    H140367   4.705   2.246   4.229 -0.0485  0.0350 -0.4633
 6292TIP3    H240368   4.570   2.311   4.246 -0.7170 -1.2410 -0.8690
 6293TIP3   OH240369   1.503   0.920  16.360  0.5242 -0.4697 -0.1543
 6293TIP3    H140370   1.598   0.925  16.373  0.3830  0.7372  0.4846
 6293TIP3    H240371   1.475   1.012  16.354 -0.9604 -0.7275  2.2561
 6294TIP3   OH240372   2.993   5.429  16.766  0.1914 -0.3302  0.0122
 6294TIP3    H140373   3.039   5.353  16.800  1.5004  0.1629 -0.6346
 6294TIP3    H240374   2.949   5.467  16.843  1.2745 -0.5233  0.7272
 6295TIP3   OH240375   3.449   5.403   4.519  0.1971 -0.2813 -0.3220
 6295TIP3    H140376   3.402   5.319   4.513 -0.3692  0.1587 -2.2158
 6295TIP3    H240377   3.474   5.423   4.429 -2.2967  3.0540 -0.3531
 6296TIP3   OH240378   3.446   1.666  16.841  0.0229 -0.0744  0.4128
 6296TIP3    H140379   3.354   1.661  16.815 -0.4877  3.1811  1.4021
 6296TIP3    H240380   3.445   1.711  16.925  2.5129 -0.1948  0.5361
 6297TIP3   OH240381   6.783   2.710   4.547 -0.1766 -0.0178  0.4920
 6297TIP3    H140382   6.780   2.743   4.457 -0.4853  0.0746  0.5364
 6297TIP3    H240383   6.697   2.673   4.562 -0.7997  1.7120  1.4071
 6298TIP3   OH240384   1.549   1.742   5.572 -0.2645  0.1825 -0.6266
 6298TIP3    H140385   1.509   1.809   5.517 -0.5664 -0.7889 -1.6213
 6298TIP3    H240386   1.539   1.661   5.521 -0.1736 -0.6613  0.6827
 6299TIP3   OH240387   5.921   4.676   5.587 -0.0840  0.6353 -0.7124
 6299TIP3    H140388   6.007   4.716   5.572  0.8542 -1.4020 -0.9642
 6299TIP3    H240389   5.939   4.581   5.587 -2.5179  0.1563 -1.9174
 6300TIP3   OH240390   0.677   0.314  14.922 -0.0462 -0.2572  0.1476
 6300TIP3    H140391   0.647   0.403  14.903  1.8869  1.2936  3.8344
 6300TIP3    H240392   0.747   0.299  14.860 -1.6310  0.0422 -1.7496
 6301TIP3   OH240393   6.481   3.100   5.101  0.2967 -0.3100  0.1114
 6301TIP3    H140394   6.455   3.065   5.186  0.6956 -0.6206  0.1016
 6301TIP3    H240395   6.407   3.080   5.044 -0.1452  0.2495  0.4729
 6302TIP3   OH240396   3.411   2.791  14.293  0.4734  0.3487 -0.2346
 6302TIP3    H140397   3.491   2.762  14.250  0.6359 -0.2803  0.4831
 6302TIP3    H240398   3.341   2.746  14.245  0.6534 -0.3650  0.1791
 6303TIP3   OH240399   1.434   4.938   0.398  0.1020  0.1389  0.0226
 6303TIP3    H140400   1.380   5.011   0.430 -2.0011 -0.8065 -1.2697
 6303TIP3    H240401   1.472   4.970   0.317  0.5071  0.3820  0.3086
 6304TIP3   OH240402   6.385   5.324  15.536 -0.2018 -0.0956  0.2186
 6304TIP3    H140403   6.426   5.374  15.607  0.6692  1.0771 -1.0883
 6304TIP3    H240404   6.298   5.305  15.568 -0.2849  1.6092  1.0789
 6305TIP3   OH240405   2.797   1.264  14.467  0.7183 -0.4299 -0.0693
 6305TIP3    H140406   2.810   1.181  14.420  0.4437 -1.2956  1.3359
 6305TIP3    H240407   2.702   1.270  14.479  0.7896 -0.2573  0.4307
 6306TIP3   OH240408   2.797   5.528  16.510  0.2952  0.2697 -0.3063
 6306TIP3    H140409   2.891   5.517  16.525  0.3783  0.1272 -0.9111
 6306TIP3    H240410   2.759   5.443  16.535  0.5936 -0.4434 -2.1629
 6307TIP3   OH240411   1.893   4.802  11.319 -0.1173  0.5279 -0.5954
 6307TIP3    H140412   1.954   4.735  11.289  0.9895  2.0996 -1.9648
 6307TIP3    H240413   1.827   4.808  11.249 -0.1603  0.9249 -0.5249
 6308TIP3   OH240414   5.230   1.423   0.991 -0.3245  0.6964  0.0228
 6308TIP3    H140415   5.178   1.477   0.932  0.6331 -0.7446 -2.2513
 6308TIP3    H240416   5.287   1.484   1.038 -0.8878  1.8514 -0.7991
 6309TIP3   OH240417   5.789   2.045   3.552  0.1149  0.1455 -0.3263
 6309TIP3    H140418   5.738   2.098   3.492 -1.0949  1.0319  1.4360
 6309TIP3    H240419   5.726   1.980   3.586  0.9779 -0.8618 -0.6136
 6310TIP3   OH240420   3.303   1.610   4.143 -0.6773  0.3393  0.0532
 6310TIP3    H140421   3.390   1.646   4.159  0.0685 -1.1392 -0.5282
 6310TIP3    H240422   3.247   1.650   4.209  0.6283  0.6379  0.9838
 6311TIP3   OH240423   0.600   5.833  16.713 -0.4846 -0.0778 -0.0849
 6311TIP3    H140424   0.510   5.847  16.684 -1.1082 -0.1760  1.7164
 6311TIP3    H240425   0.604   5.874  16.800  0.3371 -2.6866  1.1668
 6312TIP3   OH240426   5.025   2.063  14.736 -0.1202  0.0729  0.5185
 6312TIP3    H140427   5.059   2.146  14.701 -1.8088  0.0796 -1.1699
 6312TIP3    H240428   4.939   2.085  14.771 -0.3328 -0.8601  0.5864
 6313TIP3   OH240429   2.528   4.413  12.430  0.4098  0.0199  0.0831
 6313TIP3    H140430   2.439   4.445  12.418 -0.4976 -1.9160  1.4033
 6313TIP3    H240431   2.582   4.471  12.376 -1.3640  2.6002  0.9940
 6314TIP3   OH240432   2.889   6.732   2.898 -0.3459 -0.0663  0.0717
 6314TIP3    H140433   2.913   6.817   2.860 -0.1440 -0.6490 -1.1064
 6314TIP3    H240434   2.918   6.668   2.834  0.8271 -1.1266  1.6335
 6315TIP3   OH240435   4.260   2.215  14.476  0.4954 -0.2877  0.6898
 6315TIP3    H140436   4.317   2.138  14.483 -1.4266 -1.7322  0.8418
 6315TIP3    H240437   4.191   2.201  14.541 -0.9245  0.6391 -0.5730
 6316TIP3   OH240438   6.279   0.369  10.530 -0.0884  0.2584 -0.4229
 6316TIP3    H140439   6.340   0.424  10.482  0.5765 -0.1508 -0.0671
 6316TIP3    H240440   6.274   0.288  10.480 -0.5718  0.4007 -0.6088
 6317TIP3   OH240441   3.546   3.028  17.288 -0.1412  0.1949  0.0753
 6317TIP3    H140442   3.492   3.098  17.326  0.3982  0.2976  0.6723
 6317TIP3    H240443   3.512   3.016  17.200  0.2532  1.7446 -0.3042
 6318TIP3   OH240444   5.919   6.475  11.185 -0.0950 -0.8786  0.2416
 6318TIP3    H140445   5.969   6.527  11.249 -0.6779 -2.5984  2.1622
 6318TIP3    H240446   5.852   6.431  11.238 -0.9059 -1.9587 -1.6542
 6319TIP3   OH240447   0.121   3.230   4.870 -0.0109  0.0948  0.1917
 6319TIP3    H140448   0.153   3.320   4.883  0.4059 -0.1488  0.8497
 6319TIP3    H240449   0.186   3.175   4.913  0.7719 -0.6572 -1.8752
 6320TIP3   OH240450   2.423   5.545  16.342 -0.5210 -0.4091 -0.0117
 6320TIP3    H140451   2.370   5.485  16.395 -1.4742  0.0431 -0.4342
 6320TIP3    H240452   2.388   5.632  16.362  0.4696 -0.0361  0.1631
 6321TIP3   OH240453   0.270   6.594  16.880 -0.1854 -0.2564 -0.6445
 6321TIP3    H140454   0.304   6.682  16.860 -0.0871 -0.2215 -0.3214
 6321TIP3    H240455   0.310   6.538  16.814  0.5804 -0.2300 -0.2065
 6322TIP3   OH240456   2.374   4.217   4.708  0.1632  0.1681  0.1969
 6322TIP3    H140457   2.415   4.130   4.707 -0.8393 -0.3253  1.1605
 6322TIP3    H240458   2.430   4.271   4.652  1.7161 -0.6813  0.9094
 6323TIP3   OH240459   2.180   1.866  13.389 -0.0467 -0.2582  0.8357
 6323TIP3    H140460   2.207   1.778  13.363  1.5867  0.3594  0.3799
 6323TIP3    H240461   2.234   1.886  13.466 -1.4296 -0.1999  1.8103
 6324TIP3   OH240462   2.054   0.233   0.577  0.0135 -0.1412 -0.5202
 6324TIP3    H140463   1.988   0.165   0.560 -0.5535  0.6448 -1.5830
 6324TIP3    H240464   2.046   0.251   0.671  0.0596 -1.4193 -0.2615
 6325TIP3   OH240465   3.333   2.874   3.100 -0.1400  0.2337 -0.4894
 6325TIP3    H140466   3.295   2.831   3.176  0.6001  0.2480 -0.1118
 6325TIP3    H240467   3.303   2.821   3.025 -1.4067  0.6014 -0.2560
 6326TIP3   OH240468   4.493   4.071  15.644 -0.2748  0.1215  0.1545
 6326TIP3    H140469   4.433   4.116  15.585 -1.3952 -1.1597  0.2842
 6326TIP3    H240470   4.459   4.090  15.732 -0.3218 -0.3623  0.2444
 6327TIP3   OH240471   5.958   4.936   1.996 -0.6399 -0.0644 -0.5157
 6327TIP3    H140472   6.036   4.910   1.946  1.6984  2.1522  1.8417
 6327TIP3    H240473   5.914   4.999   1.940  1.1398  1.2379 -0.5052
 6328TIP3   OH240474   0.740   4.643   1.816  0.5539 -0.5406  0.5489
 6328TIP3    H140475   0.661   4.627   1.766 -0.0342 -1.1239  1.6487
 6328TIP3    H240476   0.756   4.737   1.807 -0.2772 -0.4197  0.3371
 6329TIP3   OH240477   2.945   6.442  12.131  0.0731  0.0418  0.2336
 6329TIP3    H140478   2.929   6.428  12.037 -1.2235 -0.3923  0.5134
 6329TIP3    H240479   2.858   6.447  12.169  0.5870  1.2216  1.2785
 6330TIP3   OH240480   6.604   2.469  11.863 -0.0409 -0.4838  0.0561
 6330TIP3    H140481   6.549   2.485  11.940 -0.3785 -0.3475 -0.2129
 6330TIP3    H240482   6.575   2.384  11.830  1.3553 -1.4104  1.1536
 6331TIP3   OH240483   1.859   5.546   0.568  0.0942  0.0057 -0.2140
 6331TIP3    H140484   1.822   5.464   0.599 -1.9299  0.1676 -2.0404
 6331TIP3    H240485   1.836   5.610   0.636  2.3640 -1.0459  1.5875
 6332TIP3   OH240486   4.291   0.831  11.752  0.1911  0.2942  0.3124
 6332TIP3    H140487   4.386   0.840  11.758  0.0788  0.5414  2.1150
 6332TIP3    H240488   4.274   0.740  11.778 -0.0474  0.1535 -0.3260
 6333TIP3   OH240489   5.540   5.622   5.789 -0.3599  0.1068  0.0528
 6333TIP3    H140490   5.488   5.542   5.779 -0.2661  0.0918 -0.3150
 6333TIP3    H240491   5.630   5.595   5.775 -0.3178  0.2599  0.0246
 6334TIP3   OH240492   1.980   0.377   1.303  1.1741  0.2503 -0.3160
 6334TIP3    H140493   1.993   0.425   1.385  0.0563  1.1972 -0.6664
 6334TIP3    H240494   2.021   0.432   1.236 -1.0825  1.3194 -0.8756
 6335TIP3   OH240495   5.256   5.145   5.141 -0.3143  0.6338  0.3971
 6335TIP3    H140496   5.325   5.104   5.088 -0.6890 -1.7987  1.7634
 6335TIP3    H240497   5.303   5.181   5.217 -0.4124 -0.1757  0.8454
 6336TIP3   OH240498   2.739   2.327  16.919 -0.7922  0.1152 -0.2491
 6336TIP3    H140499   2.676   2.384  16.963 -0.5764 -0.1665  0.4378
 6336TIP3    H240500   2.801   2.387  16.877 -1.7037  0.3911 -1.1966
 6337TIP3   OH240501   0.092   5.216   3.592 -0.2489  0.3143  1.2910
 6337TIP3    H140502   0.046   5.273   3.530 -0.3354 -0.6819  0.4242
 6337TIP3    H240503   0.029   5.146   3.611  0.8196 -0.9537  0.2433
 6338TIP3   OH240504   1.675   4.101  12.196 -0.5559 -0.4645  0.2012
 6338TIP3    H140505   1.623   4.033  12.238  0.7493 -1.4469  0.2516
 6338TIP3    H240506   1.640   4.183  12.231 -1.2234 -1.1651  1.1918
 6339TIP3   OH240507   1.865   2.872  13.716 -0.1734 -0.0472  0.9119
 6339TIP3    H140508   1.887   2.891  13.625  0.1158  0.3066  1.0510
 6339TIP3    H240509   1.788   2.926  13.734 -0.3512 -0.2683  0.8194
 6340TIP3   OH240510   3.140   4.192   1.920  0.2958  0.0177 -0.0129
 6340TIP3    H140511   3.187   4.273   1.899 -0.8878  0.1809 -2.2962
 6340TIP3    H240512   3.061   4.222   1.965  1.4291 -0.1284  2.1333
 6341TIP3   OH240513   2.644   2.096   5.392  0.6147 -0.1900  0.0473
 6341TIP3    H140514   2.715   2.152   5.423  1.2831 -0.3897 -1.1204
 6341TIP3    H240515   2.641   2.024   5.456  0.2756  0.7494  1.0995
 6342TIP3   OH240516   2.672   4.081   6.426  0.0597  0.2517 -0.5555
 6342TIP3    H140517   2.596   4.045   6.472 -0.2065  1.6829  0.1598
 6342TIP3    H240518   2.735   4.009   6.424 -0.2265 -0.0802  1.3814
 6343TIP3   OH240519   3.838   5.390  14.330  0.4618 -0.0275  0.2751
 6343TIP3    H140520   3.773   5.461  14.330  1.5377  0.9835 -0.8874
 6343TIP3    H240521   3.858   5.376  14.422 -0.7086  0.3010  0.5937
 6344TIP3   OH240522   1.137   5.940   4.020 -0.0418 -0.1002  0.4051
 6344TIP3    H140523   1.166   6.031   4.030  2.2920 -0.8388  0.6174
 6344TIP3    H240524   1.090   5.921   4.101  1.0154  0.3675  1.1393
 6345TIP3   OH240525   6.427   5.587  13.535  0.2006 -0.9402  0.3068
 6345TIP3    H140526   6.448   5.545  13.619 -0.4000  0.5086  1.2054
 6345TIP3    H240527   6.496   5.653  13.524 -2.3883  2.1607  2.0569
 6346TIP3   OH240528   4.263   6.465  15.231 -0.1428  0.8376 -0.5363
 6346TIP3    H140529   4.227   6.408  15.299  1.2127  0.2006 -0.3440
 6346TIP3    H240530   4.285   6.546  15.278 -2.6121  1.7741 -0.9206
 6347TIP3   OH240531   2.127   2.574  11.347  0.1942  0.0365 -0.1004
 6347TIP3    H140532   2.169   2.588  11.262  1.4148  1.4416  0.6969
 6347TIP3    H240533   2.190   2.521  11.396 -0.5844 -0.9190 -0.1288
 6348TIP3   OH240534   6.192   0.672  14.002 -0.4201 -1.2259  0.2534
 6348TIP3    H140535   6.140   0.629  14.070  0.2807 -2.2706  0.1405
 6348TIP3    H240536   6.281   0.638  14.015 -0.1614 -0.9756 -0.8050
 6349TIP3   OH240537   5.865   4.094  12.593  0.1794 -0.6594 -0.4600
 6349TIP3    H140538   5.925   4.156  12.552  0.6778  0.2931  1.6274
 6349TIP3    H240539   5.921   4.034  12.641 -0.4098 -1.1673 -0.4002
 6350TIP3   OH240540   3.882   4.606   1.571 -0.2296 -0.0828  0.2170
 6350TIP3    H140541   3.845   4.648   1.648 -0.8540 -0.3868  0.0925
 6350TIP3    H240542   3.930   4.531   1.605 -0.8538 -0.4603  0.2888
 6351TIP3   OH240543   4.581   3.057  16.784  0.4891 -0.5167  0.9527
 6351TIP3    H140544   4.524   3.045  16.708  0.5067  1.0790  0.6817
 6351TIP3    H240545   4.654   2.997  16.768  0.5795 -0.0696 -0.3901
 6352TIP3   OH240546   2.761   5.111  11.420 -0.5545  0.0406  0.3379
 6352TIP3    H140547   2.791   5.103  11.329 -0.9942 -0.4539  0.2345
 6352TIP3    H240548   2.840   5.128  11.470 -0.3161  0.3858 -0.1472
 6353TIP3   OH240549   4.076   1.074  14.452 -0.2094  0.1662  0.6266
 6353TIP3    H140550   4.126   1.155  14.463 -0.5904  0.4659  0.1574
 6353TIP3    H240551   4.008   1.078  14.519 -0.9216  0.7659 -0.1240
 6354TIP3   OH240552   6.743   5.509   1.319 -0.3757 -1.2288 -0.2142
 6354TIP3    H140553   6.678   5.575   1.342  0.4622 -0.8069  1.0367
 6354TIP3    H240554   6.781   5.482   1.403  2.7243  0.2686 -1.0575
 6355TIP3   OH240555   3.186   4.870   6.221 -0.1468  0.2054 -0.2085
 6355TIP3    H140556   3.210   4.941   6.160  0.7869  0.7350  0.7614
 6355TIP3    H240557   3.234   4.794   6.188  0.1929  0.4393 -0.2576
 6356TIP3   OH240558   0.301   4.011  10.930  0.6136  0.4543  0.1615
 6356TIP3    H140559   0.367   3.978  10.991 -0.5759  0.9847  1.7863
 6356TIP3    H240560   0.349   4.066  10.869  1.7852  0.2034  0.8385
 6357TIP3   OH240561   5.707   2.939   6.000 -0.1406  0.1497 -0.4816
 6357TIP3    H140562   5.644   3.006   6.027  0.1665  0.8388 -1.4613
 6357TIP3    H240563   5.662   2.856   6.015 -0.8808  0.6095 -0.1599
 6358TIP3   OH240564   4.423   0.623   5.052  0.0536 -0.3371 -0.0972
 6358TIP3    H140565   4.347   0.581   5.013  0.0917  1.5653 -2.2858
 6358TIP3    H240566   4.386   0.686   5.114 -0.0590 -1.3318  0.8734
 6359TIP3   OH240567   5.785   4.419  11.905 -0.3215  0.1029 -0.4454
 6359TIP3    H140568   5.691   4.412  11.920 -0.4214 -1.5636 -1.6914
 6359TIP3    H240569   5.817   4.474  11.977 -2.2707  0.9211 -0.1649
 6360TIP3   OH240570   2.921   2.431  12.017  0.5498 -0.3090 -0.7473
 6360TIP3    H140571   2.924   2.349  11.967 -1.0616 -0.6315 -0.3164
 6360TIP3    H240572   2.858   2.485  11.971  1.5025  0.6571 -0.9439
 6361TIP3   OH240573   6.710   4.524  16.663 -0.3276 -0.5950  0.1718
 6361TIP3    H140574   6.630   4.501  16.616 -0.2921  0.4236 -0.3960
 6361TIP3    H240575   6.773   4.455  16.639 -0.8035 -0.9826  0.0286
 6362TIP3   OH240576   0.451   0.061  17.136  0.1685  0.3472 -0.3521
 6362TIP3    H140577   0.532   0.101  17.167  0.1238  1.0405 -1.1194
 6362TIP3    H240578   0.474   0.022  17.052 -0.1247 -0.0539 -0.2492
 6363TIP3   OH240579   1.380   0.023  13.905 -0.3039 -0.4995  0.2029
 6363TIP3    H140580   1.361   0.102  13.957 -0.3038  0.8083 -1.7050
 6363TIP3    H240581   1.449  -0.022  13.953  1.2523  1.8295  0.2314
 6364TIP3   OH240582   2.849   1.952   0.182 -0.9407  0.0496  0.1150
 6364TIP3    H140583   2.812   1.913   0.261 -0.6508 -1.3978 -0.4423
 6364TIP3    H240584   2.940   1.922   0.182 -0.8423  0.3576 -0.5606
 6365TIP3   OH240585   2.080   2.500   3.052  0.4999  0.1502 -0.0305
 6365TIP3    H140586   2.086   2.578   3.107  1.5620  0.6943 -0.8958
 6365TIP3    H240587   2.025   2.527   2.978  2.5450  0.7203 -1.3709
 6366TIP3   OH240588   5.008   1.827   0.580 -0.2336 -0.1131 -0.3816
 6366TIP3    H140589   4.970   1.864   0.660  0.9694 -1.5793  0.9032
 6366TIP3    H240590   4.932   1.799   0.529 -0.9913 -0.0993  0.7127
 6367TIP3   OH240591   5.309   5.129  15.739  0.4310  0.3076 -0.5238
 6367TIP3    H140592   5.267   5.215  15.738 -2.2608 -0.8252  2.9793
 6367TIP3    H240593   5.252   5.074  15.685 -1.1070 -0.5623  1.9166
 6368TIP3   OH240594   4.504   2.902  13.558  0.1506  0.1546 -0.4448
 6368TIP3    H140595   4.443   2.830  13.571  0.7543 -0.4414 -0.8641
 6368TIP3    H240596   4.449   2.978  13.542 -0.4862 -0.3107 -0.4738
 6369TIP3   OH240597   1.171   3.864   2.708  0.4053 -0.0311  0.4061
 6369TIP3    H140598   1.095   3.913   2.676  0.0171 -0.5302  0.5658
 6369TIP3    H240599   1.241   3.929   2.712 -0.3438  0.7198  1.4860
 6370TIP3   OH240600   3.883   3.703  11.536 -0.0263  0.2553 -0.1072
 6370TIP3    H140601   3.892   3.728  11.628 -0.7642  0.6129 -0.1241
 6370TIP3    H240602   3.877   3.787  11.489  1.9927  0.0960 -0.6632
 6371TIP3   OH240603   3.970   0.308   6.279 -0.0577  0.3010  0.2021
 6371TIP3    H140604   3.966   0.212   6.279  0.7080  0.2599  0.5966
 6371TIP3    H240605   3.939   0.334   6.193 -0.2979 -0.3053  0.1048
 6372TIP3   OH240606   4.839   5.757   5.412  0.1641  0.0272 -0.1958
 6372TIP3    H140607   4.899   5.772   5.485  1.5482  0.3393 -1.3696
 6372TIP3    H240608   4.757   5.797   5.439  0.7924  0.5082  1.0170
 6373TIP3   OH240609   2.777   0.902  12.922 -0.4374  0.1695 -0.6698
 6373TIP3    H140610   2.790   0.812  12.891 -0.3216 -0.3164  0.7529
 6373TIP3    H240611   2.851   0.951  12.884  1.6973 -1.1398  1.6306
 6374TIP3   OH240612   2.612   3.731   5.704  0.4623 -0.2248 -0.2655
 6374TIP3    H140613   2.558   3.779   5.642  0.3012  0.9280  0.7556
 6374TIP3    H240614   2.651   3.798   5.760  2.5439 -1.0677 -0.6471
 6375TIP3   OH240615   1.185   2.067  14.237  0.7311 -0.4027  0.2279
 6375TIP3    H140616   1.113   2.014  14.273  0.7830 -1.0801 -0.6630
 6375TIP3    H240617   1.141   2.143  14.198  0.5409 -0.5893  0.0815
 6376TIP3   OH240618   6.202   3.846  13.273  0.0364 -0.2441  0.6499
 6376TIP3    H140619   6.205   3.938  13.300  0.1659 -0.1242  0.2289
 6376TIP3    H240620   6.162   3.800  13.347  1.7188 -0.1316  1.6556
 6377TIP3   OH240621   3.292   0.299  15.442  0.0832 -0.0749  0.0658
 6377TIP3    H140622   3.333   0.266  15.523 -1.3960  0.2008  0.9474
 6377TIP3    H240623   3.339   0.380  15.423 -0.3327  0.4909  1.3368
 6378TIP3   OH240624   2.750   6.097   2.472  0.4910 -0.1701  0.8044
 6378TIP3    H140625   2.818   6.060   2.416 -0.1109  1.2390 -0.9383
 6378TIP3    H240626   2.796   6.127   2.550  1.3395 -2.2766  1.1343
 6379TIP3   OH240627   5.043   3.850   6.262 -0.3501 -0.5657  0.0118
 6379TIP3    H140628   5.047   3.901   6.182 -0.0075  0.6818  0.8013
 6379TIP3    H240629   5.109   3.890   6.319  0.5199 -2.4120  0.3575
 6380TIP3   OH240630   5.552   3.758   4.239 -0.0864  0.0162 -1.0677
 6380TIP3    H140631   5.490   3.716   4.180 -0.1963 -0.5779 -0.5411
 6380TIP3    H240632   5.499   3.815   4.294 -0.0017  0.4705 -1.4522
 6381TIP3   OH240633   5.119   2.558  13.540  0.6288  0.4444  0.0807
 6381TIP3    H140634   5.048   2.507  13.502  0.8413 -0.3191  0.7000
 6381TIP3    H240635   5.077   2.620  13.599  0.5270 -0.5640  1.0833
 6382TIP3   OH240636   0.362   6.806   5.347  0.3230  0.1022 -0.2440
 6382TIP3    H140637   0.363   6.858   5.427 -1.4804 -0.4123  0.1325
 6382TIP3    H240638   0.311   6.858   5.285 -0.2427 -0.5414 -0.3269
 6383TIP3   OH240639   5.197   4.863  12.091 -0.2020  0.5281 -0.3269
 6383TIP3    H140640   5.171   4.948  12.055 -3.3352 -0.6973 -1.1611
 6383TIP3    H240641   5.116   4.812  12.093  1.5368 -2.3374  0.4881
 6384TIP3   OH240642   0.616   6.665  12.442 -0.1508 -0.0035  0.4574
 6384TIP3    H140643   0.540   6.724  12.439 -0.3208 -0.2840 -2.3252
 6384TIP3    H240644   0.596   6.598  12.377  1.7505 -1.0367  0.9023
 6385TIP3   OH240645   5.886   0.212   4.904 -0.5343  0.1519  0.5319
 6385TIP3    H140646   5.868   0.128   4.945  2.3436 -0.3071  0.9663
 6385TIP3    H240647   5.811   0.267   4.927 -1.8581 -1.9059  1.2585
 6386TIP3   OH240648   6.631   4.187   0.817 -0.2699 -0.0367  0.0203
 6386TIP3    H140649   6.613   4.184   0.911 -0.7041  1.7341  0.0149
 6386TIP3    H240650   6.556   4.233   0.780  0.2090 -0.1583 -1.1277
 6387TIP3   OH240651   1.670   6.652   4.044  0.1420 -0.4453 -0.1030
 6387TIP3    H140652   1.707   6.568   4.071  0.1003 -0.1534  0.8688
 6387TIP3    H240653   1.594   6.664   4.101 -1.0021 -0.6672 -1.5578
 6388TIP3   OH240654   5.560   0.857   6.031 -0.3505  0.2506 -0.1382
 6388TIP3    H140655   5.517   0.943   6.028 -0.7054  0.0745 -0.0846
 6388TIP3    H240656   5.636   0.871   6.087 -0.9320  0.2989  0.6421
 6389TIP3   OH240657   4.486   3.583  14.115 -0.8081 -0.1294 -0.5875
 6389TIP3    H140658   4.504   3.541  14.199 -0.1537 -0.7771 -1.0431
 6389TIP3    H240659   4.537   3.532  14.051 -1.0959  0.5107 -1.3375
 6390TIP3   OH240660   2.654   5.928   1.537  0.0322 -0.2509  0.4940
 6390TIP3    H140661   2.580   5.867   1.528 -0.3539  0.4890 -1.8574
 6390TIP3    H240662   2.633   5.999   1.476  0.0286  2.7508  3.9043
 6391TIP3   OH240663   3.842   4.897   0.644  0.1999  0.2859  0.1801
 6391TIP3    H140664   3.934   4.872   0.638  0.8677  2.8444 -1.0500
 6391TIP3    H240665   3.797   4.817   0.671  3.0526 -0.4637  3.0885
 6392TIP3   OH240666   6.503   3.196  11.542 -0.0624  0.0833 -0.0693
 6392TIP3    H140667   6.588   3.210  11.583 -0.0551 -0.2090  0.0195
 6392TIP3    H240668   6.451   3.273  11.567  0.5582  0.8563 -1.1378
 6393TIP3   OH240669   4.270   6.125  10.856 -0.6576  0.6220  0.3100
 6393TIP3    H140670   4.238   6.110  10.767  0.5459 -1.0020  0.1135
 6393TIP3    H240671   4.362   6.150  10.844 -0.3400 -0.1253  1.1084
 6394TIP3   OH240672   0.623   6.504   0.090 -0.3178 -0.3208  0.0496
 6394TIP3    H140673   0.607   6.409   0.086  1.9978 -0.7201 -0.5944
 6394TIP3    H240674   0.659   6.525   0.004  0.9718  0.7868  0.8512
 6395TIP3   OH240675   0.353   2.252  16.584 -0.3866  0.3451  0.4333
 6395TIP3    H140676   0.294   2.257  16.508 -0.4157  0.8660  0.4897
 6395TIP3    H240677   0.409   2.177  16.566 -0.9227 -0.0222  0.2777
 6396TIP3   OH240678   4.696   5.991   2.949  0.8533  0.3799 -0.0212
 6396TIP3    H140679   4.633   5.980   2.878  0.0485 -2.6749  1.0740
 6396TIP3    H240680   4.782   5.987   2.906  0.3584  0.4862 -1.0337
 6397TIP3   OH240681   0.258   1.885  14.791  0.0297  0.0394  0.0465
 6397TIP3    H140682   0.229   1.949  14.726  0.3850  0.7378  0.5654
 6397TIP3    H240683   0.309   1.936  14.854  0.3716 -0.7671  0.4357
 6398TIP3   OH240684   5.250   1.965   2.374 -0.4114 -0.3030  0.0302
 6398TIP3    H140685   5.159   1.979   2.399  0.0628  1.3699  0.8757
 6398TIP3    H240686   5.284   1.904   2.440 -0.3750  0.6395  0.8857
 6399TIP3   OH240687   4.201   6.175  13.383  0.0655  0.4468  0.2117
 6399TIP3    H140688   4.123   6.210  13.341  0.1343  2.4703  1.7422
 6399TIP3    H240689   4.185   6.184  13.477  3.1919  3.4357  0.5550
 6400TIP3   OH240690   5.438   2.684   3.763 -0.0844  0.5392  0.0980
 6400TIP3    H140691   5.452   2.779   3.762 -1.0777  0.6775 -1.2703
 6400TIP3    H240692   5.525   2.648   3.782  0.3099  1.7119  0.5849
 6401TIP3   OH240693   4.022   3.494   6.432 -0.2765 -0.0428 -0.0030
 6401TIP3    H140694   3.931   3.521   6.440 -0.8987 -1.6229 -1.3715
 6401TIP3    H240695   4.042   3.502   6.339  1.4413  1.6560  0.4788
 6402TIP3   OH240696   0.002   0.423   1.675 -0.0033  0.3737  0.1185
 6402TIP3    H140697   0.097   0.424   1.689 -0.0862 -0.3173  0.7190
 6402TIP3    H240698  -0.011   0.484   1.602  0.9560  0.0587 -0.3286
 6403TIP3   OH240699   6.752   4.881   3.219 -0.4270 -0.1098  0.1872
 6403TIP3    H140700   6.755   4.976   3.210 -1.3600 -0.0010  1.0530
 6403TIP3    H240701   6.785   4.864   3.307  1.9807 -0.7552 -0.7810
 6404TIP3   OH240702   0.761   6.592  10.983 -0.4714  0.0926 -0.3752
 6404TIP3    H140703   0.679   6.548  10.964 -0.8478  1.1314 -1.2268
 6404TIP3    H240704   0.787   6.633  10.900  1.3583 -0.9469 -0.3469
 6405TIP3   OH240705   5.108   4.213   1.851 -0.7052  0.1755  0.1305
 6405TIP3    H140706   5.169   4.219   1.924 -1.1761 -0.1793  0.5503
 6405TIP3    H240707   5.164   4.217   1.773  0.0174 -1.8280  0.5109
 6406TIP3   OH240708   3.704   6.495   6.281  0.0572  0.4774 -0.4975
 6406TIP3    H140709   3.657   6.424   6.325  2.2720 -0.4946  0.3942
 6406TIP3    H240710   3.653   6.512   6.202 -1.3386 -1.0912  0.0366
 6407TIP3   OH240711   1.100   0.482  13.362 -0.0293  0.2589 -0.2856
 6407TIP3    H140712   1.024   0.524  13.320 -0.4173  0.5424  0.6935
 6407TIP3    H240713   1.176   0.522  13.319 -0.4104  1.4616  0.1372
 6408TIP3   OH240714   4.382   3.753  12.681 -0.7357 -0.0781  0.5932
 6408TIP3    H140715   4.295   3.763  12.641  0.0216  2.6400 -0.4459
 6408TIP3    H240716   4.437   3.723  12.608 -0.8797 -2.4474  1.4012
 6409TIP3   OH240717   2.514   0.554  14.259  0.2398  0.6295  0.3318
 6409TIP3    H140718   2.495   0.647  14.276  0.5935  1.1326 -1.8305
 6409TIP3    H240719   2.610   0.549  14.262  0.1719  0.1042  1.5579
 6410TIP3   OH240720   2.203   2.661  14.679 -0.3014 -0.0042 -0.4081
 6410TIP3    H140721   2.293   2.650  14.649 -0.9427 -0.6438 -2.1782
 6410TIP3    H240722   2.188   2.590  14.741 -0.2352 -1.1707 -1.7078
 6411TIP3   OH240723   3.780   5.756  13.524 -0.8429 -0.1313  0.4293
 6411TIP3    H140724   3.717   5.687  13.503 -0.2341 -0.4638 -0.3243
 6411TIP3    H240725   3.865   5.714  13.515 -0.4396  0.9299 -0.8605
 6412TIP3   OH240726   5.326   1.460   5.543 -0.0143 -0.4613  0.2585
 6412TIP3    H140727   5.400   1.514   5.513 -2.3260  1.7918 -1.5753
 6412TIP3    H240728   5.365   1.402   5.609  3.3900  0.6422 -0.6465
 6413TIP3   OH240729   0.416   3.451  11.273 -0.3094  0.0991 -0.2324
 6413TIP3    H140730   0.363   3.529  11.290 -0.0885  0.3001 -0.4470
 6413TIP3    H240731   0.359   3.377  11.295 -0.3331  0.3307  0.4902
 6414TIP3   OH240732   6.335   5.298   5.131  0.1111 -0.0417 -0.0249
 6414TIP3    H140733   6.409   5.342   5.173  1.2540 -0.4490 -1.5835
 6414TIP3    H240734   6.357   5.297   5.038 -1.7502 -0.3933 -0.4822
 6415TIP3   OH240735   1.570   2.766  12.095  0.0626  0.3286  0.0952
 6415TIP3    H140736   1.594   2.853  12.065 -2.6142  0.9885 -0.2578
 6415TIP3    H240737   1.506   2.781  12.165 -1.3566 -1.3339 -0.7916
 6416TIP3   OH240738   1.943   0.614   1.497 -0.3298  0.0159  0.7485
 6416TIP3    H140739   1.934   0.708   1.481  0.1528  0.1421  1.1855
 6416TIP3    H240740   2.037   0.602   1.516 -0.4210 -0.5235  0.8613
 6417TIP3   OH240741   4.759   5.255  10.574  0.3636 -0.0959 -0.5293
 6417TIP3    H140742   4.831   5.291  10.627 -0.4097  0.5783  0.0703
 6417TIP3    H240743   4.773   5.161  10.576 -0.6692 -0.2319  2.3892
 6418TIP3   OH240744   2.466   6.593   2.573 -0.3250  0.4058 -0.3429
 6418TIP3    H140745   2.429   6.613   2.487 -1.3623  0.5609  0.1275
 6418TIP3    H240746   2.390   6.595   2.632  0.5877  1.5818  0.7894
 6419TIP3   OH240747   1.033   5.439   5.307 -0.4855 -0.1375 -0.3142
 6419TIP3    H140748   0.991   5.524   5.299 -0.6764 -0.1786  0.1972
 6419TIP3    H240749   1.084   5.445   5.388 -1.3772 -0.8784  0.3085
 6420TIP3   OH240750   1.466   0.665   1.285  0.5281  0.1044  0.3792
 6420TIP3    H140751   1.442   0.631   1.371 -1.4400  0.7274  0.0793
 6420TIP3    H240752   1.548   0.712   1.301  1.2856 -1.5236  1.5111
 6421TIP3   OH240753   0.432   3.710  12.095  0.1478  0.2887  0.1958
 6421TIP3    H140754   0.370   3.739  12.027  1.2635 -0.1743 -1.0548
 6421TIP3    H240755   0.425   3.615  12.094  0.4551  0.2638  0.4550
 6422TIP3   OH240756   0.546   4.833   4.887  0.0157 -0.3822  0.3217
 6422TIP3    H140757   0.596   4.763   4.844  1.7020  0.9361  0.1299
 6422TIP3    H240758   0.574   4.913   4.843 -0.6747  0.6128  1.6843
 6423TIP3   OH240759   5.157   6.794   3.276  0.2468 -0.3393  0.3016
 6423TIP3    H140760   5.066   6.775   3.298  0.4485 -0.1458  1.3094
 6423TIP3    H240761   5.160   6.889   3.267  0.3229 -0.3581  0.1228
 6424TIP3   OH240762   2.401   2.293   5.025  0.1148 -0.6364  0.1695
 6424TIP3    H140763   2.478   2.245   5.057 -0.6735 -2.1584 -0.1628
 6424TIP3    H240764   2.426   2.322   4.937 -0.0652 -2.0884 -0.3814
 6425TIP3   OH240765   1.429   0.772   5.551  0.4229 -0.3224  0.0877
 6425TIP3    H140766   1.510   0.807   5.589  0.5922  1.6477 -1.9660
 6425TIP3    H240767   1.457   0.696   5.501  1.2580  1.1181 -1.6978
 6426TIP3   OH240768   3.058   5.354  11.891 -0.7380  0.7303  0.2249
 6426TIP3    H140769   3.140   5.391  11.924 -0.9767  0.9132  0.6126
 6426TIP3    H240770   3.025   5.421  11.830 -0.9907  1.0037  0.6573
 6427TIP3   OH240771   1.470   1.919  14.378 -0.2436 -0.3168 -0.0473
 6427TIP3    H140772   1.420   1.848  14.337 -2.8474  1.3802  0.0335
 6427TIP3    H240773   1.497   1.974  14.304 -1.4934  0.5938  0.1522
 6428TIP3   OH240774   4.419   3.309  16.847  0.4441 -0.1788 -0.0900
 6428TIP3    H140775   4.377   3.349  16.771 -1.6276  0.5949  1.3925
 6428TIP3    H240776   4.413   3.215  16.832 -1.6112 -0.0796 -0.0732
 6429TIP3   OH240777   6.742   0.212  16.510  0.4556 -0.2707 -0.0233
 6429TIP3    H140778   6.783   0.285  16.464  0.8192 -0.7456 -0.4733
 6429TIP3    H240779   6.648   0.222  16.494  0.3602  1.0575  1.3461
 6430TIP3   OH240780   2.321   1.047   4.229  0.2332 -0.3068 -0.1535
 6430TIP3    H140781   2.317   1.048   4.133  2.0186  0.6185 -0.2392
 6430TIP3    H240782   2.371   0.968   4.249 -1.5313 -1.3805  0.0971
 6431TIP3   OH240783   2.066   1.439   6.273  0.3953 -0.2152  0.1434
 6431TIP3    H140784   1.987   1.395   6.243  0.8299 -0.7440 -0.2068
 6431TIP3    H240785   2.130   1.369   6.288  0.0487 -0.0314  2.7393
 6432TIP3   OH240786   6.269   6.376  13.026  0.0556  0.5063  0.2792
 6432TIP3    H140787   6.256   6.304  12.965  0.3938  1.2100 -0.6240
 6432TIP3    H240788   6.268   6.455  12.972 -0.5554  1.2120  1.2802
 6433TIP3   OH240789   5.635   5.466  16.372  0.3530  0.7827 -0.1198
 6433TIP3    H140790   5.667   5.550  16.339 -0.3698  1.3077  0.5032
 6433TIP3    H240791   5.576   5.434  16.304  2.7637 -0.5718 -1.6454
 6434TIP3   OH240792   6.725   0.180   1.271  0.2123 -0.0978  0.9942
 6434TIP3    H140793   6.715   0.089   1.242 -0.6223 -0.0190  1.0246
 6434TIP3    H240794   6.816   0.186   1.302  0.0526 -1.1166  1.6736
 6435TIP3   OH240795   4.869   3.260   1.949 -0.3826  0.0801  0.4521
 6435TIP3    H140796   4.902   3.273   2.038  0.0965 -2.4788  0.6977
 6435TIP3    H240797   4.775   3.246   1.960 -0.8869  3.0290  0.1929
 6436TIP3   OH240798   0.385   0.530  13.572 -0.5364 -0.4027 -0.3720
 6436TIP3    H140799   0.332   0.601  13.606  0.0226 -0.6883  1.1595
 6436TIP3    H240800   0.324   0.474  13.525 -1.1551  0.5594 -0.7108
 6437TIP3   OH240801   3.565   0.131   1.871  0.2923  0.7845  0.0777
 6437TIP3    H140802   3.606   0.045   1.865  1.4406  1.0355  3.3713
 6437TIP3    H240803   3.638   0.193   1.879 -0.4922  2.1981 -2.7870
 6438TIP3   OH240804   1.917   3.861   4.845  0.4261 -0.0480 -0.1988
 6438TIP3    H140805   1.967   3.930   4.801 -1.1345  1.0686 -0.2505
 6438TIP3    H240806   1.831   3.900   4.862  0.8036 -0.5827  3.4455
 6439TIP3   OH240807   1.810   5.720   2.075 -0.3668 -0.5603  0.1429
 6439TIP3    H140808   1.831   5.814   2.077  1.4307 -0.9674  0.8571
 6439TIP3    H240809   1.797   5.701   1.982  1.4770 -0.0623 -0.2366
 6440TIP3   OH240810   1.629   6.044  15.207 -0.0011  0.4625  0.5988
 6440TIP3    H140811   1.637   5.977  15.276 -0.4331 -1.1152 -0.8421
 6440TIP3    H240812   1.719   6.064  15.183  0.1280 -0.0706  0.6201
 6441TIP3   OH240813   3.984   2.326  14.555 -0.0549 -0.0397 -0.3399
 6441TIP3    H140814   3.993   2.313  14.461 -0.2233  0.3565 -0.4089
 6441TIP3    H240815   4.011   2.242  14.593 -1.5600 -0.7657 -0.8181
 6442TIP3   OH240816   3.445   6.530   0.993  0.2346  0.4593 -0.1767
 6442TIP3    H140817   3.451   6.436   0.976 -1.7975  0.7235 -2.7807
 6442TIP3    H240818   3.529   6.565   0.965  0.7228 -0.4866  0.0942
 6443TIP3   OH240819   5.979   3.108   5.026 -0.0285  0.0793  0.5053
 6443TIP3    H140820   5.996   3.015   5.038 -0.0012  0.0199 -0.0057
 6443TIP3    H240821   6.066   3.148   5.018 -0.0342  0.1735  0.9034
 6444TIP3   OH240822   3.115   6.117  13.598 -0.1046 -0.5480  0.0182
 6444TIP3    H140823   3.178   6.049  13.623  1.8997  1.4400  0.5630
 6444TIP3    H240824   3.082   6.088  13.513  3.4200 -0.4727 -1.4880
 6445TIP3   OH240825   5.172   5.124   2.710  0.4324  0.3010 -0.4884
 6445TIP3    H140826   5.246   5.183   2.721 -0.1859  0.7965  1.0829
 6445TIP3    H240827   5.204   5.039   2.738  0.4743  0.4607 -0.0597
 6446TIP3   OH240828   1.570   3.866  16.478 -0.4517  0.7264  0.3850
 6446TIP3    H140829   1.499   3.897  16.535 -1.1779 -0.8878  0.4030
 6446TIP3    H240830   1.557   3.771  16.475 -0.4222  0.7818 -2.4994
 6447TIP3   OH240831   0.647   1.709  15.921 -0.9010 -0.1242 -0.1595
 6447TIP3    H140832   0.719   1.661  15.963 -1.9102 -2.1953 -0.7269
 6447TIP3    H240833   0.672   1.714  15.829 -0.6903  0.6489 -0.0619
 6448TIP3   OH240834   5.255   3.142  13.444  0.2052 -0.0933 -0.6228
 6448TIP3    H140835   5.247   3.169  13.352  0.3180  0.1283 -0.5692
 6448TIP3    H240836   5.219   3.054  13.447 -4.9278  1.8820  0.1501
 6449TIP3   OH240837   5.218   3.892   5.012 -0.5831 -0.2303  0.2950
 6449TIP3    H140838   5.215   3.936   4.927  2.7358  1.1495  0.8114
 6449TIP3    H240839   5.167   3.948   5.070 -1.7946 -0.5123 -0.4690
 6450TIP3   OH240840   0.412   3.295   3.870  0.1614 -0.4504  0.1100
 6450TIP3    H140841   0.389   3.331   3.956  0.7340 -0.4887  0.2777
 6450TIP3    H240842   0.457   3.213   3.889  2.0198  0.4891 -0.1509
 6451TIP3   OH240843   3.490   4.493   1.637 -0.2171 -0.4390 -0.1429
 6451TIP3    H140844   3.582   4.473   1.619 -0.0934 -0.8873  0.9552
 6451TIP3    H240845   3.492   4.574   1.687 -0.3137 -1.2837  1.2527
 6452TIP3   OH240846   5.290   2.775   6.615 -0.9130  0.3665  0.7955
 6452TIP3    H140847   5.297   2.743   6.705 -1.1783 -0.3837  0.5533
 6452TIP3    H240848   5.238   2.854   6.622 -3.1672 -1.0965  0.9998
 6453TIP3   OH240849   4.135   6.204   0.994 -0.4179 -0.1230 -0.5623
 6453TIP3    H140850   4.184   6.286   0.996 -0.6662  0.0121  1.3348
 6453TIP3    H240851   4.146   6.168   1.082  0.3446 -2.5228 -1.5936
 6454TIP3   OH240852   5.159   3.507  12.412 -0.3207  0.0029  0.1900
 6454TIP3    H140853   5.108   3.553  12.479  0.9823 -0.6751  1.6904
 6454TIP3    H240854   5.243   3.553  12.409 -0.1202 -0.4001 -0.4686
 6455TIP3   OH240855   3.025   4.086  15.073  0.6557 -0.3085  0.1998
 6455TIP3    H140856   2.989   4.033  15.001  1.3146 -1.1904  0.5011
 6455TIP3    H240857   3.089   4.144  15.030 -0.4840  0.6508 -0.2130
 6456TIP3   OH240858   4.798   1.424  16.174 -0.4067  0.0772 -0.2123
 6456TIP3    H140859   4.890   1.415  16.198  0.1121 -1.6038 -2.6656
 6456TIP3    H240860   4.754   1.353  16.221 -0.0894 -0.4344 -0.6713
 6457TIP3   OH240861   6.706   0.761   1.933 -0.1333  0.2672  0.0207
 6457TIP3    H140862   6.642   0.826   1.904  1.6819  1.4326 -1.4688
 6457TIP3    H240863   6.705   0.694   1.865  0.6007  0.5443 -0.2651
 6458TIP3   OH240864   3.832   5.889   1.031  0.0706 -0.0543 -0.1670
 6458TIP3    H140865   3.891   5.886   1.107 -0.4855 -0.0133  0.2688
 6458TIP3    H240866   3.884   5.853   0.959  0.0559 -1.6795  0.5988
 6459TIP3   OH240867   0.412   0.718   5.545 -0.1636 -0.3098  0.1564
 6459TIP3    H140868   0.328   0.761   5.534  0.9008  1.9410  0.5353
 6459TIP3    H240869   0.393   0.641   5.598 -1.9555  0.2820  0.3986
 6460TIP3   OH240870   3.239   6.649  15.097  0.3148  0.0545  0.0248
 6460TIP3    H140871   3.162   6.605  15.060 -0.4015  2.0309 -0.8586
 6460TIP3    H240872   3.313   6.606  15.054 -0.2225 -2.2800  1.3231
 6461TIP3   OH240873   0.290   1.681  10.748 -0.3871  0.2380  1.1573
 6461TIP3    H140874   0.237   1.611  10.787  0.1069 -1.1385 -0.5680
 6461TIP3    H240875   0.238   1.713  10.675 -0.4616  1.4582  1.7444
 6462TIP3   OH240876   2.410   2.948  10.863 -0.1480  0.3378  0.5166
 6462TIP3    H140877   2.490   2.917  10.906  0.0522 -0.1301 -0.1859
 6462TIP3    H240878   2.413   3.043  10.872  0.0025  0.2619  1.3399
 6463TIP3   OH240879   5.440   5.295  16.252  0.0458  0.5311 -0.5179
 6463TIP3    H140880   5.455   5.204  16.227 -0.9436  0.3158 -0.3600
 6463TIP3    H240881   5.418   5.339  16.169  0.8508  0.6988 -0.6439
 6464TIP3   OH240882   6.384   4.901  13.555  0.0144 -0.0742 -0.0044
 6464TIP3    H140883   6.389   4.814  13.516  0.7454 -0.1833  0.3329
 6464TIP3    H240884   6.470   4.915  13.594 -0.1488  0.7401  0.0677
 6465TIP3   OH240885   6.758   5.807   3.033  0.2071  0.0037 -0.3747
 6465TIP3    H140886   6.665   5.827   3.028 -0.0453 -0.7546  1.0548
 6465TIP3    H240887   6.801   5.893   3.032 -0.5299  0.3760 -0.3615
 6466TIP3   OH240888   1.265   2.824  16.577  0.4156 -0.2137  0.3127
 6466TIP3    H140889   1.200   2.771  16.529  0.7194 -1.6901  1.5199
 6466TIP3    H240890   1.325   2.855  16.509  1.3446 -3.0149 -0.1919
 6467TIP3   OH240891   3.682   4.927   4.702  0.2286  0.3076 -0.2675
 6467TIP3    H140892   3.655   5.016   4.724 -1.0089 -0.3819  1.1183
 6467TIP3    H240893   3.773   4.921   4.731  1.0597  1.8306 -2.5060
 6468TIP3   OH240894   4.086   0.908   6.178 -0.1724 -0.0223  0.0103
 6468TIP3    H140895   4.072   0.860   6.260 -0.4801  0.3499  0.1802
 6468TIP3    H240896   4.144   0.980   6.203 -0.0935 -0.0347 -0.1400
 6469TIP3   OH240897   2.699   4.042   3.863  0.2970 -0.3551  0.1831
 6469TIP3    H140898   2.766   4.095   3.906 -1.4268  1.5858  0.6076
 6469TIP3    H240899   2.714   4.055   3.769  0.1247  0.6045  0.2815
 6470TIP3   OH240900   5.493   2.004  15.567 -0.2964  0.0744 -0.2585
 6470TIP3    H140901   5.507   2.001  15.473  0.1093 -1.6458 -0.1508
 6470TIP3    H240902   5.509   2.096  15.591 -0.0797  0.4438 -1.7980
 6471TIP3   OH240903   6.796   3.846  11.753  0.3905  0.2800  0.5389
 6471TIP3    H140904   6.751   3.781  11.699  0.8277  0.2778  0.1826
 6471TIP3    H240905   6.802   3.924  11.698  2.1653 -0.1892  0.0523
 6472TIP3   OH240906   6.684   2.458   2.693  0.0977 -0.1499  0.3399
 6472TIP3    H140907   6.592   2.443   2.670  0.3142  1.1521 -1.4880
 6472TIP3    H240908   6.685   2.458   2.789 -2.0136  1.0001  0.3852
 6473TIP3   OH240909   3.873   6.494   2.466 -0.4689  0.1038 -0.4381
 6473TIP3    H140910   3.865   6.537   2.381  0.4710  0.2211 -0.4711
 6473TIP3    H240911   3.967   6.490   2.483 -0.6146 -0.5334  0.2849
 6474TIP3   OH240912   1.241   2.889  11.348 -0.6182  0.5068  0.8361
 6474TIP3    H140913   1.246   2.984  11.346  0.5835  0.4278 -1.1308
 6474TIP3    H240914   1.326   2.860  11.381 -0.3781  0.0958 -0.1062
 6475TIP3   OH240915   5.068   0.384  10.967  0.0638  0.1295  0.0565
 6475TIP3    H140916   5.121   0.438  10.909  1.3816 -0.0389  1.0882
 6475TIP3    H240917   5.124   0.309  10.988 -0.7985 -0.3502  0.6762
 6476TIP3   OH240918   3.949   5.065   4.362 -0.0442 -0.0686  0.1384
 6476TIP3    H140919   4.001   5.102   4.434  1.0945  0.3091 -0.8672
 6476TIP3    H240920   3.910   4.986   4.399 -2.1105  1.8138  2.1764
 6477TIP3   OH240921   4.955   0.953   2.979  0.0689  0.6733  0.0350
 6477TIP3    H140922   4.957   0.890   2.907 -0.0201  0.1920  0.4468
 6477TIP3    H240923   4.872   0.935   3.024  0.9450 -0.2635  1.3319
 6478TIP3   OH240924   4.803   5.381   4.551  0.3717  0.0817 -0.2891
 6478TIP3    H140925   4.840   5.450   4.495  2.3595 -0.0120  0.8457
 6478TIP3    H240926   4.870   5.366   4.617 -0.6908 -1.8963  0.3757
 6479TIP3   OH240927   1.478   3.276  17.018  0.0814  0.5326  0.0379
 6479TIP3    H140928   1.547   3.225  17.061  0.5885  0.3139 -1.0301
 6479TIP3    H240929   1.433   3.320  17.090 -0.5017 -1.5899  1.0195
 6480TIP3   OH240930   4.306   5.052   2.145 -0.3431 -0.1765 -0.1067
 6480TIP3    H140931   4.381   5.036   2.202  1.1923  4.2889 -0.6048
 6480TIP3    H240932   4.341   5.043   2.056 -0.9223 -0.1414 -0.3385
 6481TIP3   OH240933   4.691   3.358   4.170 -0.0978  0.3314 -0.2882
 6481TIP3    H140934   4.664   3.287   4.228 -0.0509  0.2134 -0.4093
 6481TIP3    H240935   4.730   3.314   4.094  1.7134  0.5237  0.5074
 6482TIP3   OH240936   4.802   6.681   2.460  0.1991  0.0907  0.5610
 6482TIP3    H140937   4.847   6.665   2.377  1.7248  0.3704  1.3212
 6482TIP3    H240938   4.766   6.596   2.484 -0.1515 -0.0170 -0.3227
 6483TIP3   OH240939   3.911   1.860  14.553  0.4749  0.0442 -0.4664
 6483TIP3    H140940   3.869   1.783  14.515 -0.1459  1.2661 -2.3089
 6483TIP3    H240941   3.961   1.898  14.481 -0.8648  2.5088 -0.1410
 6484TIP3   OH240942   2.994   3.906   1.930  0.2826  0.4951 -0.2625
 6484TIP3    H140943   2.927   3.967   1.962  0.4089  0.9143 -0.7896
 6484TIP3    H240944   3.054   3.960   1.879 -1.1658 -0.4855 -3.1451
 6485TIP3   OH240945   1.185   1.204   0.165 -0.1833  0.3815 -0.1495
 6485TIP3    H140946   1.094   1.174   0.161 -0.0192 -0.1489  0.0775
 6485TIP3    H240947   1.196   1.234   0.255 -0.8644  2.7791 -0.8372
 6486TIP3   OH240948   2.354   4.309   4.956  0.0574  0.3440  0.3290
 6486TIP3    H140949   2.322   4.395   4.932 -2.7493 -1.2224 -1.8230
 6486TIP3    H240950   2.387   4.271   4.875  2.5325 -0.1662  1.4943
 6487TIP3   OH240951   4.470   6.606  13.068 -0.2592  0.2447  0.0723
 6487TIP3    H140952   4.387   6.567  13.041 -0.1559 -0.4233  0.7287
 6487TIP3    H240953   4.467   6.695  13.031 -1.2916  0.2512  0.1539
 6488TIP3   OH240954   6.645   3.091  15.842 -0.1290 -0.3441 -0.7363
 6488TIP3    H140955   6.683   3.059  15.760  1.0267  2.2383 -1.2666
 6488TIP3    H240956   6.551   3.079  15.831  0.0349 -0.2805 -2.3288
 6489TIP3   OH240957   5.552   0.009  14.890  0.2654  0.4297 -0.3640
 6489TIP3    H140958   5.557   0.080  14.826  0.0369  0.9390  0.1693
 6489TIP3    H240959   5.502   0.047  14.963 -1.7927 -0.9910 -1.0042
 6490TIP3   OH240960   6.427   6.192  17.079  0.2247 -0.4574 -0.4929
 6490TIP3    H140961   6.469   6.112  17.110 -0.1880  0.0899  1.5594
 6490TIP3    H240962   6.499   6.250  17.055  0.5691 -0.7574 -0.1844
 6491TIP3   OH240963   0.526   0.273   0.988 -0.4033 -0.2401 -0.1377
 6491TIP3    H140964   0.575   0.203   1.030 -0.9174  0.2085  1.2180
 6491TIP3    H240965   0.446   0.231   0.957  0.5191 -0.8344 -1.7886
 6492TIP3   OH240966   5.682   3.240   4.562 -0.0158 -0.1635  0.3729
 6492TIP3    H140967   5.674   3.332   4.538  0.7778 -0.0235  0.6503
 6492TIP3    H240968   5.693   3.240   4.657 -0.2307 -0.5518  0.3983
 6493TIP3   OH240969   0.106   1.259   2.827  0.2030 -0.0273  0.1251
 6493TIP3    H140970   0.105   1.171   2.789 -1.3116 -0.2983  0.7789
 6493TIP3    H240971   0.186   1.260   2.880 -0.2143 -1.3230  0.8175
 6494TIP3   OH240972   6.227   1.042  15.978  0.5760  0.2079 -0.0348
 6494TIP3    H140973   6.256   1.023  16.067  0.2807 -0.8063 -0.1490
 6494TIP3    H240974   6.283   1.113  15.949  1.1454  0.0675  0.7126
 6495TIP3   OH240975   0.026   1.809  14.454  0.1938 -0.0381 -0.3621
 6495TIP3    H140976   0.044   1.867  14.528  1.3430  1.2032 -1.6039
 6495TIP3    H240977  -0.036   1.745  14.489 -0.4167  1.4110  1.2649
 6496TIP3   OH240978   0.133   4.098   0.514  0.3366 -0.3155 -0.2277
 6496TIP3    H140979   0.224   4.081   0.488  1.1302  1.0016  1.5072
 6496TIP3    H240980   0.124   4.193   0.509 -0.7282 -0.3783  0.2700
 6497TIP3   OH240981   1.078   4.481  11.961 -0.0480 -0.1704 -0.0443
 6497TIP3    H140982   1.050   4.407  11.908  1.0374 -0.4944 -0.1923
 6497TIP3    H240983   1.074   4.448  12.051  2.1418 -1.0189 -0.2285
 6498TIP3   OH240984   3.350   2.888   0.322 -0.0753 -0.1729 -0.1105
 6498TIP3    H140985   3.442   2.884   0.297  0.6656 -0.2241  2.4661
 6498TIP3    H240986   3.347   2.949   0.396 -2.5149  1.7943 -1.7502
 6499TIP3   OH240987   5.994   6.614  11.618 -0.2150 -0.2780  0.6240
 6499TIP3    H140988   5.963   6.700  11.645 -0.7480 -0.5333  0.8330
 6499TIP3    H240989   6.060   6.590  11.684 -0.1343 -0.0722  0.6186
 6500TIP3   OH240990   6.571   4.926   5.152 -0.4280  0.2384 -0.2385
 6500TIP3    H140991   6.642   4.898   5.208  0.1170  0.5383 -0.7741
 6500TIP3    H240992   6.500   4.950   5.212 -0.0102  0.1172  0.2966
 6501TIP3   OH240993   2.557   6.667   1.124 -0.5214  0.1492 -0.2605
 6501TIP3    H140994   2.546   6.723   1.201  2.2786  1.3105 -0.6464
 6501TIP3    H240995   2.551   6.578   1.159  2.0024  0.6389  1.5869
 6502TIP3   OH240996   1.558   6.100  14.377  0.2904  0.0082  0.3608
 6502TIP3    H140997   1.492   6.080  14.311 -0.9319  1.7927  1.0091
 6502TIP3    H240998   1.580   6.016  14.415 -2.0710 -0.5534  0.5611
 6503TIP3   OH240999   2.420   6.737  14.820  0.0102  0.1377 -0.4962
 6503TIP3    H141000   2.357   6.781  14.762  0.6559  1.3491 -0.3036
 6503TIP3    H241001   2.471   6.809  14.858  1.6511 -0.8457 -0.8147
 6504TIP3   OH241002   2.970   3.260  14.113 -0.2858 -0.0860 -0.4116
 6504TIP3    H141003   2.980   3.165  14.118  1.1663  0.1027  0.3953
 6504TIP3    H241004   2.875   3.275  14.119 -0.3532 -1.3191  2.3985
 6505TIP3   OH241005   1.821   0.037   0.989  0.6193  0.6632 -0.2414
 6505TIP3    H141006   1.845   0.129   1.004 -1.5239  1.7781 -3.1797
 6505TIP3    H241007   1.729   0.032   1.015  0.6096 -0.5490 -0.4903
 6506TIP3   OH241008   2.924   0.565   1.558  0.1913 -0.2470 -0.2563
 6506TIP3    H141009   2.938   0.565   1.463  0.6163  1.3754 -0.2056
 6506TIP3    H241010   3.011   0.563   1.596 -0.0105 -2.5916  0.1237
 6507TIP3   OH241011   5.131   3.372  16.577  0.1342  0.3209 -0.4400
 6507TIP3    H141012   5.123   3.357  16.671 -0.7445 -1.2837 -0.7499
 6507TIP3    H241013   5.124   3.467  16.568  0.6527  0.5338  1.1398
 6508TIP3   OH241014   0.806   6.441  16.458 -0.6288  0.5018 -0.2700
 6508TIP3    H141015   0.764   6.526  16.443 -1.8529 -0.1098 -0.3869
 6508TIP3    H241016   0.850   6.450  16.542  0.2473  1.6349 -0.8326
 6509TIP3   OH241017   6.520   2.805   0.719  0.1123 -0.0445 -0.5260
 6509TIP3    H141018   6.580   2.879   0.729  1.0262 -0.6988 -1.1336
 6509TIP3    H241019   6.450   2.839   0.663  0.2818  0.5052 -0.4161
 6510TIP3   OH241020   0.390   2.376   3.930 -0.3294 -0.1347 -0.3379
 6510TIP3    H141021   0.333   2.388   4.006  1.1186  0.5086  0.6895
 6510TIP3    H241022   0.447   2.453   3.931  0.9858 -1.0769 -0.9352
 6511TIP3   OH241023   0.939   3.494  15.134 -0.3311  0.2976  0.3205
 6511TIP3    H141024   0.857   3.491  15.084 -0.0804  1.6294 -0.2040
 6511TIP3    H241025   0.982   3.574  15.104  1.0687 -0.2772  0.7482
 6512TIP3   OH241026   6.263   0.609  12.830  0.0238  0.2254 -0.7593
 6512TIP3    H141027   6.244   0.605  12.736  0.8630 -1.8677 -0.8599
 6512TIP3    H241028   6.298   0.523  12.852  2.3645  1.5382  0.9353
 6513TIP3   OH241029   5.731   3.612  16.877 -0.6226  0.4240  0.1278
 6513TIP3    H141030   5.783   3.632  16.799  1.2423 -0.1581  1.2048
 6513TIP3    H241031   5.664   3.681  16.879 -0.8985  0.2730 -2.1378
 6514TIP3   OH241032   1.045   1.675  11.701  0.9435  0.2693  0.0330
 6514TIP3    H141033   1.023   1.582  11.695 -2.5807  0.8068  2.6904
 6514TIP3    H241034   1.136   1.676  11.732  1.4107 -2.2626 -1.1700
 6515TIP3   OH241035   2.527   2.986  11.129 -0.1242  0.1392 -0.3853
 6515TIP3    H141036   2.603   2.944  11.090 -0.2890  0.6629 -1.2726
 6515TIP3    H241037   2.533   3.077  11.102 -1.4089  0.0623 -0.9965
 6516TIP3   OH241038   5.760   3.422   0.026 -1.2020  0.0437  0.6794
 6516TIP3    H141039   5.778   3.473  -0.053 -0.4774  0.1371  0.8999
 6516TIP3    H241040   5.758   3.331  -0.004 -1.3538  0.1122  0.4828
 6517TIP3   OH241041   4.368   4.371  13.005 -0.2111 -0.3551  0.2108
 6517TIP3    H141042   4.348   4.349  13.096  1.8445  0.5371  0.9151
 6517TIP3    H241043   4.309   4.444  12.985 -0.4640 -0.3597  0.9158
 6518TIP3   OH241044   4.060   1.152  12.044  0.1105  0.5782  0.5030
 6518TIP3    H141045   4.149   1.134  12.072 -0.3304 -0.5689  1.1942
 6518TIP3    H241046   4.052   1.108  11.960 -0.3950 -0.9368  1.3359
 6519TIP3   OH241047   5.435   3.082   0.313 -0.5774 -0.1519 -0.4638
 6519TIP3    H141048   5.517   3.063   0.357 -1.4968 -0.5840  1.0856
 6519TIP3    H241049   5.439   3.176   0.294  0.5006 -0.2790 -0.9135
 6520TIP3   OH241050   4.173   3.717   5.526  0.2935  0.2022  0.5001
 6520TIP3    H141051   4.149   3.809   5.512  0.6522  0.2104 -0.0755
 6520TIP3    H241052   4.176   3.707   5.621  0.2991  0.7993  0.5628
 6521TIP3   OH241053   1.748   0.716   1.826  0.3994  0.8427  0.6246
 6521TIP3    H141054   1.827   0.663   1.813 -0.7420 -0.6504 -0.3550
 6521TIP3    H241055   1.715   0.690   1.912 -0.7684 -0.8697 -0.3244
 6522TIP3   OH241056   4.510   6.763   4.833  0.0186 -0.2814  0.2190
 6522TIP3    H141057   4.464   6.807   4.762 -0.1493  0.5408  0.8288
 6522TIP3    H241058   4.602   6.762   4.805 -0.1323 -0.4767 -0.2689
 6523TIP3   OH241059   6.250   1.473  11.146 -0.1913 -0.4196 -0.0420
 6523TIP3    H141060   6.287   1.419  11.076  1.6274  2.2133 -1.2356
 6523TIP3    H241061   6.195   1.537  11.101  0.2768  0.7383  0.9801
 6524TIP3   OH241062   1.065   4.338   2.352 -0.4327 -0.5562  0.2013
 6524TIP3    H141063   1.107   4.398   2.413 -0.2187 -0.8391  0.3309
 6524TIP3    H241064   0.991   4.302   2.401 -1.9719  1.3553 -0.6317
 6525TIP3   OH241065   5.106   0.144   6.377 -0.1071  0.2767 -0.0906
 6525TIP3    H141066   5.119   0.236   6.354 -0.3626  0.5246  0.7427
 6525TIP3    H241067   5.011   0.133   6.377 -0.2389  0.8548  2.9679
 6526TIP3   OH241068   5.357   1.763  15.400  0.0839 -0.0674 -0.1513
 6526TIP3    H141069   5.396   1.805  15.477  0.5927  0.2597 -0.5895
 6526TIP3    H241070   5.268   1.800  15.396 -0.2973 -0.8552  0.8722
 6527TIP3   OH241071   4.702   0.962   4.283 -0.0186 -0.5056 -0.1284
 6527TIP3    H141072   4.734   0.966   4.193 -0.5083 -0.1481 -0.2879
 6527TIP3    H241073   4.668   1.050   4.301  1.1088 -0.2388  0.7912
 6528TIP3   OH241074   5.306   1.802   4.090  0.6756 -0.1612  0.1005
 6528TIP3    H141075   5.261   1.722   4.114 -0.8351  0.6253 -0.0861
 6528TIP3    H241076   5.243   1.851   4.037  2.7126 -0.3110 -2.5547
 6529TIP3   OH241077   4.149   4.445   2.982 -0.4157 -0.2665  0.2002
 6529TIP3    H141078   4.147   4.509   2.911  0.9690  2.5533  2.6099
 6529TIP3    H241079   4.234   4.401   2.972  0.8293  1.7703  1.4320
 6530TIP3   OH241080   4.830   5.780  11.335  0.3369  0.4317  0.1494
 6530TIP3    H141081   4.759   5.732  11.376  0.6739 -0.3041 -0.1218
 6530TIP3    H241082   4.870   5.831  11.406 -0.0367  0.3334  0.4287
 6531TIP3   OH241083   3.399   6.815  13.656  0.2591 -0.2735 -0.3763
 6531TIP3    H141084   3.314   6.782  13.628 -0.3979  0.2934  0.9120
 6531TIP3    H241085   3.457   6.739  13.653 -0.2961 -0.6579 -1.2464
 6532TIP3   OH241086   4.850   5.043  12.061 -1.0489  0.0624 -0.2745
 6532TIP3    H141087   4.800   4.994  11.996  0.1601 -1.3329 -0.1854
 6532TIP3    H241088   4.925   5.078  12.012 -2.6129  3.0669 -0.6565
 6533TIP3   OH241089   2.198   1.793   0.900 -0.7694  0.2229 -0.5250
 6533TIP3    H141090   2.163   1.869   0.853 -2.5293  0.6950  1.4679
 6533TIP3    H241091   2.228   1.828   0.984 -0.8383 -1.1452  0.0870
 6534TIP3   OH241092   5.683   6.552   2.058 -0.5645  0.2000  0.2602
 6534TIP3    H141093   5.701   6.606   2.135  1.7584 -0.1690  0.0068
 6534TIP3    H241094   5.658   6.467   2.093  2.0029 -0.4366  0.6399
 6535TIP3   OH241095   3.636   2.227   0.108  0.5968 -0.2534  0.6915
 6535TIP3    H141096   3.551   2.236   0.152  0.1617  0.8721 -0.3475
 6535TIP3    H241097   3.700   2.236   0.178 -0.1039  0.7846  1.2199
 6536TIP3   OH241098   4.020   0.841  11.427 -0.4006  0.4342 -0.1803
 6536TIP3    H141099   4.100   0.795  11.401 -0.6853 -0.7657  1.0292
 6536TIP3    H241100   4.034   0.931  11.398  1.6656  0.3871  0.5632
 6537TIP3   OH241101   3.176   3.278  15.857  0.3312  0.3801 -0.0581
 6537TIP3    H141102   3.257   3.227  15.863  1.0101  0.9613 -3.2183
 6537TIP3    H241103   3.118   3.225  15.802 -0.1727  1.4608 -0.5989
 6538TIP3   OH241104   4.551   0.012  15.826  0.1635 -0.2723 -0.4029
 6538TIP3    H141105   4.527   0.068  15.753  1.2018  0.0977 -0.4714
 6538TIP3    H241106   4.616   0.063  15.875 -0.3873 -0.5921  0.6686
 6539TIP3   OH241107   6.327   4.509  13.895 -0.9179 -0.5545  0.5112
 6539TIP3    H141108   6.250   4.548  13.936 -1.2384 -1.9995  1.3408
 6539TIP3    H241109   6.391   4.501  13.966 -1.4878 -3.1037  0.7902
 6540TIP3   OH241110   2.526   5.904   4.216 -0.1880  0.0677 -0.4709
 6540TIP3    H141111   2.614   5.933   4.242  0.3632 -1.8906 -0.0554
 6540TIP3    H241112   2.468   5.976   4.244  1.3953  1.9747 -1.9328
 6541TIP3   OH241113   1.217   2.400   2.543 -0.2313 -0.1665 -0.7799
 6541TIP3    H141114   1.183   2.376   2.457  0.2759  0.8298 -1.2636
 6541TIP3    H241115   1.156   2.467   2.575 -0.4024 -0.5137 -0.3746
 6542TIP3   OH241116   6.605   1.871   0.973  0.0198  0.0475  0.1417
 6542TIP3    H141117   6.588   1.911   0.888 -2.5506 -0.7696  0.2339
 6542TIP3    H241118   6.530   1.895   1.027  0.9373 -0.6111  1.7603
 6543TIP3   OH241119   0.509   0.994  15.841  0.4550 -0.2823  0.2197
 6543TIP3    H141120   0.591   0.949  15.861  0.2264 -3.0405 -4.3730
 6543TIP3    H241121   0.442   0.927  15.854 -0.7002  0.8614  0.2041
 6544TIP3   OH241122   4.059   5.454  16.563 -0.6940  0.4071 -0.1660
 6544TIP3    H141123   4.029   5.493  16.646 -0.0270  0.1056  0.2209
 6544TIP3    H241124   4.019   5.509  16.495 -2.0718  0.0515  0.3404
 6545TIP3   OH241125   5.001   2.371   0.820  0.1708  0.0310  0.3663
 6545TIP3    H141126   5.042   2.457   0.830  1.2370 -0.4236 -0.1052
 6545TIP3    H241127   4.920   2.390   0.773 -1.1817  1.1811  3.0111
 6546TIP3   OH241128   6.647   6.582  13.124 -0.4955 -0.1731 -0.2996
 6546TIP3    H141129   6.616   6.633  13.050  1.3688 -1.5632 -2.0806
 6546TIP3    H241130   6.740   6.566  13.106 -0.3900 -1.9020  1.5268
 6547TIP3   OH241131   0.171   0.945  12.548 -0.2980 -0.6770  0.3227
 6547TIP3    H141132   0.078   0.953  12.527 -0.2801 -0.3553  0.3615
 6547TIP3    H241133   0.205   1.035  12.542  0.3446 -1.0056 -1.2743
 6548TIP3   OH241134   3.907   0.317   4.036 -0.1078 -0.0508  0.5273
 6548TIP3    H141135   3.823   0.271   4.044  0.6264 -2.0627 -2.3916
 6548TIP3    H241136   3.961   0.281   4.107 -1.2702  0.3436  1.6393
 6549TIP3   OH241137   2.294   6.297   2.941  0.4532 -0.3102 -0.0787
 6549TIP3    H141138   2.358   6.333   3.002 -0.8194 -0.5469  1.4154
 6549TIP3    H241139   2.252   6.374   2.902 -0.0203 -0.1559  0.7246
 6550TIP3   OH241140   3.922   0.314   3.623  0.3719  0.1753 -0.1609
 6550TIP3    H141141   3.968   0.361   3.692  0.0048 -0.2458  0.3749
 6550TIP3    H241142   3.829   0.335   3.637  0.2152 -0.6287  0.0291
 6551TIP3   OH241143   4.068   0.361   4.353  0.2559  0.0450 -0.1472
 6551TIP3    H141144   4.121   0.427   4.309  0.7005  0.1167  0.4909
 6551TIP3    H241145   4.076   0.283   4.298  2.8170 -0.6104  1.0741
 6552TIP3   OH241146   0.751   5.099  14.774 -0.2501  0.2227 -0.8104
 6552TIP3    H141147   0.799   5.029  14.730  0.7021  0.5455 -0.3007
 6552TIP3    H241148   0.819   5.159  14.806 -0.9255  0.2455  0.6590
 6553TIP3   OH241149   1.522   1.249   5.361  0.0513  0.2195 -0.2007
 6553TIP3    H141150   1.534   1.156   5.345 -1.2539  0.1384 -0.7933
 6553TIP3    H241151   1.495   1.255   5.452 -1.9019 -0.1832 -0.7335
 6554TIP3   OH241152   0.591   2.066   1.180 -0.0165  0.5697 -0.0184
 6554TIP3    H141153   0.561   1.979   1.153  1.4238 -1.0497  3.3602
 6554TIP3    H241154   0.677   2.075   1.140  0.3651 -0.1021  0.6366
 6555TIP3   OH241155   6.627   5.820  16.591  0.1715 -0.2285  0.2800
 6555TIP3    H141156   6.588   5.839  16.506  3.6577 -1.5038 -1.6657
 6555TIP3    H241157   6.581   5.878  16.652 -2.0062  1.0870 -2.5137
 6556TIP3   OH241158   5.685   4.914  12.679  0.7129  0.0931  0.5894
 6556TIP3    H141159   5.659   4.977  12.612  1.0201 -0.3185  0.0813
 6556TIP3    H241160   5.779   4.903  12.666  0.8173  0.1902  1.2422
 6557TIP3   OH241161   2.823   1.649  10.994 -0.1764 -0.4838  0.0045
 6557TIP3    H141162   2.811   1.666  10.900 -0.0161  0.3171  0.1291
 6557TIP3    H241163   2.894   1.708  11.020 -0.7677 -0.1333  0.8073
 6558TIP3   OH241164   6.510   1.107  15.181  0.1913 -0.2946 -0.3679
 6558TIP3    H141165   6.569   1.178  15.155  0.3667 -0.3986 -0.2537
 6558TIP3    H241166   6.565   1.028  15.180  0.0258 -0.4105 -0.3791
 6559TIP3   OH241167   1.919   2.883   0.814  0.1004  0.6318 -0.1956
 6559TIP3    H141168   2.005   2.925   0.816  0.8493 -0.9231  0.8622
 6559TIP3    H241169   1.892   2.880   0.906 -0.6595  0.2210 -0.4269
 6560TIP3   OH241170   3.145   2.244   5.465 -0.2212 -0.3290 -0.2331
 6560TIP3    H141171   3.204   2.174   5.493  1.1264  0.6168 -0.6538
 6560TIP3    H241172   3.177   2.322   5.512 -0.2541  0.4777 -1.5332
 6561TIP3   OH241173   1.294   4.805  13.355  0.1338 -0.2675 -0.4334
 6561TIP3    H141174   1.259   4.885  13.316 -0.8134  0.4727  1.8450
 6561TIP3    H241175   1.219   4.767  13.402  1.5979 -0.2331  2.0109
 6562TIP3   OH241176   2.078   2.884   5.390 -0.5697 -0.8646 -0.1859
 6562TIP3    H141177   2.170   2.909   5.399 -0.6085 -0.0609 -1.7918
 6562TIP3    H241178   2.031   2.967   5.381 -1.4752 -1.2682  0.7929
 6563TIP3   OH241179   3.641   4.285   2.584 -0.2412 -0.5184 -0.4624
 6563TIP3    H141180   3.697   4.363   2.578 -0.6771 -0.2622 -1.4532
 6563TIP3    H241181   3.552   4.319   2.569 -0.5913 -1.0075  0.5031
 6564TIP3   OH241182   6.498   0.263   3.664  0.5085  0.0372 -0.0503
 6564TIP3    H141183   6.590   0.244   3.681  0.2130 -0.9644  0.5310
 6564TIP3    H241184   6.480   0.345   3.709  1.3492  0.7412 -0.9772
 6565TIP3   OH241185   3.192   2.673   0.432 -0.4812 -0.2617  0.3453
 6565TIP3    H141186   3.141   2.699   0.355  0.1301  1.1694  0.3948
 6565TIP3    H241187   3.275   2.720   0.421 -0.4651  0.1004  1.9692
 6566TIP3   OH241188   1.779   4.824   5.604  0.3214 -0.3187 -0.7506
 6566TIP3    H141189   1.771   4.805   5.510 -0.5430 -0.6063 -0.6266
 6566TIP3    H241190   1.807   4.742   5.644 -1.1990 -0.7390 -0.5121
 6567TIP3   OH241191   6.583   4.996  11.515 -0.0128 -0.0788  0.4045
 6567TIP3    H141192   6.508   4.940  11.531  0.4840 -1.7960 -2.8907
 6567TIP3    H241193   6.658   4.945  11.544  0.3004 -0.4788 -1.0824
 6568TIP3   OH241194   4.385   4.034   2.515  0.6518 -0.0786  0.3099
 6568TIP3    H141195   4.473   4.068   2.500  0.3728  0.8115  0.6234
 6568TIP3    H241196   4.348   4.093   2.580 -1.2114  1.3559 -1.9766
 6569TIP3   OH241197   4.437   6.372  16.645  0.1498 -0.3439  0.2768
 6569TIP3    H141198   4.433   6.436  16.715  0.4114 -0.1019  0.0741
 6569TIP3    H241199   4.353   6.327  16.648  0.5904 -1.1240  1.4845
 6570TIP3   OH241200   6.278   2.934  16.996 -0.0525  0.7754  0.5040
 6570TIP3    H141201   6.255   2.922  17.088  0.8725  0.5425  0.7081
 6570TIP3    H241202   6.206   2.987  16.960 -0.4045  0.8890  1.3605
 6571TIP3   OH241203   3.802   4.587  15.083  0.1566 -0.0470  0.5545
 6571TIP3    H141204   3.748   4.541  15.147  0.0968  0.4084  0.8303
 6571TIP3    H241205   3.842   4.518  15.031 -1.7123 -0.3913 -0.4992
 6572TIP3   OH241206   1.291   4.844  15.185  0.3281  0.0946  0.1018
 6572TIP3    H141207   1.352   4.848  15.258  1.3308 -0.8865 -0.6711
 6572TIP3    H241208   1.270   4.935  15.166 -1.9097  0.3275  3.2124
 6573TIP3   OH241209   4.863   2.506   4.973 -0.0194  0.0598 -0.0997
 6573TIP3    H141210   4.857   2.421   5.017  0.9979 -0.2868 -0.6077
 6573TIP3    H241211   4.923   2.557   5.027 -1.8609  1.0236  1.0741
 6574TIP3   OH241212   3.645   5.896  12.876 -0.6658  0.4055 -0.6757
 6574TIP3    H141213   3.610   5.911  12.964 -0.2509 -2.7543  0.0713
 6574TIP3    H241214   3.738   5.919  12.883 -0.5428 -0.2336 -0.1670
 6575TIP3   OH241215   2.924   3.956   2.308  0.0668 -0.3692 -0.3776
 6575TIP3    H141216   2.835   3.921   2.315 -0.4942  0.9163 -0.8039
 6575TIP3    H241217   2.981   3.880   2.317 -1.0568 -1.1059  0.6711
 6576TIP3   OH241218   1.588   4.093  13.425  0.4152  0.2534  0.4829
 6576TIP3    H141219   1.642   4.040  13.366  0.6791  1.0473  0.0076
 6576TIP3    H241220   1.644   4.167  13.449  0.3466 -0.0961  1.8073
 6577TIP3   OH241221   5.109   5.690  16.102  0.1196 -0.1636 -0.5553
 6577TIP3    H141222   5.053   5.665  16.175 -0.2912  3.1630  0.3564
 6577TIP3    H241223   5.049   5.716  16.032  0.5225  0.0155 -0.8406
 6578TIP3   OH241224   1.669   5.031  12.439 -0.1142  0.1884  0.0888
 6578TIP3    H141225   1.578   5.000  12.440 -0.8299  2.2077  1.8513
 6578TIP3    H241226   1.714   4.974  12.501 -1.0104  1.4453  1.9324
 6579TIP3   OH241227   5.883   3.233  12.485  0.4360 -0.1408 -0.0801
 6579TIP3    H141228   5.834   3.298  12.435  1.6747  1.1421  0.3294
 6579TIP3    H241229   5.882   3.266  12.575 -0.2784 -1.5183  0.4344
 6580TIP3   OH241230   4.488   3.809   5.314 -0.0312  1.0395 -0.3396
 6580TIP3    H141231   4.583   3.803   5.325 -0.0307  2.6130  0.5674
 6580TIP3    H241232   4.469   3.902   5.323 -1.5902  0.8091 -1.1694
 6581TIP3   OH241233   4.340   2.194   2.954  0.5813 -0.1223  0.4878
 6581TIP3    H141234   4.367   2.281   2.926 -1.9619  0.7225  0.5163
 6581TIP3    H241235   4.272   2.168   2.891 -1.0455 -0.6394  2.3934
 6582TIP3   OH241236   0.950   6.689   2.516  0.3520  0.1365  0.2005
 6582TIP3    H141237   1.033   6.650   2.489 -1.0560 -2.4177 -0.5528
 6582TIP3    H241238   0.937   6.657   2.605 -0.8143 -1.1561 -0.4243
 6583TIP3   OH241239   5.493   0.829  10.543 -0.1069  0.1252 -0.3143
 6583TIP3    H141240   5.448   0.862  10.465 -0.0028 -0.1486 -0.4896
 6583TIP3    H241241   5.441   0.754  10.572 -0.2173  0.3038 -0.0436
 6584TIP3   OH241242   6.070   0.809   1.874 -0.5010  0.2212 -0.2484
 6584TIP3    H141243   6.032   0.825   1.960 -1.5889 -0.9685 -0.4937
 6584TIP3    H241244   6.106   0.720   1.879 -2.5140 -0.7167 -1.6724
 6585TIP3   OH241245   4.241   6.322  14.552 -0.0888  0.2217  0.1882
 6585TIP3    H141246   4.226   6.336  14.459 -0.8295  0.2553  0.3092
 6585TIP3    H241247   4.279   6.234  14.558  0.2049  0.3264 -0.1688
 6586TIP3   OH241248   0.089   3.419  16.129 -0.2670 -0.5421 -0.2957
 6586TIP3    H141249   0.015   3.476  16.149  0.0003 -0.0530 -0.7009
 6586TIP3    H241250   0.054   3.354  16.069 -0.5206 -0.6788 -0.0014
 6587TIP3   OH241251   2.398   6.668   4.620 -0.1141 -0.1942  0.3837
 6587TIP3    H141252   2.327   6.604   4.613 -1.3438  0.9479  1.9265
 6587TIP3    H241253   2.474   6.625   4.580 -1.2192 -2.1426  0.3241
 6588TIP3   OH241254   0.365   4.029   4.096  0.4964 -0.0289  0.8253
 6588TIP3    H141255   0.353   4.115   4.056  1.5269 -0.3924 -0.3281
 6588TIP3    H241256   0.370   4.046   4.190  0.3399  1.1253  0.6277
 6589TIP3   OH241257   0.013   3.100  12.123 -0.2012 -0.4387 -0.5230
 6589TIP3    H141258   0.056   3.015  12.115 -0.2502 -0.3926 -1.3136
 6589TIP3    H241259  -0.079   3.082  12.104 -0.4963 -0.4803  0.8511
 6590TIP3   OH241260   0.346   4.086   0.317 -0.2981 -0.0617  0.6588
 6590TIP3    H141261   0.362   3.992   0.325 -1.4342 -0.1779  1.6711
 6590TIP3    H241262   0.419   4.118   0.264 -0.3161 -1.6290 -0.3374
 6591TIP3   OH241263   1.830   2.973   2.512  0.5759 -0.1339  0.1322
 6591TIP3    H141264   1.806   2.949   2.601  0.7069  1.1735  0.5286
 6591TIP3    H241265   1.884   3.052   2.522  0.5954  0.0219 -1.1022
 6592TIP3   OH241266   6.428   2.201  15.479 -0.3340 -0.2158 -0.1619
 6592TIP3    H141267   6.414   2.193  15.574  0.0614 -0.3844 -0.1165
 6592TIP3    H241268   6.509   2.152  15.463 -0.0715  0.3246 -0.4958
 6593TIP3   OH241269   4.462   0.967   3.645 -0.0659  0.9349  0.0485
 6593TIP3    H141270   4.370   0.993   3.640 -1.1523 -2.4180  0.9190
 6593TIP3    H241271   4.492   0.968   3.554 -0.9486  2.1416 -0.2347
 6594TIP3   OH241272   5.122   5.761   5.949 -0.2356 -0.0254  0.2013
 6594TIP3    H141273   5.134   5.683   5.894  0.6701  0.3896 -0.1941
 6594TIP3    H241274   5.115   5.726   6.038 -0.6485 -0.6226 -0.0638
 6595TIP3   OH241275   5.479   5.313   5.233 -0.1653  0.4835 -0.0251
 6595TIP3    H141276   5.514   5.290   5.147 -0.8798  1.8736 -0.7113
 6595TIP3    H241277   5.543   5.374   5.269 -0.6523  1.1412 -0.2567
 6596TIP3   OH241278   0.363   5.648  11.851 -0.5100  0.1053  0.0988
 6596TIP3    H141279   0.281   5.685  11.818 -1.5334 -1.5685  0.6996
 6596TIP3    H241280   0.418   5.724  11.869 -1.3854  1.1973 -1.6941
 6597TIP3   OH241281   5.081   4.720   6.735  0.3837 -0.2844  0.2349
 6597TIP3    H141282   5.012   4.694   6.796  0.6641 -1.6817 -0.0368
 6597TIP3    H241283   5.158   4.734   6.791  0.8376 -2.2811  0.1532
 6598TIP3   OH241284   6.240   0.113   5.590 -0.6029 -0.6729 -0.2481
 6598TIP3    H141285   6.203   0.120   5.678  0.0778  0.8141 -0.0703
 6598TIP3    H241286   6.307   0.045   5.597 -1.0744 -1.1024  0.1778
 6599TIP3   OH241287   0.928   2.103   4.583 -0.0927 -0.1130  0.0749
 6599TIP3    H141288   0.895   2.124   4.496 -1.3159 -0.8763  0.3416
 6599TIP3    H241289   1.022   2.121   4.579 -0.5310  2.0973 -0.7047
 6600TIP3   OH241290   0.286   3.857   3.269 -0.1601 -0.1911 -0.2383
 6600TIP3    H141291   0.321   3.813   3.191  0.4170  2.2127 -1.4105
 6600TIP3    H241292   0.215   3.912   3.235  0.7443  1.6297  0.7425
 6601TIP3   OH241293   4.989   5.271   4.800  0.1911 -0.2833  0.2651
 6601TIP3    H141294   4.956   5.332   4.866  0.2304  0.6856 -0.6058
 6601TIP3    H241295   4.947   5.188   4.822 -2.6570  0.8549 -0.6350
 6602TIP3   OH241296   2.692   2.470  15.225 -0.2662  0.0154  0.1973
 6602TIP3    H141297   2.735   2.537  15.279  0.8251 -0.5537  0.0554
 6602TIP3    H241298   2.727   2.387  15.258 -0.3649 -0.3915 -0.7136
 6603TIP3   OH241299   2.051   2.313   1.519  0.1708 -0.6527 -0.0837
 6603TIP3    H141300   2.134   2.339   1.479 -0.2080 -0.4478 -0.7554
 6603TIP3    H241301   2.024   2.236   1.469 -0.3917 -0.2969 -0.3349
 6604TIP3   OH241302   1.585   2.122   3.941  0.0541  0.8022 -0.5108
 6604TIP3    H141303   1.681   2.128   3.948  0.2662  0.0821 -2.4835
 6604TIP3    H241304   1.570   2.094   3.851 -2.0051  0.2700 -0.0120
 6605TIP3   OH241305   3.272   4.644   5.488  0.2592  0.0352 -0.7269
 6605TIP3    H141306   3.217   4.573   5.521 -0.7127 -0.0850 -2.5182
 6605TIP3    H241307   3.301   4.690   5.567 -2.2347 -0.0456  0.2954
 6606TIP3   OH241308   1.710   0.157   6.016  0.6121 -0.5158  0.1665
 6606TIP3    H141309   1.696   0.184   6.106  0.9343 -0.0111  0.0721
 6606TIP3    H241310   1.792   0.107   6.018 -0.0264 -1.5526  0.3547
 6607TIP3   OH241311   0.179   2.810   4.168  0.2301  0.6682 -0.2827
 6607TIP3    H141312   0.181   2.858   4.085  1.1353  1.0783 -0.0242
 6607TIP3    H241313   0.166   2.877   4.235  1.3837  0.5544  0.0696
 6608TIP3   OH241314   0.210   5.393  11.844 -0.0963  0.3764  0.0734
 6608TIP3    H141315   0.264   5.439  11.780  0.0822 -1.6455 -1.2465
 6608TIP3    H241316   0.120   5.420  11.825 -0.0031  0.0932 -0.7767
 6609TIP3   OH241317   4.782   6.639   4.546 -0.1211  0.3586  0.6217
 6609TIP3    H141318   4.833   6.558   4.548 -0.1665  0.2400 -1.9209
 6609TIP3    H241319   4.691   6.611   4.543 -0.0976  0.4546 -1.6268
 6610TIP3   OH241320   3.242   0.878   1.831  0.0972  0.1401  0.2355
 6610TIP3    H141321   3.172   0.938   1.805  1.7016  1.8035 -0.3447
 6610TIP3    H241322   3.204   0.827   1.903 -1.5125  1.4033  0.3088
 6611TIP3   OH241323   4.796   0.867  16.423  0.2761 -0.3920  0.1335
 6611TIP3    H141324   4.837   0.806  16.361 -0.1356 -0.9032  0.3560
 6611TIP3    H241325   4.860   0.937  16.433  0.6176 -0.6221 -0.3846
 6612TIP3   OH241326   1.124   6.071   5.595  0.2894  0.2086 -0.5053
 6612TIP3    H141327   1.033   6.059   5.568 -0.3327 -0.8272  2.0261
 6612TIP3    H241328   1.120   6.136   5.665  1.4334 -0.4386  0.1626
 6613TIP3   OH241329   1.494   1.901  13.919 -0.0864  0.1888  0.1628
 6613TIP3    H141330   1.563   1.946  13.969  1.4450 -1.8520 -0.0433
 6613TIP3    H241331   1.532   1.890  13.832  0.7798 -4.0092  0.9588
 6614TIP3   OH241332   2.951   5.040   5.435 -0.3594 -0.8364 -0.0242
 6614TIP3    H141333   3.033   5.088   5.421 -0.6108 -0.4779 -0.2739
 6614TIP3    H241334   2.898   5.060   5.358 -0.3792 -1.6996 -0.2400
 6615TIP3   OH241335   5.926   1.026   0.718  0.2506  0.5220 -0.2221
 6615TIP3    H141336   5.952   1.106   0.765  0.0245  1.5146 -1.7563
 6615TIP3    H241337   5.841   1.047   0.681 -0.7139 -1.1477  1.0030
 6616TIP3   OH241338   1.784   6.274   0.317  0.3321 -0.4685  0.1130
 6616TIP3    H141339   1.727   6.350   0.302  2.3352  1.3680  1.3802
 6616TIP3    H241340   1.864   6.294   0.267  1.2500 -1.2656  1.2266
 6617TIP3   OH241341   3.431   6.089   4.291  0.7798 -0.1420 -0.5389
 6617TIP3    H141342   3.423   5.996   4.268  0.9787 -0.1366 -0.6275
 6617TIP3    H241343   3.503   6.092   4.353  1.1427  0.0290 -0.9674
 6618TIP3   OH241344   2.706   6.528  16.291 -0.0304 -0.0649  0.0978
 6618TIP3    H141345   2.802   6.534  16.297  0.1868  0.7760 -3.1200
 6618TIP3    H241346   2.690   6.437  16.264 -0.1672 -0.3513  1.1511
 6619TIP3   OH241347   1.005   1.036  11.354 -0.0691  0.6255 -0.5819
 6619TIP3    H141348   0.976   1.063  11.267 -1.4963 -1.9167 -0.9451
 6619TIP3    H241349   1.031   0.944  11.344  0.8362  0.6193  1.4393
 6620TIP3   OH241350   2.077   1.148  14.371  0.3681 -0.1939 -1.0176
 6620TIP3    H141351   2.054   1.238  14.346  0.6230  0.0342 -0.4495
 6620TIP3    H241352   1.999   1.096  14.349  0.0760  0.2298 -0.9900
 6621TIP3   OH241353   5.605   4.114  15.322 -0.4324  0.3708  0.2512
 6621TIP3    H141354   5.595   4.044  15.258 -0.0596  1.1378 -0.6509
 6621TIP3    H241355   5.522   4.160  15.321  0.5311  2.1415 -1.7891
 6622TIP3   OH241356   5.822   6.803  16.271 -0.2127 -0.2434 -0.0910
 6622TIP3    H141357   5.737   6.837  16.301 -0.1948  1.1587 -1.5521
 6622TIP3    H241358   5.801   6.747  16.197 -0.1538 -2.7996  1.7770
 6623TIP3   OH241359   4.367   4.109   3.335 -0.0515  0.1047  0.2217
 6623TIP3    H141360   4.368   4.204   3.345  0.4845  0.2008 -0.7432
 6623TIP3    H241361   4.278   4.089   3.305  0.4945  0.5271 -1.7277
 6624TIP3   OH241362   2.165   2.241  12.059  0.3010 -0.4190 -0.0773
 6624TIP3    H141363   2.197   2.162  12.104 -1.4577 -1.3835 -0.5005
 6624TIP3    H241364   2.233   2.307  12.077  2.2735 -2.2673 -0.5379
 6625TIP3   OH241365   3.314   6.279  15.377  0.4348 -0.2596 -0.1909
 6625TIP3    H141366   3.270   6.196  15.392 -0.6327  0.1693 -0.8928
 6625TIP3    H241367   3.337   6.278  15.284  1.9660 -0.5064  0.1873
 6626TIP3   OH241368   3.775   5.310  16.974  0.5872  0.2178  0.1393
 6626TIP3    H141369   3.796   5.253  17.048 -1.0315  0.1976  0.6211
 6626TIP3    H241370   3.689   5.346  16.997  0.1843  0.4028 -1.6315
 6627TIP3   OH241371   1.804   6.101  16.757  0.1122  0.1284  0.9127
 6627TIP3    H141372   1.773   6.010  16.750 -1.0406  0.5364  0.6123
 6627TIP3    H241373   1.895   6.097  16.729 -0.0120 -0.8993  0.6152
 6628TIP3   OH241374   1.710   0.346  12.124  0.3637  0.0141  0.2394
 6628TIP3    H141375   1.700   0.420  12.184 -1.6334 -0.8205  0.9564
 6628TIP3    H241376   1.674   0.377  12.041  2.3653  0.8796 -0.3433
 6629TIP3   OH241377   2.536   3.705   2.549  0.3526  0.5210  0.0320
 6629TIP3    H141378   2.528   3.613   2.525  1.5423 -0.0295  1.6617
 6629TIP3    H241379   2.451   3.728   2.588  0.4777 -0.2411  0.7637
 6630TIP3   OH241380   6.581   3.039  12.034  0.5064 -0.0311  0.2495
 6630TIP3    H141381   6.557   2.958  11.989  1.4345  0.1148 -0.5287
 6630TIP3    H241382   6.498   3.074  12.066 -0.0930 -0.4648 -0.7989
 6631TIP3   OH241383   4.572   4.916  13.314  0.2921  0.1658 -0.3616
 6631TIP3    H141384   4.581   4.893  13.407  0.3405  0.0077 -0.4049
 6631TIP3    H241385   4.631   4.855  13.269 -0.2569 -0.2228 -0.5596
 6632TIP3   OH241386   4.925   5.820  15.965  0.6676  0.6219  0.1380
 6632TIP3    H141387   4.910   5.906  15.926  1.2660  0.7995  0.2948
 6632TIP3    H241388   4.844   5.772  15.948  1.2008  0.4510 -1.9871
 6633TIP3   OH241389   6.084   0.513  16.684 -0.1423  0.4862  0.3185
 6633TIP3    H141390   6.139   0.435  16.693 -0.7590 -0.0188 -0.2549
 6633TIP3    H241391   6.117   0.573  16.750  0.5308 -0.1540  0.5696
 6634TIP3   OH241392   3.607   1.153   5.523 -0.0025 -1.0607  0.2408
 6634TIP3    H141393   3.635   1.213   5.592 -0.0091 -1.1786  0.3482
 6634TIP3    H241394   3.659   1.178   5.447 -3.1620  1.9809 -1.0467
 6635TIP3   OH241395   6.243   2.450  14.395 -0.1963  0.1075 -0.4165
 6635TIP3    H141396   6.290   2.523  14.434 -0.7244  0.7285 -0.9385
 6635TIP3    H241397   6.290   2.431  14.314  0.0109 -0.2115 -0.2246
 6636TIP3   OH241398   6.668   6.791  11.538 -0.0631  0.4244  0.0463
 6636TIP3    H141399   6.728   6.826  11.604  0.0385 -1.1728  0.8384
 6636TIP3    H241400   6.631   6.713  11.580 -0.0266 -0.5927 -1.8001
 6637TIP3   OH241401   5.607   2.901   3.474  0.1253  0.5683  0.6151
 6637TIP3    H141402   5.589   2.981   3.425 -1.4788 -0.9150 -1.3262
 6637TIP3    H241403   5.564   2.914   3.559 -1.3649  1.2120 -0.2219
 6638TIP3   OH241404   2.787   5.222   5.899  0.0258  0.9575 -0.4219
 6638TIP3    H141405   2.865   5.204   5.952 -0.1731  0.9110 -0.1477
 6638TIP3    H241406   2.775   5.316   5.906 -1.0091  0.7235  1.0090
 6639TIP3   OH241407   0.995   4.254   4.280 -0.1443 -0.1182  0.5559
 6639TIP3    H141408   1.042   4.202   4.345 -2.1800 -2.7148  0.0474
 6639TIP3    H241409   1.063   4.304   4.236  1.5647 -0.2227  2.9456
 6640TIP3   OH241410   2.134   2.455  16.517 -0.1895  0.5083 -0.2424
 6640TIP3    H141411   2.070   2.414  16.459 -1.4717  0.4699  1.1686
 6640TIP3    H241412   2.211   2.398  16.512 -0.2391  0.5763 -1.9742
 6641TIP3   OH241413   1.375   0.593   5.820  0.3177  0.2559 -0.0665
 6641TIP3    H141414   1.418   0.677   5.812  0.9735 -0.0761 -0.0460
 6641TIP3    H241415   1.400   0.545   5.741 -0.7320  0.3821 -0.4871
 6642TIP3   OH241416   2.559   3.693   3.690  0.7683 -1.1035 -0.5756
 6642TIP3    H141417   2.577   3.667   3.780 -0.3457  0.3123  0.0690
 6642TIP3    H241418   2.465   3.709   3.688  0.8148 -0.9262 -1.9538
 6643TIP3   OH241419   6.819   0.794  15.939 -0.2554  0.1327 -0.0123
 6643TIP3    H141420   6.844   0.824  15.852 -2.9180 -0.4739 -1.0337
 6643TIP3    H241421   6.890   0.825  15.996  0.9438  1.5650 -2.1883
 6644TIP3   OH241422   1.177   1.451   0.019 -0.9737  0.5832 -0.3190
 6644TIP3    H141423   1.181   1.464  -0.076 -0.8260 -0.1354 -0.4116
 6644TIP3    H241424   1.167   1.357   0.030 -0.0325  0.5592  0.4079
 6645TIP3   OH241425   5.614   6.660  14.581 -0.0714 -0.2376 -0.0363
 6645TIP3    H141426   5.670   6.649  14.658  0.3182  0.5038 -0.2110
 6645TIP3    H241427   5.670   6.639  14.507 -0.2701 -0.3274 -0.1618
 6646TIP3   OH241428   0.471   4.025  13.226  0.1029  0.4855  0.0919
 6646TIP3    H141429   0.487   3.967  13.300  1.1532  0.2374 -0.3197
 6646TIP3    H241430   0.537   4.001  13.161  0.6774  2.2780 -0.0206
 6647TIP3   OH241431   2.966   5.930   1.356  0.1337  0.0722  0.3714
 6647TIP3    H141432   2.896   5.899   1.299  0.6358  0.1194 -0.2727
 6647TIP3    H241433   3.044   5.932   1.300  0.4954  0.7206  0.8900
 6648TIP3   OH241434   3.302   1.927  13.570 -0.3054  0.0325  0.0789
 6648TIP3    H141435   3.302   1.997  13.635 -0.0826 -0.8601  1.0557
 6648TIP3    H241436   3.355   1.858  13.610  1.4257  0.2044 -1.8492
 6649TIP3   OH241437   6.353   2.751  15.102  0.0044 -0.0164  0.0074
 6649TIP3    H141438   6.394   2.713  15.024  1.0389 -0.9466  1.0000
 6649TIP3    H241439   6.265   2.714  15.104  0.2158 -0.5398 -0.3225
 6650TIP3   OH241440   6.102   1.245  15.596  0.1024 -0.7225  0.0157
 6650TIP3    H141441   6.105   1.151  15.611  1.2330 -0.9607 -1.6324
 6650TIP3    H241442   6.137   1.257  15.508 -1.1349  1.1378 -0.2622
 6651TIP3   OH241443   0.164   3.787  11.252 -0.0253 -0.4035 -0.1948
 6651TIP3    H141444   0.131   3.698  11.239 -0.4789  0.0391 -2.2059
 6651TIP3    H241445   0.220   3.803  11.177 -0.1690  1.1117  0.0032
 6652TIP3   OH241446   4.254   5.655   3.471 -0.2259  0.0040 -0.1462
 6652TIP3    H141447   4.323   5.599   3.506  0.5585  0.3889 -1.0848
 6652TIP3    H241448   4.195   5.668   3.546  0.4392 -0.7331  0.5217
 6653TIP3   OH241449   4.649   3.407  13.201 -0.1015  0.0546 -0.8663
 6653TIP3    H141450   4.578   3.419  13.139 -2.2896  1.7214  1.8821
 6653TIP3    H241451   4.683   3.319  13.182 -2.8115 -0.7196 -2.2875
 6654TIP3   OH241452   4.461   5.000   4.255 -0.4891  0.0282 -0.0152
 6654TIP3    H141453   4.514   5.072   4.221  0.2055  0.5121  1.9953
 6654TIP3    H241454   4.370   5.030   4.243 -0.2973 -0.4069 -2.6201
 6655TIP3   OH241455   3.860   1.304  17.170  0.0594 -0.2028 -0.9317
 6655TIP3    H141456   3.868   1.354  17.089  1.5764  1.3789  0.1595
 6655TIP3    H241457   3.768   1.313  17.195 -0.3854 -0.5800 -2.3595
 6656TIP3   OH241458   3.315   1.014   0.229 -0.2505 -0.5652 -0.3492
 6656TIP3    H141459   3.262   0.989   0.154  1.0231 -1.0079 -1.1222
 6656TIP3    H241460   3.267   1.085   0.271 -1.0326 -0.4105 -1.5110
 6657TIP3   OH241461   3.617   3.411   4.658  0.1827 -0.0819  0.1921
 6657TIP3    H141462   3.668   3.406   4.739 -0.6295 -0.1956  0.6999
 6657TIP3    H241463   3.617   3.322   4.624 -0.7216 -0.3326  0.8402
 6658TIP3   OH241464   6.004   2.254   4.154  1.0975 -0.5454 -0.2799
 6658TIP3    H141465   6.038   2.288   4.071  0.5278 -0.9784 -0.6930
 6658TIP3    H241466   6.050   2.171   4.167 -0.5419 -1.6386 -1.3604
 6659TIP3   OH241467   5.617   5.821   4.894  0.3308 -0.6220 -0.5710
 6659TIP3    H141468   5.596   5.900   4.944  0.9115  0.5505 -2.1218
 6659TIP3    H241469   5.533   5.792   4.859 -0.0505 -1.3537  0.9157
 6660TIP3   OH241470   4.677   3.253  14.629  0.6294 -0.1128 -0.4980
 6660TIP3    H141471   4.743   3.188  14.607  0.9030 -0.8279  2.2107
 6660TIP3    H241472   4.598   3.223  14.584  0.8990 -2.0215  0.2679
 6661TIP3   OH241473   0.358   3.217   0.992 -0.8460 -0.1909 -0.4511
 6661TIP3    H141474   0.403   3.157   0.933 -1.2276  0.0705 -1.0118
 6661TIP3    H241475   0.337   3.294   0.938  0.8919  1.0585  0.5947
 6662TIP3   OH241476   0.742   2.698  12.044  0.4132  0.0277  0.3573
 6662TIP3    H141477   0.782   2.670  11.962 -0.6897  0.6678 -0.4222
 6662TIP3    H241478   0.712   2.617  12.085  0.2806 -0.2360 -0.2526
 6663TIP3   OH241479   2.146   4.572   6.387 -0.3399  0.1586 -0.4635
 6663TIP3    H141480   2.119   4.645   6.331  0.2509 -0.6707 -1.8784
 6663TIP3    H241481   2.126   4.600   6.476 -0.3694  1.9297 -1.0154
 6664TIP3   OH241482   6.453   2.693  11.518 -0.3684 -0.5496  0.0768
 6664TIP3    H141483   6.386   2.700  11.451  0.5206 -1.4773 -0.9312
 6664TIP3    H241484   6.495   2.608  11.502  0.4248 -0.4046  1.2719
 6665TIP3   OH241485   2.747   2.275   0.765 -0.1199  0.0011 -0.6776
 6665TIP3    H141486   2.718   2.277   0.674  0.1259  0.2100 -0.7523
 6665TIP3    H241487   2.840   2.251   0.760 -0.4371 -1.3014 -0.4046
 6666TIP3   OH241488   5.471   3.885  13.944 -0.1877  0.3059  0.5569
 6666TIP3    H141489   5.477   3.980  13.942 -0.0109  0.2776 -1.3879
 6666TIP3    H241490   5.560   3.855  13.923 -0.4224 -0.2733  0.3683
 6667TIP3   OH241491   0.877   5.825   2.310 -0.4505 -0.1790 -0.5434
 6667TIP3    H141492   0.787   5.849   2.287  0.2881  2.4842 -0.8068
 6667TIP3    H241493   0.876   5.818   2.406 -0.5173  1.7155 -0.3939
 6668TIP3   OH241494   6.169   1.715   3.180  0.1954  0.0276 -0.0699
 6668TIP3    H141495   6.125   1.755   3.105  1.1623 -1.7465 -1.6382
 6668TIP3    H241496   6.111   1.644   3.207 -0.0785  0.5671  0.7684
 6669TIP3   OH241497   0.306   0.552   5.043 -0.0149  0.4467 -0.2891
 6669TIP3    H141498   0.339   0.493   4.976  0.2360  1.7511 -1.3443
 6669TIP3    H241499   0.380   0.563   5.103  0.2273  0.3635 -0.5686
 6670TIP3   OH241500   0.600   1.508  16.665 -0.4747 -0.0982  0.8209
 6670TIP3    H141501   0.624   1.556  16.586  0.7251 -1.9905 -0.0104
 6670TIP3    H241502   0.508   1.485  16.652 -0.3252 -0.2675  0.0494
 6671TIP3   OH241503   0.384   4.592  16.250  0.2728  0.0930  0.1629
 6671TIP3    H141504   0.448   4.532  16.287  0.3056  0.6259  0.9974
 6671TIP3    H241505   0.409   4.601  16.158  1.6366  0.5847  0.5606
 6672TIP3   OH241506   0.734   3.107  14.548  0.3054  0.5007  0.1789
 6672TIP3    H141507   0.784   3.185  14.523  0.2072  0.8609  1.0895
 6672TIP3    H241508   0.738   3.050  14.471  2.0432  0.5638  0.2055
 6673TIP3   OH241509   5.306   0.998   1.989 -0.0272 -0.0489  0.5892
 6673TIP3    H141510   5.392   1.028   2.018  0.0088  1.9557 -1.3954
 6673TIP3    H241511   5.299   0.908   2.021  3.3230 -0.6857 -0.2806
 6674TIP3   OH241512   3.454   3.575   0.504 -0.1029 -0.0521 -0.2487
 6674TIP3    H141513   3.445   3.647   0.565  1.9329 -1.3502  1.6567
 6674TIP3    H241514   3.536   3.532   0.529 -0.2610 -1.8380 -2.5900
 6675TIP3   OH241515   3.370   5.518   3.348 -0.2118  0.2005  0.4620
 6675TIP3    H141516   3.413   5.433   3.363 -2.5036 -0.9970  0.3953
 6675TIP3    H241517   3.289   5.513   3.398 -0.4967  2.2916  0.2604
 6676TIP3   OH241518   1.276   5.019   5.981  0.1118  0.3450  0.2209
 6676TIP3    H141519   1.348   5.012   6.044  0.9953  1.4331 -0.6586
 6676TIP3    H241520   1.228   4.937   5.992  2.0015 -0.8103  0.1972
 6677TIP3   OH241521   5.107   5.366   3.533 -0.9965 -0.0978  0.1290
 6677TIP3    H141522   5.118   5.453   3.571 -0.5399  0.5002 -1.3322
 6677TIP3    H241523   5.184   5.317   3.560 -1.2102 -0.0196  0.8814
 6678TIP3   OH241524   0.727   4.503   6.294 -0.5994  0.0776 -0.0157
 6678TIP3    H141525   0.716   4.551   6.376  0.0149  2.6253 -1.3712
 6678TIP3    H241526   0.821   4.490   6.287 -0.8290 -2.3092  0.8354
 6679TIP3   OH241527   6.075   2.357   3.866 -0.0916 -0.2509 -0.6123
 6679TIP3    H141528   6.007   2.295   3.839 -0.4245 -1.5731  2.9341
 6679TIP3    H241529   6.153   2.303   3.878  0.6045  0.6417 -1.0412
 6680TIP3   OH241530   2.782   3.584  16.935  0.0495  0.5223  0.5365
 6680TIP3    H141531   2.755   3.492  16.937  1.9226 -0.0319  0.9914
 6680TIP3    H241532   2.870   3.584  16.972 -0.0788  2.5630  0.8892
 6681TIP3   OH241533   3.570   1.763  12.876 -0.0984 -0.3306  0.0809
 6681TIP3    H141534   3.547   1.780  12.968  0.0279 -1.5140  0.3371
 6681TIP3    H241535   3.657   1.802  12.865 -1.2811  2.2851 -0.3100
 6682TIP3   OH241536   0.138   3.745  15.111  0.2372  0.4042 -0.2769
 6682TIP3    H141537   0.234   3.753  15.110  0.1585  1.3852 -0.8464
 6682TIP3    H241538   0.107   3.831  15.083 -0.8295  0.3976  0.8540
 6683TIP3   OH241539   5.431   3.095   0.811 -0.1105  0.6262  0.2341
 6683TIP3    H141540   5.426   3.160   0.741  0.3759 -0.2817 -0.6506
 6683TIP3    H241541   5.488   3.026   0.777 -1.3208 -0.6953  0.8095
 6684TIP3   OH241542   0.160   3.631   2.577  0.0667  0.4966 -0.4003
 6684TIP3    H141543   0.212   3.575   2.519 -0.3995 -0.9714  0.5672
 6684TIP3    H241544   0.213   3.711   2.587  2.3375 -1.0778  0.7844
 6685TIP3   OH241545   4.165   0.663   2.193  0.4552 -0.0806  0.0084
 6685TIP3    H141546   4.111   0.605   2.140  0.2997 -1.1065  1.2707
 6685TIP3    H241547   4.103   0.708   2.251  0.8056 -0.2800  0.5458
 6686TIP3   OH241548   1.710   4.208  14.135 -0.5535 -0.8854  0.0789
 6686TIP3    H141549   1.657   4.246  14.065 -0.8251 -1.0130  0.2149
 6686TIP3    H241550   1.688   4.115  14.134  0.2815 -1.0863 -0.4086
 6687TIP3   OH241551   5.465   5.718  16.176 -0.2113  0.0702 -0.2736
 6687TIP3    H141552   5.510   5.801  16.159  0.5379 -0.9167 -3.5164
 6687TIP3    H241553   5.532   5.661  16.214  0.0698  0.0065 -0.8668
 6688TIP3   OH241554   2.214   1.331  15.302  0.3665 -0.5628  0.1345
 6688TIP3    H141555   2.288   1.390  15.320 -0.7178  0.5078  1.1498
 6688TIP3    H241556   2.245   1.245  15.330  1.6400 -0.3288 -0.5199
 6689TIP3   OH241557   2.350   3.410  16.422 -0.0028 -0.0042 -0.2886
 6689TIP3    H141558   2.405   3.399  16.500 -0.4018  0.0283 -0.0047
 6689TIP3    H241559   2.357   3.503  16.400 -0.1206  0.0443 -0.1223
 6690TIP3   OH241560   6.781   3.425  13.524  0.0257  0.0695 -0.2254
 6690TIP3    H141561   6.737   3.425  13.439 -2.2886  1.5537  0.9202
 6690TIP3    H241562   6.837   3.502  13.522 -0.1067  0.1620 -0.3782
 6691TIP3   OH241563   1.463   6.128  11.401  0.4399  0.5531  0.0494
 6691TIP3    H141564   1.511   6.210  11.404  1.4096  0.0239 -0.6523
 6691TIP3    H241565   1.497   6.077  11.474 -2.2147  1.8454  2.3050
 6692TIP3   OH241566   6.529   6.262   0.150 -0.1418 -0.3107 -0.3711
 6692TIP3    H141567   6.553   6.177   0.187 -0.5754 -0.1581  0.2653
 6692TIP3    H241568   6.546   6.254   0.056  0.7007 -0.7945 -0.1758
 6693TIP3   OH241569   3.997   5.264  14.112 -0.2382 -0.0537 -0.4770
 6693TIP3    H141570   3.915   5.270  14.062  0.2341 -2.8204 -1.6675
 6693TIP3    H241571   3.971   5.283  14.202 -1.4330  3.2218 -1.4206
 6694TIP3   OH241572   4.722   6.040   2.648 -0.0982 -0.1558 -0.4602
 6694TIP3    H141573   4.703   6.104   2.579  1.5555 -1.1719 -1.8935
 6694TIP3    H241574   4.676   5.960   2.620 -1.6059  0.1758  0.9832
 6695TIP3   OH241575   5.595   2.290   4.370 -0.3902 -0.0983 -0.3757
 6695TIP3    H141576   5.588   2.382   4.393  0.1237  0.0781 -0.8981
 6695TIP3    H241577   5.690   2.272   4.372 -0.4729 -0.5572 -0.4824
 6696TIP3   OH241578   4.032   6.442  12.080  0.2605 -0.0692 -0.0221
 6696TIP3    H141579   4.067   6.528  12.105 -0.7871 -0.0960  1.6247
 6696TIP3    H241580   3.952   6.462  12.032 -1.1248 -0.1362  2.1915
 6697TIP3   OH241581   6.720   0.973  12.260  0.6425 -0.2681  0.1788
 6697TIP3    H141582   6.715   0.984  12.355 -2.0220 -1.1492  0.1702
 6697TIP3    H241583   6.639   1.013  12.227  1.9066  0.7350 -1.8027
 6698TIP3   OH241584   6.724   2.282   4.430  0.3095 -0.4947  0.7138
 6698TIP3    H141585   6.779   2.215   4.388  0.0171  0.7019 -1.6903
 6698TIP3    H241586   6.786   2.336   4.479  0.9910 -0.5977 -0.0151
 6699TIP3   OH241587   1.447   3.940   1.872  0.0760  1.0761 -0.0596
 6699TIP3    H141588   1.402   3.925   1.789  1.7430 -2.2578 -0.4612
 6699TIP3    H241589   1.538   3.918   1.853  1.0428  3.2117  1.9226
 6700TIP3   OH241590   0.664   2.671  11.004  0.0003  0.3622  0.3170
 6700TIP3    H141591   0.598   2.629  11.060  0.1191  0.0089  0.1983
 6700TIP3    H241592   0.694   2.600  10.947  1.4733  0.1884  1.2846
 6701TIP3   OH241593   0.034   2.838  12.040 -0.0742 -0.0137  0.4988
 6701TIP3    H141594  -0.021   2.760  12.034  0.0290 -0.0594  0.0922
 6701TIP3    H241595   0.036   2.872  11.951  1.2141 -0.4647  0.3440
 6702TIP3   OH241596   2.682   5.465   5.459 -0.3747 -0.6764 -0.2606
 6702TIP3    H141597   2.597   5.461   5.504 -0.0373 -0.8915  0.3686
 6702TIP3    H241598   2.664   5.434   5.371 -0.8705 -1.1353 -0.0023
 6703TIP3   OH241599   4.015   4.216   0.852 -0.3558  0.2118  0.0064
 6703TIP3    H141600   4.030   4.275   0.778 -0.6293  0.5468  0.2187
 6703TIP3    H241601   3.936   4.168   0.828  0.1777 -0.4666 -0.4171
 6704TIP3   OH241602   3.771   4.264  15.463 -0.2539  0.3692 -0.5486
 6704TIP3    H141603   3.824   4.340  15.439  0.3218  0.5347  1.1804
 6704TIP3    H241604   3.694   4.302  15.507 -0.5940  0.0089 -0.8271
 6705TIP3   OH241605   2.712   2.161  16.691  0.0408  0.7517 -0.3337
 6705TIP3    H141606   2.733   2.215  16.767  0.6724 -2.1526  1.6618
 6705TIP3    H241607   2.797   2.127  16.662 -0.5262 -0.6831 -0.3451
 6706TIP3   OH241608   2.162   1.633   6.436 -0.2956 -0.1276 -0.0397
 6706TIP3    H141609   2.237   1.627   6.377  0.1572  0.3702  0.4911
 6706TIP3    H241610   2.100   1.569   6.401  0.5027 -0.7764 -0.2944
 6707TIP3   OH241611   3.028   0.793  13.499 -0.5309  0.1252  0.5690
 6707TIP3    H141612   3.062   0.837  13.577  0.3559 -0.8859  0.7556
 6707TIP3    H241613   3.045   0.700  13.513 -1.7640 -0.2273 -0.1402
 6708TIP3   OH241614   0.716   5.323   1.245 -0.1095 -0.0919  0.0297
 6708TIP3    H141615   0.677   5.410   1.249 -0.6478 -0.2973 -0.7153
 6708TIP3    H241616   0.810   5.339   1.237 -0.1370  0.4114  0.6636
 6709TIP3   OH241617   4.401   2.120  12.629  0.3403 -0.1342  0.1226
 6709TIP3    H141618   4.439   2.181  12.566 -1.8404 -0.3167 -1.4356
 6709TIP3    H241619   4.475   2.068  12.660  1.6114  0.6273 -1.5643
 6710TIP3   OH241620   4.154   6.054   2.685 -0.0781  0.7599 -0.3513
 6710TIP3    H141621   4.124   6.133   2.731 -0.8244  0.5462 -0.4668
 6710TIP3    H241622   4.166   6.083   2.595 -2.1753  0.3131 -0.8124
 6711TIP3   OH241623   3.520   6.320   5.784 -0.1897  0.0143  0.0147
 6711TIP3    H141624   3.529   6.309   5.879 -1.5688 -0.6090  0.0848
 6711TIP3    H241625   3.435   6.364   5.773  0.4878  1.1162 -0.8656
 6712TIP3   OH241626   3.333   0.937  15.178  0.2295  0.5143  0.3689
 6712TIP3    H141627   3.327   0.973  15.090  2.6800  0.8715  0.3103
 6712TIP3    H241628   3.322   0.842  15.166  3.0446  0.2622 -0.7043
 6713TIP3   OH241629   2.379   4.634  16.588  0.6457 -0.2260  0.3957
 6713TIP3    H141630   2.313   4.700  16.610  0.6870  0.3023 -1.0335
 6713TIP3    H241631   2.438   4.633  16.664  1.6243  2.6025 -0.2773
 6714TIP3   OH241632   6.788   4.537  12.399 -0.0015 -0.7543  0.1083
 6714TIP3    H141633   6.831   4.460  12.435 -3.1314 -1.6305  2.1798
 6714TIP3    H241634   6.772   4.594  12.474 -1.0439  0.2282 -0.8328
 6715TIP3   OH241635   0.008   2.939   2.741 -0.1599 -0.4468 -0.5098
 6715TIP3    H141636  -0.030   2.896   2.818  0.6457 -0.1857  0.0369
 6715TIP3    H241637  -0.000   3.033   2.760 -0.0839 -0.3795 -0.8064
 6716TIP3   OH241638   2.812   4.986  16.599 -0.1817  0.0692  0.4184
 6716TIP3    H141639   2.871   4.929  16.649  0.1521 -0.3074 -0.4040
 6716TIP3    H241640   2.805   5.065  16.652  2.2542  0.7256 -0.1650
 6717TIP3   OH241641   6.464   5.685   0.881  0.0920  0.7583 -0.2990
 6717TIP3    H141642   6.443   5.624   0.810 -1.4243  0.5978  0.2907
 6717TIP3    H241643   6.490   5.629   0.954 -2.0262  0.7780  0.4834
 6718TIP3   OH241644   4.362   1.155  16.154 -0.0820 -0.3343  0.6290
 6718TIP3    H141645   4.340   1.246  16.136 -2.8745 -0.8094  1.2565
 6718TIP3    H241646   4.301   1.130  16.224  1.3213 -2.3811  1.1485
 6719TIP3   OH241647   1.558   4.335   4.376 -0.6791  0.5979 -0.3195
 6719TIP3    H141648   1.553   4.354   4.282 -0.2556  0.5408 -0.3553
 6719TIP3    H241649   1.538   4.242   4.384 -2.1792  0.9146 -0.2021
 6720TIP3   OH241650   2.964   4.866   2.002  0.3589 -0.0901  0.4199
 6720TIP3    H141651   2.944   4.880   2.094 -4.3753 -2.2432 -0.1313
 6720TIP3    H241652   2.919   4.936   1.956  1.6356  0.2351 -0.3602
 6721TIP3   OH241653   1.834   1.255   3.633  0.0508 -0.6905 -0.6552
 6721TIP3    H141654   1.909   1.312   3.617 -1.9860  1.1442 -4.3814
 6721TIP3    H241655   1.822   1.208   3.550 -3.1443 -0.6142 -0.2740
 6722TIP3   OH241656   5.565   2.788   0.033 -0.1131  0.0598 -0.2924
 6722TIP3    H141657   5.644   2.776   0.086 -1.6040 -0.1104  1.9956
 6722TIP3    H241658   5.514   2.709   0.051  0.0769 -0.7994 -3.3679
 6723TIP3   OH241659   2.923   5.007  13.739  0.1708  0.1557 -0.1102
 6723TIP3    H141660   2.879   5.031  13.658  0.6445  1.1735 -0.0711
 6723TIP3    H241661   3.016   5.002  13.715  0.0405 -2.4536 -0.3147
 6724TIP3   OH241662   2.404   1.640   3.229  0.3336  0.0919  0.3398
 6724TIP3    H141663   2.489   1.680   3.248  0.3484  1.2828 -2.0551
 6724TIP3    H241664   2.403   1.630   3.134 -1.5089 -1.5496  0.4970
 6725TIP3   OH241665   4.488   6.568   0.416  0.0167 -0.0503  0.4826
 6725TIP3    H141666   4.403   6.577   0.457 -0.0812  1.4314  0.0018
 6725TIP3    H241667   4.481   6.490   0.361 -1.0951  0.1896  0.2802
 6726TIP3   OH241668   0.164   6.579   0.974  0.4076  0.5909 -0.2157
 6726TIP3    H141669   0.216   6.584   0.894  0.0060  0.7555 -0.4638
 6726TIP3    H241670   0.161   6.485   0.995  1.4751  0.6530  0.2378
 6727TIP3   OH241671   6.530   5.529   5.015 -0.5202 -0.1333 -0.0200
 6727TIP3    H141672   6.527   5.624   5.022  0.2056 -0.1746  0.8540
 6727TIP3    H241673   6.553   5.512   4.923  0.5314  0.5458  0.1149
 6728TIP3   OH241674   4.835   2.233  11.898  0.2677  0.1813  0.2679
 6728TIP3    H141675   4.869   2.161  11.845 -1.1519  0.7827 -1.5101
 6728TIP3    H241676   4.763   2.194  11.948 -0.5836  0.3588 -0.7887
 6729TIP3   OH241677   2.546   6.237   1.830 -0.0889  0.3375 -0.5153
 6729TIP3    H141678   2.634   6.249   1.867 -1.3088  1.6902  2.1213
 6729TIP3    H241679   2.535   6.313   1.773  0.2271  0.4878 -0.3832
 6730TIP3   OH241680   5.694   0.831   2.144 -0.1427 -0.7521 -0.1831
 6730TIP3    H141681   5.674   0.789   2.227  0.2582 -0.6883 -0.0544
 6730TIP3    H241682   5.686   0.760   2.079  0.3927 -0.9994  0.0162
 6731TIP3   OH241683   6.205   5.739  13.397 -0.0683  0.5115 -0.0020
 6731TIP3    H141684   6.282   5.718  13.450 -0.2232  0.5780  0.2505
 6731TIP3    H241685   6.134   5.746  13.461 -0.1920  0.9093 -0.1858
 6732TIP3   OH241686   3.554   5.334   5.792  0.5199 -0.3651  0.3018
 6732TIP3    H141687   3.498   5.270   5.747  0.1823  0.7295 -0.8567
 6732TIP3    H241688   3.494   5.395   5.834  0.8436 -0.1254  0.4268
 6733TIP3   OH241689   6.422   3.480  14.716  0.5899 -0.5326 -0.0704
 6733TIP3    H141690   6.364   3.416  14.757  0.9638 -0.6800  0.2335
 6733TIP3    H241691   6.506   3.433  14.707  0.7573 -0.2098 -0.1949
 6734TIP3   OH241692   3.149   2.774   3.604  0.2262 -0.5253 -0.5324
 6734TIP3    H141693   3.138   2.679   3.592 -0.3594 -0.3155 -1.7902
 6734TIP3    H241694   3.242   2.786   3.622 -0.0013 -1.5067  1.4428
 6735TIP3   OH241695   5.978   5.484  13.332  0.2374  0.1081 -0.2181
 6735TIP3    H141696   5.996   5.391  13.346 -0.5409  0.1373  1.0556
 6735TIP3    H241697   6.064   5.526  13.343  0.1961 -0.2240  1.4757
 6736TIP3   OH241698   3.460   0.735  16.940 -0.4069  0.4220 -0.1870
 6736TIP3    H141699   3.528   0.735  16.872  0.7269 -0.8430  0.9276
 6736TIP3    H241700   3.408   0.814  16.922  0.4569  0.6037 -1.9426
 6737TIP3   OH241701   2.789   0.965  14.759 -0.0078  0.1679 -0.3634
 6737TIP3    H141702   2.737   1.043  14.740  0.7291  0.6987 -0.2255
 6737TIP3    H241703   2.730   0.909  14.809 -0.8698  0.1941 -1.3269
 6738TIP3   OH241704   6.573   1.657  14.475 -0.5490 -0.2013  0.3850
 6738TIP3    H141705   6.598   1.590  14.539  0.5428 -0.8418 -0.6837
 6738TIP3    H241706   6.599   1.620  14.391 -1.9661  0.6354 -0.4349
 6739TIP3   OH241707   0.240   0.008  16.391 -0.3232 -0.2968 -0.7198
 6739TIP3    H141708   0.260  -0.057  16.324 -0.5445 -0.3675 -0.7192
 6739TIP3    H241709   0.203  -0.043  16.464  0.5055 -0.2951 -0.2950
 6740TIP3   OH241710   2.753   0.670  12.498 -0.2457 -0.0166  0.2789
 6740TIP3    H141711   2.757   0.696  12.406 -2.3585  1.2297  0.5051
 6740TIP3    H241712   2.689   0.599  12.500  0.6507 -0.8326  0.6437
 6741TIP3   OH241713   6.286   1.923   6.482 -0.5732  0.2704  0.1561
 6741TIP3    H141714   6.291   2.018   6.498  0.5413  0.4899 -1.3804
 6741TIP3    H241715   6.369   1.889   6.514 -2.2005 -0.6945  3.6247
 6742TIP3   OH241716   5.176   0.988   3.205 -0.3177  0.2982 -0.5001
 6742TIP3    H141717   5.205   0.939   3.282  0.0836  0.7735 -0.3454
 6742TIP3    H241718   5.100   0.939   3.173 -0.7528  0.3384  0.4501
 6743TIP3   OH241719   1.712   4.072  11.280 -0.0553  0.0769  0.1783
 6743TIP3    H141720   1.657   3.997  11.260 -0.2115 -0.1636  1.4251
 6743TIP3    H241721   1.650   4.146  11.285 -0.5499 -0.4362  3.0205
 6744TIP3   OH241722   3.725   6.006   3.312  0.0778 -0.3297  0.0891
 6744TIP3    H141723   3.729   5.912   3.333 -1.7048 -0.5244 -0.2957
 6744TIP3    H241724   3.748   6.011   3.219 -2.1159 -0.6922 -0.5089
 6745TIP3   OH241725   1.313   3.478  17.146  0.7803  0.1082 -0.8814
 6745TIP3    H141726   1.225   3.481  17.184  0.7285  0.1317 -1.0046
 6745TIP3    H241727   1.370   3.459  17.221  0.9764  2.7976 -0.2749
 6746TIP3   OH241728   0.730   3.461   4.772 -0.0969  0.2217 -0.1725
 6746TIP3    H141729   0.749   3.555   4.764 -0.8783  0.2579 -1.7216
 6746TIP3    H241730   0.637   3.457   4.791  0.7706 -0.0825  4.8486
 6747TIP3   OH241731   1.304   4.630   2.205 -0.0782 -0.0492  0.4481
 6747TIP3    H141732   1.372   4.582   2.158 -0.1800  0.7281 -0.5098
 6747TIP3    H241733   1.232   4.636   2.142 -0.6512  0.0177  1.1077
 6748TIP3   OH241734   6.662   3.285  12.916 -0.2998  0.3634 -0.2961
 6748TIP3    H141735   6.691   3.206  12.872  0.7564  1.0149 -0.8021
 6748TIP3    H241736   6.585   3.313  12.868 -0.1918  0.0960 -0.6246
 6749TIP3   OH241737   5.457   5.308   5.657  0.0170 -0.6012  0.0584
 6749TIP3    H141738   5.421   5.229   5.697 -0.9828 -0.4460 -0.5224
 6749TIP3    H241739   5.546   5.283   5.630  0.2634 -1.0584  1.2767
 6750TIP3   OH241740   2.247   5.823  10.905 -0.1878 -0.1936 -0.1163
 6750TIP3    H141741   2.283   5.910  10.890  2.4111 -1.2153  0.0602
 6750TIP3    H241742   2.209   5.828  10.993  1.1038  0.3831  0.4201
 6751TIP3   OH241743   2.833   3.667   2.234  0.0158  0.0449  0.4755
 6751TIP3    H141744   2.835   3.701   2.145 -0.1720  0.2151  0.5356
 6751TIP3    H241745   2.757   3.609   2.237 -0.0466  0.1297  0.5562
 6752TIP3   OH241746   5.616   0.195  14.417 -0.1346  0.0748 -0.5742
 6752TIP3    H141747   5.662   0.117  14.448 -2.0787 -1.1027 -0.5119
 6752TIP3    H241748   5.524   0.168  14.416 -0.8566  2.4722 -0.2848
 6753TIP3   OH241749   1.263   5.693   2.469  0.0614 -0.0370  0.6416
 6753TIP3    H141750   1.241   5.693   2.562 -0.6782 -1.1928  0.4669
 6753TIP3    H241751   1.346   5.740   2.465 -0.1154  0.4069  1.8326
 6754TIP3   OH241752   0.321   1.982   3.730  0.2224  0.1746  0.0362
 6754TIP3    H141753   0.396   2.023   3.772  0.5576 -1.0023  0.6123
 6754TIP3    H241754   0.281   2.052   3.677  1.5155  0.8834 -0.0100
 6755TIP3   OH241755   2.191   0.995   0.033  0.6647  0.2089 -0.3653
 6755TIP3    H141756   2.213   1.087   0.018 -1.0980  0.6719 -0.2507
 6755TIP3    H241757   2.123   0.998   0.101  0.0790 -1.1296 -0.8819
 6756TIP3   OH241758   5.792   3.794   0.351 -0.3080  0.0911  0.3718
 6756TIP3    H141759   5.740   3.786   0.431 -0.0490  0.5683  0.5876
 6756TIP3    H241760   5.733   3.835   0.288 -0.2306  0.5492  0.5907
 6757TIP3   OH241761   3.720   6.532   5.445 -0.7685 -0.1167  0.1195
 6757TIP3    H141762   3.747   6.447   5.480 -2.6062 -0.3871  0.9864
 6757TIP3    H241763   3.801   6.583   5.438  0.2221 -1.6217  0.4781
 6758TIP3   OH241764   4.750   2.711   1.331  0.1009  0.1337 -0.6481
 6758TIP3    H141765   4.680   2.774   1.315 -1.1307 -1.2682 -0.8692
 6758TIP3    H241766   4.777   2.727   1.421 -1.1684  0.0410 -0.2448
 6759TIP3   OH241767   1.146   3.017   3.674  0.1295 -0.2192  0.1889
 6759TIP3    H141768   1.208   2.944   3.665  0.4567 -0.0659  1.0983
 6759TIP3    H241769   1.099   3.019   3.591 -0.7328 -2.2402  0.6145
 6760TIP3   OH241770   6.016   6.454  16.707  0.1726 -0.0330  0.1462
 6760TIP3    H141771   6.006   6.391  16.779 -0.4818 -2.4455 -1.9851
 6760TIP3    H241772   5.949   6.521  16.724 -1.2358 -1.5754  0.7945
 6761TIP3   OH241773   0.563   5.641  12.576  0.1219  0.1278  0.5410
 6761TIP3    H141774   0.596   5.621  12.664  1.1830  2.0328  0.5893
 6761TIP3    H241775   0.641   5.643  12.521 -0.4536 -0.2043 -0.2967
 6762TIP3   OH241776   6.031   3.782   1.563 -0.1698  0.4178 -0.7608
 6762TIP3    H141777   6.005   3.851   1.502  0.6262  1.9998  0.6618
 6762TIP3    H241778   6.115   3.750   1.530 -0.1314  0.7190 -0.9493
 6763TIP3   OH241779   6.074   0.773  12.342  0.2154  0.5119 -0.7983
 6763TIP3    H141780   6.157   0.730  12.322  0.0307  0.8398 -2.3409
 6763TIP3    H241781   6.034   0.789  12.257 -1.9305 -0.6052 -0.0557
 6764TIP3   OH241782   1.217   0.177  16.382 -0.8789 -0.1243  0.4213
 6764TIP3    H141783   1.166   0.247  16.340 -0.7664 -0.3387 -0.0734
 6764TIP3    H241784   1.182   0.172  16.471 -1.3895  0.0613  0.2327
 6765TIP3   OH241785   0.602   2.384  11.648  0.5921  0.2051  0.0599
 6765TIP3    H141786   0.583   2.475  11.672 -1.9235 -0.4639  0.8319
 6765TIP3    H241787   0.591   2.381  11.553 -1.7550  0.2193  0.3014
 6766TIP3   OH241788   0.938   5.521   1.104  0.3450  0.0020  0.9694
 6766TIP3    H141789   0.862   5.486   1.056 -1.3904  0.2996  3.3745
 6766TIP3    H241790   1.005   5.532   1.038 -2.0720  0.7612 -1.4553
 6767TIP3   OH241791   4.801   3.950   2.524 -0.6535 -0.1022 -0.1356
 6767TIP3    H141792   4.739   4.022   2.514  0.5628  1.0484  0.5544
 6767TIP3    H241793   4.813   3.917   2.435 -0.8259  0.8707 -0.5253
 6768TIP3   OH241794   1.281   4.102   5.317  0.4352 -0.6334  0.0076
 6768TIP3    H141795   1.211   4.063   5.369  0.9322 -1.6846 -0.0943
 6768TIP3    H241796   1.262   4.073   5.227  0.3246  0.0804 -0.2017
 6769TIP3   OH241797   0.404   3.390   3.425  0.0010 -0.6592 -0.1731
 6769TIP3    H141798   0.339   3.453   3.393 -0.2890 -0.9873 -0.2399
 6769TIP3    H241799   0.412   3.409   3.519 -1.6877 -1.9173  0.2562
 6770TIP3   OH241800   5.019   0.795  16.935  0.2470 -0.0064 -0.3043
 6770TIP3    H141801   5.110   0.789  16.906  0.0740 -0.3481 -0.7815
 6770TIP3    H241802   5.013   0.733  17.007  0.8352  1.2901  0.8816
 6771TIP3   OH241803   5.588   5.538   1.630  0.3124  0.2807  0.3694
 6771TIP3    H141804   5.616   5.585   1.552 -1.9758 -0.4321 -0.9336
 6771TIP3    H241805   5.580   5.447   1.601  0.5071 -0.1878  1.7420
 6772TIP3   OH241806   0.557   4.295   5.185 -0.0229 -0.3638 -0.0906
 6772TIP3    H141807   0.591   4.317   5.272  1.7474 -1.4413 -0.4701
 6772TIP3    H241808   0.535   4.202   5.192 -2.1864  0.1417 -0.0958
 6773TIP3   OH241809   5.882   5.091   3.982  0.2632  0.5662 -0.8921
 6773TIP3    H141810   5.969   5.052   3.975  0.5577  0.8774  0.9217
 6773TIP3    H241811   5.889   5.173   3.932  0.7761  0.1975 -1.4288
 6774TIP3   OH241812   2.607   3.776  12.969 -0.0849 -1.1687  0.4312
 6774TIP3    H141813   2.522   3.734  12.982 -1.6412  0.8991 -2.5515
 6774TIP3    H241814   2.595   3.865  13.005  0.6265 -0.6828 -0.5143
 6775TIP3   OH241815   4.649   5.693  11.499  0.3093 -0.0231 -0.4665
 6775TIP3    H141816   4.669   5.733  11.583  0.9439 -0.2710 -0.4957
 6775TIP3    H241817   4.695   5.609  11.500 -0.5208 -0.4976 -0.6410
 6776TIP3   OH241818   5.646   0.453  15.703 -0.2976  0.0626  0.1434
 6776TIP3    H141819   5.711   0.517  15.675 -0.8773  0.4512 -0.3117
 6776TIP3    H241820   5.625   0.477  15.793 -0.4719  0.4821 -0.0077
 6777TIP3   OH241821   2.133   0.353  11.186  0.0613 -0.2331 -0.2868
 6777TIP3    H141822   2.138   0.343  11.281 -2.7261  3.2648  0.3461
 6777TIP3    H241823   2.106   0.267  11.154 -1.0455 -0.9009  2.3206
 6778TIP3   OH241824   6.642   4.274  11.842 -0.1306  0.2256  0.2256
 6778TIP3    H141825   6.584   4.223  11.899 -0.6330  0.5995  0.0588
 6778TIP3    H241826   6.582   4.333  11.795  0.1873 -0.5438 -1.1765
 6779TIP3   OH241827   1.219   0.562  11.897 -0.3539 -0.2221 -0.8611
 6779TIP3    H141828   1.216   0.530  11.806  0.6073 -0.2724 -0.8844
 6779TIP3    H241829   1.128   0.577  11.920 -0.6369 -0.5872 -1.7093
 6780TIP3   OH241830   1.369   6.082  14.182  0.6803 -0.2387  0.6904
 6780TIP3    H141831   1.307   6.018  14.217  0.3577 -0.4153 -0.1851
 6780TIP3    H241832   1.347   6.088  14.089  1.1146  0.6895  0.6465
 6781TIP3   OH241833   3.027   2.013   4.580 -0.2545  0.0367  0.3097
 6781TIP3    H141834   3.053   2.064   4.657  0.1812 -0.1926  0.3177
 6781TIP3    H241835   2.945   1.971   4.606 -1.2661  1.7175 -0.1489
 6782TIP3   OH241836   3.703   0.079   2.416 -0.1720  0.6118  0.2023
 6782TIP3    H141837   3.756   0.121   2.348  0.4706  1.2924  1.1075
 6782TIP3    H241838   3.642   0.022   2.368 -1.6793  3.2470 -1.1228
 6783TIP3   OH241839   2.808   1.612   5.249 -0.5043  0.4060 -0.1413
 6783TIP3    H141840   2.862   1.608   5.170  0.3863 -0.9323  0.5085
 6783TIP3    H241841   2.782   1.704   5.256  1.8926  1.1559 -0.3804
 6784TIP3   OH241842   4.276   4.333  14.157 -0.5521 -0.3696  0.2969
 6784TIP3    H141843   4.260   4.406  14.097 -1.3465  0.0831  1.0561
 6784TIP3    H241844   4.214   4.346  14.229 -2.2830 -3.0550 -0.6526
 6785TIP3   OH241845   4.121   1.712   4.491 -0.1214  0.0375 -0.6094
 6785TIP3    H141846   4.158   1.800   4.501 -1.1181  0.6011 -1.7446
 6785TIP3    H241847   4.043   1.712   4.546 -0.6956  0.2120 -1.4166
 6786TIP3   OH241848   1.980   2.108  16.461 -0.1187 -0.9335 -0.3116
 6786TIP3    H141849   1.904   2.083  16.514  0.6789 -3.2158 -0.2222
 6786TIP3    H241850   2.053   2.057  16.496  1.4558  1.0857 -0.5247
 6787TIP3   OH241851   3.025   1.606   2.903  0.3333  0.1917 -0.3456
 6787TIP3    H141852   2.995   1.517   2.884 -1.3048  0.4620  0.8543
 6787TIP3    H241853   3.100   1.594   2.961  0.5104 -0.4152 -0.6951
 6788TIP3   OH241854   6.305   2.899   5.220  0.6971  0.7791  0.0113
 6788TIP3    H141855   6.352   2.847   5.285 -1.1002 -2.6608 -1.2983
 6788TIP3    H241856   6.249   2.956   5.272  1.6099  0.3574  1.5074
 6789TIP3   OH241857   2.008   4.014  11.896 -0.3950  0.1535  0.3488
 6789TIP3    H141858   1.976   3.933  11.935  1.5701 -0.7543  0.1660
 6789TIP3    H241859   2.051   4.060  11.968  0.8599 -0.2549 -0.1220
 6790TIP3   OH241860   1.239   6.082   5.123  0.3012 -0.4978  0.1477
 6790TIP3    H141861   1.313   6.102   5.180  0.5151 -0.4427 -0.1521
 6790TIP3    H241862   1.193   6.166   5.113 -1.0277 -0.9499  2.0790
 6791TIP3   OH241863   1.467   1.448   5.651  0.5362  0.0127  0.1905
 6791TIP3    H141864   1.405   1.376   5.649 -0.6007  0.9234  1.1735
 6791TIP3    H241865   1.460   1.489   5.565 -1.5808  1.1964  0.8981
 6792TIP3   OH241866   5.130   5.944   5.584  0.2729  0.1641 -0.1020
 6792TIP3    H141867   5.085   5.882   5.642  0.7560 -0.2614 -0.1749
 6792TIP3    H241868   5.174   5.888   5.520 -1.0455  0.6667 -1.4600
 6793TIP3   OH241869   4.375   3.553   3.230  0.1590 -0.1400 -0.0885
 6793TIP3    H141870   4.341   3.566   3.142  1.3570 -1.6231 -0.8089
 6793TIP3    H241871   4.364   3.637   3.273  1.5796  1.2608 -2.3691
 6794TIP3   OH241872   2.827   5.331  13.619  0.2395 -0.3560 -0.0906
 6794TIP3    H141873   2.866   5.264  13.563  0.3098  0.9582 -1.6361
 6794TIP3    H241874   2.753   5.365  13.569  0.5995  1.1927  0.3937
 6795TIP3   OH241875   2.122   3.556   0.697 -0.1335  0.1502  0.1469
 6795TIP3    H141876   2.209   3.593   0.712 -1.2368  1.8941  2.5213
 6795TIP3    H241877   2.066   3.631   0.682 -1.9640 -0.6409  2.6382
 6796TIP3   OH241878   2.714   5.935   3.213  0.0214  0.2223  0.4891
 6796TIP3    H141879   2.719   5.995   3.138  1.7295 -0.0322  0.3792
 6796TIP3    H241880   2.771   5.975   3.279  2.8449 -2.3016 -0.3326
 6797TIP3   OH241881   6.460   0.581  11.922 -0.2199 -0.3657 -0.0884
 6797TIP3    H141882   6.486   0.671  11.906  1.5758 -0.8019  0.1850
 6797TIP3    H241883   6.365   0.580  11.911 -0.4541  1.8694  1.4613
 6798TIP3   OH241884   2.417   3.481  15.271 -0.0998  0.5402  0.1038
 6798TIP3    H141885   2.458   3.553  15.319  2.2941 -0.2637 -0.6186
 6798TIP3    H241886   2.382   3.423  15.338  0.5725  0.9264  0.7983
 6799TIP3   OH241887   2.166   5.340  12.248  0.1458 -0.4563  0.0946
 6799TIP3    H141888   2.199   5.352  12.159  0.5379 -1.1737  0.1320
 6799TIP3    H241889   2.097   5.405  12.257  1.5442  1.0948  0.0064
 6800TIP3   OH241890   3.626   0.588  16.449 -0.3774 -0.5496  0.2218
 6800TIP3    H141891   3.632   0.571  16.356 -0.8193 -1.0528  0.2814
 6800TIP3    H241892   3.602   0.504  16.488 -0.2543 -0.3320  0.7775
 6801TIP3   OH241893   5.777   4.123   3.248  0.1653  0.0939  0.2713
 6801TIP3    H141894   5.776   4.098   3.156  0.4061  0.6531  0.1128
 6801TIP3    H241895   5.772   4.219   3.247 -1.5445  0.0149  0.8972
 6802TIP3   OH241896   1.670   4.329  14.378 -0.2483  0.2158 -0.0002
 6802TIP3    H141897   1.669   4.281  14.295  0.1265 -0.7201  0.5210
 6802TIP3    H241898   1.599   4.289  14.429 -0.1652  0.4611  0.3062
 6803TIP3   OH241899   3.256   0.606   5.488 -0.5970  0.3859 -0.4388
 6803TIP3    H141900   3.252   0.658   5.568 -0.7382 -0.9677  0.4565
 6803TIP3    H241901   3.164   0.595   5.463 -0.6762 -0.8935  0.3603
 6804TIP3   OH241902   3.984   2.938   1.869 -0.1691  0.6940 -0.2854
 6804TIP3    H141903   3.975   3.029   1.896  0.6064  0.9505 -0.8518
 6804TIP3    H241904   3.906   2.894   1.902  0.7452  0.9888  2.3504
 6805TIP3   OH241905   4.975   3.109  15.387  0.1139  0.2570 -0.6895
 6805TIP3    H141906   4.963   3.044  15.318 -1.2778  1.2253 -1.3654
 6805TIP3    H241907   4.891   3.153  15.395  0.5936  0.9527  0.8265
 6806TIP3   OH241908   0.323   5.944   5.160  0.5156  0.8034  0.0076
 6806TIP3    H141909   0.375   5.997   5.100 -0.2189  1.9681  0.3979
 6806TIP3    H241910   0.300   6.003   5.231 -1.4954  0.3692 -0.2450
 6807TIP3   OH241911   5.195   4.964   0.042 -0.0189  0.0320 -0.2724
 6807TIP3    H141912   5.120   4.976  -0.016  1.5377  0.8416 -2.1835
 6807TIP3    H241913   5.236   4.883   0.012  1.6743  1.2480 -1.3713
 6808TIP3   OH241914   2.702   6.329  10.322 -0.2175  0.5360 -0.1098
 6808TIP3    H141915   2.695   6.424  10.313  0.8740  0.7687  1.2896
 6808TIP3    H241916   2.716   6.315  10.415 -0.5974 -1.0208 -0.2754
 6809TIP3   OH241917   0.551   1.683   0.753  0.0629  0.5452 -0.3045
 6809TIP3    H141918   0.483   1.620   0.729  1.1624 -0.2819 -1.3698
 6809TIP3    H241919   0.632   1.631   0.753  0.8406  1.7304 -0.1165
 6810TIP3   OH241920   5.311   4.182   3.018 -0.1859 -0.4108  0.0671
 6810TIP3    H141921   5.340   4.255   3.073 -4.0325  0.0045  1.6775
 6810TIP3    H241922   5.381   4.117   3.026  2.1453  2.0550  0.5988
 6811TIP3   OH241923   5.547   3.821   3.526  0.7707  0.3145 -0.1016
 6811TIP3    H141924   5.486   3.754   3.555  0.2554  0.7878 -0.0767
 6811TIP3    H241925   5.579   3.790   3.442  1.4314 -0.5298  0.4565
 6812TIP3   OH241926   5.964   0.553  15.326  0.4628 -0.6045 -0.2594
 6812TIP3    H141927   6.012   0.470  15.321  0.5460 -0.6803  1.6418
 6812TIP3    H241928   6.032   0.620  15.329  0.4412 -0.6126  0.6040
 6813TIP3   OH241929   3.154   6.065  15.548 -0.1975  0.0726 -0.1553
 6813TIP3    H141930   3.082   6.030  15.495 -0.4309  1.0801 -0.5227
 6813TIP3    H241931   3.127   6.156  15.566  0.3782  0.0501  0.7915
 6814TIP3   OH241932   5.212   1.994  16.120  0.4272  0.0311  0.7903
 6814TIP3    H141933   5.181   2.025  16.205 -2.9373  1.3502 -0.8293
 6814TIP3    H241934   5.253   2.071  16.081 -2.3529  0.8009 -0.6968
 6815TIP3   OH241935   2.361   1.081   2.980 -0.1433 -0.2769 -0.2096
 6815TIP3    H141936   2.367   1.004   2.924 -2.5510 -1.0069  0.4803
 6815TIP3    H241937   2.306   1.142   2.932 -0.9164 -0.2840  0.6379
 6816TIP3   OH241938   1.341   0.484  15.897  0.2946  0.2883 -0.5353
 6816TIP3    H141939   1.360   0.568  15.856 -0.4917  1.1298  0.7987
 6816TIP3    H241940   1.368   0.419  15.832 -1.6445  1.5972 -2.7513
 6817TIP3   OH241941   4.892   4.420   0.613 -0.9060 -0.2904 -0.2732
 6817TIP3    H141942   4.938   4.438   0.531 -0.2912  0.7557  0.2848
 6817TIP3    H241943   4.867   4.507   0.646  2.0549 -0.4010  2.4721
 6818TIP3   OH241944   0.532   4.423  16.426  0.6952 -0.2039  0.7049
 6818TIP3    H141945   0.478   4.347  16.401  1.4326 -0.5913  0.2864
 6818TIP3    H241946   0.515   4.434  16.520 -1.6391  0.9090  0.1898
 6819TIP3   OH241947   4.168   5.331  12.249 -0.0188 -0.0165 -0.9416
 6819TIP3    H141948   4.084   5.287  12.256  0.5246 -1.0076 -0.4332
 6819TIP3    H241949   4.180   5.373  12.334  0.0142  0.0895 -0.9997
 6820TIP3   OH241950   5.300   5.075   4.545 -0.3055  0.0551 -0.4741
 6820TIP3    H141951   5.222   5.118   4.508 -1.2955 -1.3312 -0.0543
 6820TIP3    H241952   5.293   5.092   4.639  0.1602  0.3227 -0.4878
 6821TIP3   OH241953   0.423   0.632   2.895 -0.2339 -0.5328  0.2684
 6821TIP3    H141954   0.421   0.627   2.991 -1.5974 -1.2665  0.2112
 6821TIP3    H241955   0.471   0.554   2.868 -2.1001 -1.7166  0.2703
 6822TIP3   OH241956   4.627   2.444  17.147 -0.1067  0.1490 -0.0174
 6822TIP3    H141957   4.706   2.452  17.093  2.0128  0.9720  3.0056
 6822TIP3    H241958   4.623   2.351  17.169 -0.0661  0.0689 -0.3538
 6823TIP3   OH241959   5.280   5.921  12.159  0.4144  0.3738 -0.2725
 6823TIP3    H141960   5.369   5.930  12.192  0.4708  1.0134 -0.5982
 6823TIP3    H241961   5.274   5.984  12.087 -0.7309  1.3400  0.6408
 6824TIP3   OH241962   0.598   4.067  10.587 -0.2553 -0.0417  0.0780
 6824TIP3    H141963   0.528   4.122  10.622 -0.0679  0.6260 -0.5740
 6824TIP3    H241964   0.597   3.988  10.641 -1.4665 -0.0084  0.1096
 6825TIP3   OH241965   4.863   0.502   4.463  0.2867  0.0633 -0.6844
 6825TIP3    H141966   4.950   0.501   4.503 -0.0850  0.8601  0.1663
 6825TIP3    H241967   4.836   0.594   4.466 -0.4984 -0.1431 -1.1445
 6826TIP3   OH241968   3.570   0.176  14.427  0.4288 -0.3607  0.2453
 6826TIP3    H141969   3.608   0.234  14.494  0.2614 -0.1987  0.2012
 6826TIP3    H241970   3.625   0.098  14.429  0.3434 -0.4116  0.6665
 6827TIP3   OH241971   5.995   1.031   4.804  0.9704  0.2052  0.0008
 6827TIP3    H141972   5.978   1.061   4.714  0.3716  1.6055  0.5720
 6827TIP3    H241973   6.082   0.991   4.799  2.6121  3.6444 -0.4469
 6828TIP3   OH241974   2.284   3.094   3.077  0.0728  0.3339  0.3335
 6828TIP3    H141975   2.231   3.104   2.998  0.3383 -1.2845 -0.0739
 6828TIP3    H241976   2.343   3.021   3.058 -1.1487 -1.3666  2.6894
 6829TIP3   OH241977   3.362   2.550   4.183  0.3467  0.2343  0.6456
 6829TIP3    H141978   3.324   2.517   4.264 -0.2150  0.0767  0.3190
 6829TIP3    H241979   3.432   2.488   4.163  1.6763  1.2757  1.9610
 6830TIP3   OH241980   2.252   4.802  12.117 -0.0162  0.1099  0.8002
 6830TIP3    H141981   2.279   4.859  12.045 -1.1884 -1.0230 -0.5645
 6830TIP3    H241982   2.286   4.716  12.093 -0.4580 -0.2868  1.5867
 6831TIP3   OH241983   6.554   6.046   2.215  0.4784  0.5504  0.5742
 6831TIP3    H141984   6.494   6.112   2.251  2.1241  1.4875  1.6785
 6831TIP3    H241985   6.619   6.097   2.167  1.5238 -0.2952  1.0791
 6832TIP3   OH241986   4.915   4.822   0.350 -0.0660 -0.0707 -0.2332
 6832TIP3    H141987   4.864   4.887   0.302  0.2953 -0.5195 -1.2309
 6832TIP3    H241988   4.963   4.775   0.283  1.2928  0.0215  0.6602
 6833TIP3   OH241989   1.865   4.641   1.968 -0.3994  0.4357  0.0682
 6833TIP3    H141990   1.915   4.627   2.049  0.1093 -1.2871 -0.5228
 6833TIP3    H241991   1.797   4.573   1.970 -0.5943  0.6005 -0.7756
 6834TIP3   OH241992   1.959   3.418  16.242  0.3793  0.3450  0.4373
 6834TIP3    H141993   1.954   3.514  16.249 -0.4966  0.3238  0.1606
 6834TIP3    H241994   1.895   3.396  16.175  1.2785 -0.3593 -0.2092
 6835TIP3   OH241995   3.040   1.322  11.888  0.0750  0.0552  0.2372
 6835TIP3    H141996   3.057   1.238  11.932 -0.2192 -0.3681 -0.4423
 6835TIP3    H241997   3.108   1.328  11.821  0.0520  0.3300  0.2380
 6836TIP3   OH241998   3.764   2.214   5.452 -0.4788 -0.2506 -0.0590
 6836TIP3    H141999   3.827   2.141   5.454  1.1832  1.1814  1.0061
 6836TIP3    H242000   3.679   2.171   5.444  0.6043 -2.2431 -1.6601
 6837TIP3   OH242001   1.697   0.098  13.656 -0.3687 -0.1352 -0.1685
 6837TIP3    H142002   1.758   0.032  13.688  1.0587  0.6269 -1.2453
 6837TIP3    H242003   1.714   0.175  13.710 -0.0471  0.2231 -0.7750
 6838TIP3   OH242004   3.986   4.319   4.538  0.3952  0.7444 -0.9100
 6838TIP3    H142005   3.975   4.311   4.632  0.0857 -3.9383 -1.2405
 6838TIP3    H242006   3.897   4.324   4.503  0.4829  1.4952 -1.0337
 6839TIP3   OH242007   4.730   0.699  12.386  0.1297  0.7281 -0.3618
 6839TIP3    H142008   4.775   0.641  12.325  0.0204 -0.2368  0.4525
 6839TIP3    H242009   4.779   0.781  12.382  1.7096 -0.1641  0.1681
 6840TIP3   OH242010   6.394   6.418   2.816 -0.2391 -0.0564 -0.1070
 6840TIP3    H142011   6.441   6.472   2.880 -1.3614  2.1891 -1.1432
 6840TIP3    H242012   6.461   6.392   2.753  0.0344  1.5044 -0.4900
 6841TIP3   OH242013   0.549   1.939  16.509 -0.0614 -0.3867  0.2955
 6841TIP3    H142014   0.455   1.947  16.522  0.4041  2.2229  2.4074
 6841TIP3    H242015   0.561   1.851  16.473 -3.0804 -1.6285  2.1519
 6842TIP3   OH242016   2.923   3.346  12.789 -0.3611 -0.3726  0.6799
 6842TIP3    H142017   2.920   3.410  12.861  2.8968  0.2239  0.3479
 6842TIP3    H242018   2.966   3.269  12.827 -2.0344 -1.4985  0.3731
 6843TIP3   OH242019   2.708   6.761  13.518  0.2217 -0.1452  0.0328
 6843TIP3    H142020   2.656   6.733  13.593  0.9582  1.3712  1.1565
 6843TIP3    H242021   2.791   6.790  13.556  1.6823 -1.9938 -1.6667
 6844TIP3   OH242022   5.221   5.058   0.776  0.3886 -0.3896  0.0038
 6844TIP3    H142023   5.141   5.070   0.725  0.4773  0.2508  0.0109
 6844TIP3    H242024   5.219   5.129   0.840  0.2822 -1.1756  0.8902
 6845TIP3   OH242025   1.120   2.666   0.492  0.1153  0.2557 -0.3172
 6845TIP3    H142026   1.215   2.665   0.499  0.1572 -1.4882 -0.8989
 6845TIP3    H242027   1.103   2.665   0.398 -0.4830  0.0338 -0.2096
 6846TIP3   OH242028   1.153   1.521  12.699 -0.3413  0.4514  0.2235
 6846TIP3    H142029   1.127   1.473  12.777  1.3866 -1.3409 -0.2787
 6846TIP3    H242030   1.246   1.538  12.710 -0.9159  3.9026  0.4703
 6847TIP3   OH242031   6.265   4.846  12.594  0.5508  0.1227 -0.3488
 6847TIP3    H142032   6.309   4.775  12.547  0.7079  0.3440 -0.5386
 6847TIP3    H242033   6.190   4.868  12.538  1.0066  0.7061 -0.7303
 6848TIP3   OH242034   6.439   6.398   2.060 -0.5419 -0.2620 -0.2391
 6848TIP3    H142035   6.401   6.466   2.116  1.0010 -1.1548  1.9298
 6848TIP3    H242036   6.518   6.438   2.024 -0.6487 -0.2681 -0.4832
 6849TIP3   OH242037   0.426   3.031  13.445  0.6746  0.4223 -0.1205
 6849TIP3    H142038   0.363   3.093  13.409 -0.0167 -0.1508  0.0936
 6849TIP3    H242039   0.474   2.999  13.369 -0.9714 -0.9990 -0.5818
 6850TIP3   OH242040   6.332   5.758   3.105 -0.3227 -0.5411  0.3634
 6850TIP3    H142041   6.394   5.749   3.178 -1.3788  1.9401  1.6278
 6850TIP3    H242042   6.362   5.694   3.041  3.2860  0.2585  1.1071
 6851TIP3   OH242043   1.267   5.627  11.793  0.4672  0.5638  0.5487
 6851TIP3    H142044   1.305   5.712  11.814  1.4533  0.4911 -0.8860
 6851TIP3    H242045   1.203   5.646  11.724 -0.5361  0.3661  1.4033
 6852TIP3   OH242046   0.113   5.682   1.784 -0.5077  0.0497  0.0381
 6852TIP3    H142047   0.207   5.698   1.793 -0.6592  0.0167  1.9013
 6852TIP3    H242048   0.089   5.723   1.702  1.1697 -0.0740 -0.5263
 6853TIP3   OH242049   4.126   1.382  17.257  0.1670 -0.5474  0.1217
 6853TIP3    H142050   4.150   1.474  17.252  0.3108 -0.4895  1.6864
 6853TIP3    H242051   4.031   1.381  17.254  0.1616 -0.3411  0.2607
 6854TIP3   OH242052   5.874   2.276   6.467  0.3764 -0.4158  0.2611
 6854TIP3    H142053   5.786   2.247   6.492 -0.7219  2.0965 -0.5830
 6854TIP3    H242054   5.912   2.200   6.422 -1.4188 -1.4787  0.4916
 6855TIP3   OH242055   6.497   0.896  16.042 -0.1528  0.2749 -0.9507
 6855TIP3    H142056   6.485   0.859  15.954 -1.3520  0.7032 -0.9733
 6855TIP3    H242057   6.542   0.979  16.027 -0.8319  0.5950 -1.1967
 6856TIP3   OH242058   4.003   2.505   1.731  0.0229  0.0776  0.1254
 6856TIP3    H142059   4.024   2.411   1.731 -2.2101 -0.4645  0.2198
 6856TIP3    H242060   3.980   2.524   1.822 -1.4475  0.2378 -0.2651
 6857TIP3   OH242061   5.870   5.983  16.045 -0.3513 -0.1425 -0.5407
 6857TIP3    H142062   5.880   5.989  16.140 -0.2488 -0.8917 -0.4952
 6857TIP3    H242063   5.956   6.007  16.010 -0.3333 -0.0525 -0.4321
 6858TIP3   OH242064   4.757   6.377  16.726  0.2272 -0.3348  0.4577
 6858TIP3    H142065   4.678   6.342  16.766 -0.8939 -0.1490 -1.5384
 6858TIP3    H242066   4.726   6.428  16.651  1.9922  2.5678  1.5917
 6859TIP3   OH242067   5.547   0.984  12.746  0.0083 -0.8274  0.5115
 6859TIP3    H142068   5.627   0.969  12.798 -0.4108  0.3967  1.5356
 6859TIP3    H242069   5.478   0.941  12.797 -0.3645  0.1580  0.8412
 6860TIP3   OH242070   0.822   6.735  11.962  0.4573 -0.4795  0.2839
 6860TIP3    H142071   0.816   6.804  12.028  0.5248  1.3760 -1.5889
 6860TIP3    H242072   0.731   6.713  11.943  0.3579  0.7918 -0.8005
 6861TIP3   OH242073   2.561   1.785   2.857  0.7239 -0.1119  0.3544
 6861TIP3    H142074   2.641   1.788   2.804 -0.0605  1.3017 -0.7958
 6861TIP3    H242075   2.566   1.864   2.911 -0.5570  0.7296 -0.7286
 6862TIP3   OH242076   0.720   3.865  11.837  0.3062  0.2770 -0.3029
 6862TIP3    H142077   0.662   3.915  11.894 -0.6664  0.5756 -1.5481
 6862TIP3    H242078   0.725   3.779  11.879 -2.0471 -0.1582 -0.8450
 6863TIP3   OH242079   4.423   1.046  14.203  0.4096 -0.2382 -0.3603
 6863TIP3    H142080   4.485   1.081  14.266  0.5690 -0.8050 -0.1985
 6863TIP3    H242081   4.451   1.082  14.119 -0.4880  1.4451  0.0304
 6864TIP3   OH242082   0.160   3.859  13.331 -0.4707 -0.7382 -0.8638
 6864TIP3    H142083   0.232   3.887  13.275 -0.5049 -1.4667 -1.2709
 6864TIP3    H242084   0.200   3.849  13.418 -0.3178 -0.0949 -0.8538
 6865TIP3   OH242085   4.760   0.728   0.467  0.6284  0.0945  0.5523
 6865TIP3    H142086   4.670   0.739   0.499 -0.1898 -1.3566 -1.1569
 6865TIP3    H242087   4.791   0.817   0.452 -1.0316  0.5735 -0.1660
 6866TIP3   OH242088   3.373   5.283   2.076 -0.2797  0.4289  0.2149
 6866TIP3    H142089   3.296   5.339   2.075 -0.9407 -0.4678 -1.0418
 6866TIP3    H242090   3.387   5.263   2.169  1.0928  4.1268  0.8932
 6867TIP3   OH242091   4.620   2.867  17.015  0.2010 -0.2403  0.1899
 6867TIP3    H142092   4.712   2.861  17.043 -0.2636 -1.0765  1.5643
 6867TIP3    H242093   4.617   2.947  16.962  1.7591 -0.3088 -0.0448
 6868TIP3   OH242094   0.558   6.569   3.100  0.1721 -0.0409 -0.0584
 6868TIP3    H142095   0.545   6.513   3.024  0.0955 -1.8805  1.2667
 6868TIP3    H242096   0.653   6.571   3.113  0.0647 -1.8373  1.2754
 6869TIP3   OH242097   1.874   5.905   3.719  0.2517  0.3225  0.7394
 6869TIP3    H142098   1.791   5.857   3.724 -0.5784  1.4913 -1.1870
 6869TIP3    H242099   1.923   5.876   3.796 -0.5986 -2.8865  0.1592
 6870TIP3   OH242100   1.611   0.845  12.005  0.1131  0.5546 -0.4299
 6870TIP3    H142101   1.613   0.832  11.910  0.9049  1.5244 -0.5575
 6870TIP3    H242102   1.528   0.889  12.022  0.7631  2.0161 -0.9131
 6871TIP3   OH242103   1.587   1.126  14.776 -0.0846 -0.5044  0.5006
 6871TIP3    H142104   1.645   1.202  14.772  0.8516 -1.2447 -0.1330
 6871TIP3    H242105   1.642   1.055  14.810 -0.5678 -1.2471 -0.2470
 6872TIP3   OH242106   0.890   2.001  15.260 -0.4766  0.4981 -0.3595
 6872TIP3    H142107   0.960   2.019  15.323  0.1603  0.5830 -1.0714
 6872TIP3    H242108   0.927   1.933  15.203 -0.5542  1.3339 -1.4185
 6873TIP3   OH242109   6.508   2.003   6.309 -0.1867  0.2663 -0.1896
 6873TIP3    H142110   6.531   2.004   6.402 -1.0568  0.8781  0.0277
 6873TIP3    H242111   6.549   2.082   6.274  1.9035 -1.0612 -0.7703
 6874TIP3   OH242112   5.530   3.375   2.100 -0.6333  0.0552 -0.1616
 6874TIP3    H142113   5.440   3.370   2.131 -0.7108 -2.6797 -0.6812
 6874TIP3    H242114   5.525   3.420   2.016 -1.3895  0.6375  0.1891
 6875TIP3   OH242115   0.084   5.005   2.782  0.0191 -0.2426  0.1798
 6875TIP3    H142116   0.017   5.073   2.780  1.1689  0.9042 -4.1476
 6875TIP3    H242117   0.153   5.041   2.838 -1.1113  0.3624  1.2126
 6876TIP3   OH242118   0.571   1.335   5.682 -1.0268  0.1898 -0.4001
 6876TIP3    H142119   0.509   1.400   5.649 -1.4365  0.2404  0.4313
 6876TIP3    H242120   0.595   1.283   5.605 -3.8819 -1.2947 -0.3906
 6877TIP3   OH242121   2.614   3.169  13.915  0.3623  0.7405  0.0888
 6877TIP3    H142122   2.665   3.130  13.986 -0.5151 -0.3000  0.1612
 6877TIP3    H242123   2.666   3.152  13.836  0.5810  0.5194  0.2822
 6878TIP3   OH242124   3.022   6.227  12.299 -0.3551  0.0589 -0.0136
 6878TIP3    H142125   2.987   6.273  12.222 -2.2462 -1.1616  0.0848
 6878TIP3    H242126   3.101   6.275  12.321  0.7730 -0.1317 -3.3198
 6879TIP3   OH242127   3.690   0.202   5.473  0.4541 -0.0685  0.0695
 6879TIP3    H142128   3.609   0.251   5.456  0.9390  2.0430  3.3865
 6879TIP3    H242129   3.752   0.235   5.407 -1.4078 -1.9566 -2.7280
 6880TIP3   OH242130   5.238   5.888  15.746 -0.2550 -0.1313  0.8740
 6880TIP3    H142131   5.217   5.946  15.819 -0.0674 -0.3283  1.0860
 6880TIP3    H242132   5.267   5.807  15.787  1.9123  0.4723  0.6265
 6881TIP3   OH242133   1.507   0.571  10.310  0.1560 -0.2290 -0.0449
 6881TIP3    H142134   1.539   0.524  10.233 -2.6780 -0.1100 -1.3730
 6881TIP3    H242135   1.413   0.578  10.296  0.1040  3.1779  1.6029
 6882TIP3   OH242136   5.973   2.481  11.614  0.7685 -0.3700 -0.2378
 6882TIP3    H142137   6.004   2.572  11.615  0.1670 -0.1193 -2.0393
 6882TIP3    H242138   5.969   2.459  11.521 -0.4232 -1.7822  0.1411
 6883TIP3   OH242139   4.240   0.232  17.167  0.2575 -0.0019  0.3429
 6883TIP3    H142140   4.301   0.167  17.201  0.4533  0.8225  1.6330
 6883TIP3    H242141   4.169   0.235  17.232 -0.3141  0.2465 -0.2826
 6884TIP3   OH242142   1.524   6.260  15.936 -0.2993  0.0209 -0.6416
 6884TIP3    H142143   1.507   6.308  15.856  0.4656 -0.9418 -1.3968
 6884TIP3    H242144   1.461   6.295  15.999  0.7526  2.5393 -0.9425
 6885TIP3   OH242145   4.080   2.009  16.277  0.1894 -0.3121 -0.0000
 6885TIP3    H142146   4.150   2.071  16.300  0.3556 -0.4878 -0.0274
 6885TIP3    H242147   4.089   1.939  16.342  1.9091 -1.7851 -1.7735
 6886TIP3   OH242148   6.507   2.454   3.323 -0.1479  0.0762  0.2026
 6886TIP3    H142149   6.549   2.428   3.241  1.7150  1.8374  0.5695
 6886TIP3    H242150   6.426   2.497   3.295 -0.1131 -0.3912 -0.6479
 6887TIP3   OH242151   3.829   3.612   4.782 -0.4136  0.0663  0.7931
 6887TIP3    H142152   3.887   3.682   4.810 -0.9986  0.5756  0.7396
 6887TIP3    H242153   3.788   3.581   4.863 -1.7626  1.2335  0.5871
 6888TIP3   OH242154   2.384   0.904  16.767 -0.0751  0.0551 -0.1249
 6888TIP3    H142155   2.422   0.947  16.844  1.1397  0.2127 -0.8017
 6888TIP3    H242156   2.439   0.827  16.754 -1.1759 -0.7613  0.0341
 6889TIP3   OH242157   1.128   2.176   1.341  0.0976 -0.5647 -0.3576
 6889TIP3    H142158   1.141   2.191   1.248 -0.1778 -0.5359 -0.3932
 6889TIP3    H242159   1.212   2.198   1.381  0.1465 -0.3563 -0.5742
 6890TIP3   OH242160   4.577   1.032  14.712 -0.4880 -0.0358  0.5797
 6890TIP3    H142161   4.570   1.128  14.719 -0.9651 -0.0092 -0.1669
 6890TIP3    H242162   4.670   1.017  14.694 -0.2380  0.2233  1.6208
 6891TIP3   OH242163   4.148   6.736   3.365 -0.0059 -0.0893  0.2396
 6891TIP3    H142164   4.094   6.681   3.422  0.0190 -1.5430 -1.1045
 6891TIP3    H242165   4.085   6.787   3.314 -0.0346  0.8414  1.1797
 6892TIP3   OH242166   5.498   6.373   1.685 -0.1635 -0.1181  0.0226
 6892TIP3    H142167   5.514   6.301   1.746  0.1801  0.3174  0.4498
 6892TIP3    H242168   5.573   6.431   1.696 -1.3585  1.2826  1.1083
 6893TIP3   OH242169   5.777   1.325   2.835 -0.0822 -0.4180  0.5441
 6893TIP3    H142170   5.829   1.249   2.861  0.6314 -0.0312  0.2652
 6893TIP3    H242171   5.761   1.313   2.742  2.1048  0.9618 -0.0638
 6894TIP3   OH242172   6.193   0.420  15.364 -0.2484 -0.1842 -0.2946
 6894TIP3    H142173   6.206   0.389  15.275  1.3210  1.9853 -0.8642
 6894TIP3    H242174   6.272   0.393  15.411 -0.5917 -0.3878  0.1686
 6895TIP3   OH242175   0.936   1.870  10.443 -0.2460 -0.2498 -0.0241
 6895TIP3    H142176   1.017   1.921  10.452 -0.9008  0.7100  0.5143
 6895TIP3    H242177   0.926   1.826  10.527  0.2919 -1.2328 -0.4729
 6896TIP3   OH242178   4.972   1.216   5.691  0.1139 -0.1406 -0.3070
 6896TIP3    H142179   4.904   1.187   5.751 -0.6873 -3.0368 -2.4561
 6896TIP3    H242180   5.029   1.273   5.743 -2.6080  0.4387  2.1365
 6897TIP3   OH242181   2.048   4.032   5.718 -0.2078  0.3694  0.2677
 6897TIP3    H142182   2.081   4.116   5.686 -0.0045  1.0389  2.1441
 6897TIP3    H242183   2.123   3.973   5.713 -0.0078  0.6393  0.0904
 6898TIP3   OH242184   3.941   3.863  15.618  0.5140 -0.1791  0.0271
 6898TIP3    H142185   3.896   3.786  15.583  0.2216 -1.7225  3.5603
 6898TIP3    H242186   4.034   3.841  15.616  0.4868 -0.3267  0.2965
 6899TIP3   OH242187   0.213   4.164  11.116 -0.0328  0.3767 -1.1080
 6899TIP3    H142188   0.132   4.117  11.134 -0.3832  0.9435 -1.1895
 6899TIP3    H242189   0.257   4.112  11.049  0.5342 -0.9065  0.2535
 6900TIP3   OH242190   4.949   2.251   4.205 -0.0194  0.5592 -0.2446
 6900TIP3    H142191   4.969   2.220   4.294  0.3883  0.6733 -0.2964
 6900TIP3    H242192   4.983   2.340   4.203 -2.5015  1.5673  0.3884
 6901TIP3   OH242193   3.122   0.334   5.589  0.2810 -0.8392  0.0621
 6901TIP3    H142194   3.177   0.403   5.625  0.6988 -0.6570 -0.9085
 6901TIP3    H242195   3.036   0.349   5.627 -0.3742  2.0225 -2.3904
 6902TIP3   OH242196   5.381   4.245   2.603  0.2207 -0.1254  0.0219
 6902TIP3    H142197   5.293   4.220   2.575 -0.1505  0.5190  0.6012
 6902TIP3    H242198   5.439   4.187   2.554 -0.6224 -2.4763  1.6909
 6903TIP3   OH242199   5.698   0.665   4.791  0.2253  0.3674 -0.6996
 6903TIP3    H142200   5.602   0.663   4.796  0.2652  0.4091  0.0923
 6903TIP3    H242201   5.722   0.579   4.756 -0.0268 -0.2020  0.4874
 6904TIP3   OH242202   1.118   1.477  16.991  0.1508 -0.2830  0.9133
 6904TIP3    H142203   1.107   1.392  16.949  2.0404 -0.8633  1.5484
 6904TIP3    H242204   1.168   1.529  16.928  1.5263 -0.6092  1.7085
 6905TIP3   OH242205   5.857   3.178   5.386 -0.2066 -0.0125 -0.4558
 6905TIP3    H142206   5.769   3.141   5.389 -0.1565 -0.0525  0.6865
 6905TIP3    H242207   5.867   3.224   5.469  1.3568 -1.1858  0.0379
 6906TIP3   OH242208   3.649   6.438  10.908 -0.3346  0.6147  0.0593
 6906TIP3    H142209   3.640   6.363  10.966 -0.6590  0.3380 -0.3484
 6906TIP3    H242210   3.645   6.401  10.820  1.2358  0.8940 -0.1475
 6907TIP3   OH242211   3.445   4.456  14.065  0.1398 -1.0951 -0.2733
 6907TIP3    H142212   3.435   4.442  13.971 -0.5736 -1.2314 -0.1788
 6907TIP3    H242213   3.401   4.381  14.105 -0.6626 -0.3836  0.1898
 6908TIP3   OH242214   2.622   3.077   1.236 -0.1225 -0.3195  0.2265
 6908TIP3    H142215   2.700   3.095   1.183  0.6058  2.1811  2.0287
 6908TIP3    H242216   2.552   3.127   1.193  0.5051  1.8476  1.6363
 6909TIP3   OH242217   2.029   5.840   4.693 -0.5490  0.2277  0.9219
 6909TIP3    H142218   2.031   5.746   4.674  1.2823  0.1963  1.1992
 6909TIP3    H242219   1.936   5.864   4.685 -0.7720 -1.1846 -1.1576
 6910TIP3   OH242220   1.707   4.995  16.175  0.2778  0.3852 -0.5306
 6910TIP3    H142221   1.779   4.950  16.130  2.4403  1.3555  1.8648
 6910TIP3    H242222   1.749   5.043  16.246 -2.8061  0.7279  1.1378
 6911TIP3   OH242223   4.146   2.404  15.726 -0.8105  0.1932 -0.0505
 6911TIP3    H142224   4.136   2.367  15.814 -0.4254  3.3301  1.3871
 6911TIP3    H242225   4.058   2.434  15.703 -0.2777  2.5410  0.8056
 6912TIP3   OH242226   3.579   3.395   6.055 -0.0375  0.5067  0.5080
 6912TIP3    H142227   3.613   3.465   6.111 -0.4455 -0.1103  1.5512
 6912TIP3    H242228   3.617   3.315   6.091 -0.8046  0.0390  0.2979
 6913TIP3   OH242229   3.680   2.225  12.351  0.1477 -0.0395 -0.3464
 6913TIP3    H142230   3.697   2.133  12.331 -1.4735 -0.1479 -1.2770
 6913TIP3    H242231   3.630   2.223  12.433  0.0996  0.0049 -0.3748
 6914TIP3   OH242232   3.569   5.019  12.704 -0.0845 -0.1365 -0.0770
 6914TIP3    H142233   3.509   5.060  12.767 -0.5133  1.4514 -1.4758
 6914TIP3    H242234   3.572   4.927  12.731  0.1820  0.6040  2.5886
 6915TIP3   OH242235   6.654   2.249  15.836 -0.3965  0.1133  0.0397
 6915TIP3    H142236   6.597   2.185  15.877 -1.4040  0.4883 -0.7480
 6915TIP3    H242237   6.730   2.198  15.806 -0.0831 -0.3084  1.4999
 6916TIP3   OH242238   4.280   6.070  16.108  0.7525  0.8503 -0.1665
 6916TIP3    H142239   4.292   6.126  16.184 -0.2711  1.8702 -0.7501
 6916TIP3    H242240   4.346   6.100  16.045  1.3908  0.2140  0.1959
 6917TIP3   OH242241   1.028   1.218   4.716 -0.4014 -0.2009 -0.2751
 6917TIP3    H142242   0.986   1.132   4.709 -1.0722 -0.0385  1.5079
 6917TIP3    H242243   0.960   1.275   4.751 -0.1233  1.2038 -1.9582
 6918TIP3   OH242244   2.963   5.270  16.258  0.3985  0.2597 -0.9479
 6918TIP3    H142245   2.963   5.353  16.212 -0.8623  0.7935  0.0080
 6918TIP3    H242246   2.983   5.292  16.349 -0.9010 -0.3593 -0.4940
 6919TIP3   OH242247   6.817   0.422  14.611  0.0078 -0.2213 -0.2167
 6919TIP3    H142248   6.741   0.446  14.559  0.1685  2.7455  0.8133
 6919TIP3    H242249   6.855   0.505  14.639  3.0202 -1.6402  0.1961
 6920TIP3   OH242250   6.276   3.077  16.312  0.0139 -0.2858  0.1257
 6920TIP3    H142251   6.259   3.147  16.376  1.2300 -0.4519  0.6392
 6920TIP3    H242252   6.218   3.006  16.338 -0.2380  0.0286  0.4292
 6921TIP3   OH242253   0.487   1.758  14.135  0.2198  0.3107 -0.1696
 6921TIP3    H142254   0.516   1.666  14.138  0.0964  0.2619 -0.4659
 6921TIP3    H242255   0.392   1.754  14.146  0.1304  0.3510 -0.9104
 6922TIP3   OH242256   4.933   6.812  13.465 -0.6556  0.3947 -0.2385
 6922TIP3    H142257   4.965   6.824  13.554 -0.0383  1.9321 -0.6468
 6922TIP3    H242258   4.929   6.717  13.453  0.3598  0.1849  1.0191
 6923TIP3   OH242259   5.747   2.606   2.713 -0.1502  0.7640  0.2282
 6923TIP3    H142260   5.693   2.684   2.702  0.1634  0.9314 -0.1733
 6923TIP3    H242261   5.693   2.535   2.679  0.1471  1.0333 -0.8515
 6924TIP3   OH242262   6.725   6.698  13.355 -0.3608  0.2455  0.7063
 6924TIP3    H142263   6.688   6.666  13.273 -1.3770  0.1112  1.2021
 6924TIP3    H242264   6.777   6.625  13.388 -2.2061 -0.7206  1.5472
 6925TIP3   OH242265   2.287   0.206   0.446  0.1400  0.1415  0.0474
 6925TIP3    H142266   2.209   0.239   0.490  0.3796  0.6649  0.0755
 6925TIP3    H242267   2.360   0.247   0.493  0.3976  0.6631 -0.8116
 6926TIP3   OH242268   5.182   2.740   3.045  0.4468  0.1195  0.3385
 6926TIP3    H142269   5.191   2.816   3.102  1.7506  0.5554 -0.4173
 6926TIP3    H242270   5.150   2.777   2.962  0.2209 -0.2769  0.2485
 6927TIP3   OH242271   1.157   1.565   0.818 -0.0473 -0.6585  0.0684
 6927TIP3    H142272   1.115   1.650   0.809  0.1212 -0.6670 -0.8257
 6927TIP3    H242273   1.114   1.525   0.893 -0.7438 -0.1400 -0.0494
 6928TIP3   OH242274   2.340   5.415   2.085 -0.1217 -0.2356 -0.8029
 6928TIP3    H142275   2.405   5.392   2.152  0.2153 -0.1453 -1.0986
 6928TIP3    H242276   2.270   5.458   2.134 -0.0264 -0.4701 -0.4613
 6929TIP3   OH242277   2.800   3.237  13.611 -0.4454  0.0293 -0.3566
 6929TIP3    H142278   2.895   3.233  13.618 -0.4527 -0.0650 -0.2971
 6929TIP3    H242279   2.781   3.321  13.571 -0.3672  0.3803  0.3273
 6930TIP3   OH242280   1.693   5.056   3.020 -0.4992  0.3138  0.1927
 6930TIP3    H142281   1.706   5.118   3.092  3.6174 -0.3432  0.1309
 6930TIP3    H242282   1.644   5.105   2.954  0.7106  2.7802  1.0725
 6931TIP3   OH242283   2.633   4.469   5.292 -0.0140  0.4306 -0.6446
 6931TIP3    H142284   2.675   4.454   5.376  1.3179  0.3895 -1.3092
 6931TIP3    H242285   2.649   4.389   5.242 -0.1317  0.7587 -1.2142
 6932TIP3   OH242286   4.975   1.481   1.723 -0.5558  0.5399 -0.1207
 6932TIP3    H142287   4.896   1.488   1.670 -0.8668 -0.1529  0.2422
 6932TIP3    H242288   5.005   1.391   1.710  1.3165  1.3516 -1.8458
 6933TIP3   OH242289   5.975   4.925  12.712  0.3786  0.4428  0.5093
 6933TIP3    H142290   6.006   4.835  12.715  1.7282  0.8772  0.1280
 6933TIP3    H242291   6.012   4.966  12.790 -0.4397  0.5981  0.8170
 6934TIP3   OH242292   1.765   6.373  15.316 -0.2657 -0.1708  0.1169
 6934TIP3    H142293   1.714   6.420  15.250  0.4706  0.1143 -0.2670
 6934TIP3    H242294   1.806   6.301  15.268 -0.9006 -0.8354  0.5770
 6935TIP3   OH242295   4.791   5.581  17.001 -0.0190 -0.0465 -0.1796
 6935TIP3    H142296   4.832   5.613  17.082  0.5809 -0.7985 -0.1788
 6935TIP3    H242297   4.697   5.594  17.015  0.1308  0.5544  0.3183
 6936TIP3   OH242298   6.565   1.393   1.648  0.1707  0.5662  0.4219
 6936TIP3    H142299   6.642   1.338   1.633 -1.0204 -1.1640  0.5144
 6936TIP3    H242300   6.596   1.461   1.708  1.9481  0.6719 -0.5840
 6937TIP3   OH242301   0.196   4.148  11.413  0.1687  0.2372  0.1758
 6937TIP3    H142302   0.214   4.096  11.335 -0.7558 -0.4879  0.4413
 6937TIP3    H242303   0.209   4.239  11.384  0.0277 -0.0358 -0.7624
 6938TIP3   OH242304   3.683   3.378   3.287 -0.2371  0.6090 -0.5934
 6938TIP3    H142305   3.730   3.318   3.229 -1.4513 -1.1453  0.1829
 6938TIP3    H242306   3.672   3.458   3.235  0.1600 -0.3453 -2.1898
 6939TIP3   OH242307   0.407   2.440   3.435 -0.5953  0.3699 -0.6283
 6939TIP3    H142308   0.469   2.480   3.496 -1.3724  0.3713  0.1767
 6939TIP3    H242309   0.446   2.452   3.349 -1.6549  4.5319 -0.6241
 6940TIP3   OH242310   5.269   0.742  15.165  0.0421  0.1746 -0.1807
 6940TIP3    H142311   5.208   0.806  15.129 -1.1107 -0.4540  0.6269
 6940TIP3    H242312   5.222   0.659  15.161  1.6637 -0.7251 -1.5967
 6941TIP3   OH242313   2.425   0.272  11.317  0.2801 -0.2450  0.0101
 6941TIP3    H142314   2.472   0.235  11.243  3.0669 -0.4363  1.7970
 6941TIP3    H242315   2.408   0.363  11.292  0.7695 -0.4382 -1.0450
 6942TIP3   OH242316   0.689   5.187  15.380 -0.3871  0.5412 -0.5862
 6942TIP3    H142317   0.633   5.110  15.390 -0.1024  0.4414  0.2831
 6942TIP3    H242318   0.641   5.244  15.320 -0.0293 -0.8551 -2.2237
 6943TIP3   OH242319   4.612   1.468  14.084  0.5918 -0.0264 -0.1103
 6943TIP3    H142320   4.521   1.463  14.053  0.2143 -0.8433  1.0907
 6943TIP3    H242321   4.624   1.561  14.106 -0.2425 -0.0551  0.5362
 6944TIP3   OH242322   6.383   1.499   4.218  0.2416 -0.3915 -1.2155
 6944TIP3    H142323   6.397   1.409   4.190  0.5028  0.1566 -2.9204
 6944TIP3    H242324   6.470   1.530   4.243  0.3576 -0.2594 -1.7642
 6945TIP3   OH242325   0.002   1.678   5.503 -0.1758  0.3743  0.4037
 6945TIP3    H142326   0.085   1.655   5.462 -0.4823 -0.3720  0.1996
 6945TIP3    H242327   0.025   1.747   5.566  0.4499  0.8135 -0.2970
 6946TIP3   OH242328   0.052   3.622  11.533 -0.3617  0.1747 -0.1937
 6946TIP3    H142329   0.108   3.699  11.534  1.2376 -0.9163 -1.4261
 6946TIP3    H242330  -0.019   3.644  11.473 -0.0790  0.8109 -0.2943
 6947TIP3   OH242331   5.895   1.109  13.125  0.4014  0.7332  0.3644
 6947TIP3    H142332   5.960   1.153  13.181  2.6189  0.4730 -1.9012
 6947TIP3    H242333   5.875   1.174  13.057  0.2650 -0.1030 -0.4070
 6948TIP3   OH242334   4.454   5.749  15.280  0.9416  0.1694  1.0186
 6948TIP3    H142335   4.390   5.812  15.312 -0.6537 -2.5754  3.4017
 6948TIP3    H242336   4.405   5.691  15.222  1.7419 -0.7139  1.2106
 6949TIP3   OH242337   5.104   3.672  15.076 -0.7628  0.0269  0.8951
 6949TIP3    H142338   5.108   3.758  15.034 -0.4812 -0.9648 -1.1744
 6949TIP3    H242339   5.010   3.650  15.078 -0.7706  0.0480  0.7157
 6950TIP3   OH242340   0.826   6.526   4.256  0.3547  0.0936  0.2103
 6950TIP3    H142341   0.870   6.603   4.294 -0.7020  0.8445 -0.0487
 6950TIP3    H242342   0.884   6.453   4.276  1.2738  0.9304  0.6597
 6951TIP3   OH242343   3.396   5.261   2.352 -0.4199  0.5369  0.5183
 6951TIP3    H142344   3.478   5.289   2.393 -0.8652  1.4607  0.8022
 6951TIP3    H242345   3.327   5.300   2.407 -1.0649 -1.2493  1.0015
 6952TIP3   OH242346   0.211   4.029   1.570  0.0915  0.1483 -0.6476
 6952TIP3    H142347   0.141   4.094   1.581 -0.5874 -0.7602  0.4827
 6952TIP3    H242348   0.282   4.077   1.528 -0.0447  1.8825  1.0455
 6953TIP3   OH242349   3.910   2.206  16.898  0.4370 -0.4057 -0.2924
 6953TIP3    H142350   3.894   2.283  16.954  2.2327  0.7629 -1.3254
 6953TIP3    H242351   3.973   2.153  16.948  1.1098  0.0396 -0.6581
 6954TIP3   OH242352   4.792   2.722   2.664  0.4443  0.1126  0.2605
 6954TIP3    H142353   4.788   2.627   2.667 -0.5211  0.0966 -0.8900
 6954TIP3    H242354   4.765   2.744   2.574 -2.2173  1.5728  1.3496
 6955TIP3   OH242355   3.206   1.974   0.447  0.3170 -0.4888  0.0763
 6955TIP3    H142356   3.239   2.052   0.403 -1.6600 -0.4165 -1.3824
 6955TIP3    H242357   3.182   1.915   0.376 -0.3180 -1.5144  1.1233
 6956TIP3   OH242358   5.671   0.425   3.697  0.9038 -0.2021  0.2512
 6956TIP3    H142359   5.669   0.366   3.772 -2.1757  0.1045  0.4584
 6956TIP3    H242360   5.690   0.367   3.622  1.0891 -0.9389  0.8584
 6957TIP3   OH242361   5.236   4.600  12.334 -0.2451 -0.5096  0.2697
 6957TIP3    H142362   5.316   4.650  12.316 -0.5962  0.4022  1.2194
 6957TIP3    H242363   5.267   4.522  12.380 -0.0887  0.9004  2.6233
 6958TIP3   OH242364   5.645   4.144   2.143  0.4398  0.6541 -0.4520
 6958TIP3    H142365   5.614   4.055   2.157  1.9558  0.1262 -0.3854
 6958TIP3    H242366   5.705   4.138   2.069  1.9847  1.2865  0.7155
 6959TIP3   OH242367   3.185   0.412  13.055 -0.1091  0.1030 -0.4402
 6959TIP3    H142368   3.116   0.447  13.112 -0.6565 -0.0063 -1.0185
 6959TIP3    H242369   3.212   0.487  13.002 -1.1733 -0.3051 -1.5738
 6960TIP3   OH242370   4.113   1.800   0.509 -0.2632  0.4366  0.0409
 6960TIP3    H142371   4.206   1.821   0.499  0.1946  0.4317  3.8538
 6960TIP3    H242372   4.068   1.882   0.487  0.3724 -0.3664 -4.7732
 6961TIP3   OH242373   6.145   5.253  12.338  0.3836 -0.3029  0.0338
 6961TIP3    H142374   6.070   5.225  12.285  0.6988 -0.7896 -0.1558
 6961TIP3    H242375   6.199   5.174  12.347  0.3872 -0.1973  0.9883
 6962TIP3   OH242376   0.624   3.236  10.534  0.2307  0.4930 -0.3877
 6962TIP3    H142377   0.566   3.312  10.536 -0.5048 -0.0744  0.5344
 6962TIP3    H242378   0.629   3.208  10.626  1.6398  0.2896 -0.5164
 6963TIP3   OH242379   1.671   5.513   3.395  0.1914  0.1233  0.3527
 6963TIP3    H142380   1.742   5.577   3.395  0.0574  0.2875 -0.6078
 6963TIP3    H242381   1.607   5.548   3.333 -0.9026  0.1630  1.4892
 6964TIP3   OH242382   5.336   1.633  12.313 -0.4615  0.3777 -0.4066
 6964TIP3    H142383   5.263   1.581  12.348 -0.7014  0.7899 -0.2911
 6964TIP3    H242384   5.304   1.723  12.315  0.2685  0.6253  0.1850
 6965TIP3   OH242385   0.859   1.641   4.799  0.0115 -0.5294 -0.4247
 6965TIP3    H142386   0.789   1.641   4.734 -1.0131 -0.4820  0.6593
 6965TIP3    H242387   0.868   1.549   4.825 -2.2432 -0.1103  2.1344
 6966TIP3   OH242388   6.519   2.579   4.657  0.3756  0.5984  0.0271
 6966TIP3    H142389   6.492   2.510   4.596 -0.7204 -0.8942  2.1276
 6966TIP3    H242390   6.444   2.638   4.661 -0.1650 -0.1292  1.0400
 6967TIP3   OH242391   4.159   0.439  15.802 -0.6290  0.6229  0.4339
 6967TIP3    H142392   4.144   0.518  15.749 -1.0446  1.4305  1.7262
 6967TIP3    H242393   4.081   0.432  15.857 -0.3208 -0.3438  0.7591
 6968TIP3   OH242394   0.217   0.477  13.963 -0.7945 -0.1321  0.4978
 6968TIP3    H142395   0.247   0.429  14.041 -0.2227  0.6607  0.7782
 6968TIP3    H242396   0.130   0.443  13.946 -1.3649  0.4397  2.1339
 6969TIP3   OH242397   3.981   4.569  11.245  0.5085  0.0643 -0.0265
 6969TIP3    H142398   3.936   4.527  11.319 -2.4840 -0.3045 -1.9831
 6969TIP3    H242399   4.054   4.510  11.226 -0.0693 -1.0745  1.1365
 6970TIP3   OH242400   0.931   2.974  15.724  0.5283  0.3012  0.6483
 6970TIP3    H142401   0.943   2.945  15.633  1.3761 -0.5751  1.0270
 6970TIP3    H242402   0.858   2.921  15.756  1.9028 -1.2926  1.2578
 6971TIP3   OH242403   1.491   5.867   4.570  0.3307  0.1429 -0.4267
 6971TIP3    H142404   1.535   5.786   4.597  0.9652  1.4408  2.6287
 6971TIP3    H242405   1.406   5.838   4.538  0.5722 -1.7787  0.5510
 6972TIP3   OH242406   2.882   2.414   1.560  0.2076 -0.2227  0.5860
 6972TIP3    H142407   2.872   2.503   1.527 -0.6637 -0.2290  0.8316
 6972TIP3    H242408   2.894   2.360   1.482  1.2666  0.1721  0.4648
 6973TIP3   OH242409   5.919   3.729   1.255 -0.2929  0.3461 -0.3421
 6973TIP3    H142410   5.885   3.683   1.178 -2.1269 -1.2595  1.3596
 6973TIP3    H242411   5.853   3.795   1.274 -0.1491  0.3211  0.2369
 6974TIP3   OH242412   6.719   1.549  16.612 -0.2470 -0.2498 -0.2795
 6974TIP3    H142413   6.652   1.547  16.681  1.2569 -0.8083  1.1930
 6974TIP3    H242414   6.705   1.633  16.568 -1.5683 -0.1168  0.3425
 6975TIP3   OH242415   6.069   1.875  16.074 -0.5250  0.3847  0.2516
 6975TIP3    H142416   6.079   1.950  16.134 -1.1916  2.0472 -1.6426
 6975TIP3    H242417   5.978   1.879  16.046 -0.4484 -0.8982 -0.2062
 6976TIP3   OH242418   0.298   6.665  15.951 -1.2189 -0.1308 -0.0854
 6976TIP3    H142419   0.313   6.603  15.880 -1.7651  0.5970 -0.8440
 6976TIP3    H242420   0.205   6.687  15.944 -0.3596  3.2497 -1.8496
 6977TIP3   OH242421   1.126   6.032  11.829 -0.3551 -0.2475 -0.4552
 6977TIP3    H142422   1.038   6.042  11.793 -0.6458  1.6489  0.6924
 6977TIP3    H242423   1.168   6.117  11.813  0.9329 -0.8251 -0.1620
 6978TIP3   OH242424   6.796   0.559  17.247  0.0017 -0.4081  0.0826
 6978TIP3    H142425   6.886   0.578  17.275  0.2767  0.4591 -1.3311
 6978TIP3    H242426   6.751   0.643  17.253 -0.5250 -0.6933  0.1008
 6979TIP3   OH242427   5.448   5.295   2.956  0.5514  0.4483  0.5357
 6979TIP3    H142428   5.368   5.266   3.000  1.0550 -0.1297  1.0896
 6979TIP3    H242429   5.423   5.305   2.865 -0.4293  1.3332  0.8924
 6980TIP3   OH242430   2.632   5.129   1.417 -0.1712 -0.3363 -0.0053
 6980TIP3    H142431   2.578   5.118   1.496  0.7407 -2.1300  0.4048
 6980TIP3    H242432   2.647   5.040   1.386  1.0081  0.2448 -1.1696
 6981TIP3   OH242433   1.190   3.412   3.289  0.0867  0.4013  0.5836
 6981TIP3    H142434   1.189   3.507   3.273  0.7472  0.1160 -1.2765
 6981TIP3    H242435   1.142   3.401   3.371 -0.4943  2.2932  0.5195
 6982TIP3   OH242436   1.069   3.935  15.746  0.3713  0.1259 -0.4248
 6982TIP3    H142437   1.007   3.867  15.720 -0.6991  0.0994  2.0860
 6982TIP3    H242438   1.090   3.980  15.665 -3.1664  0.3253 -1.3226
 6983TIP3   OH242439   3.129   3.750   6.431  0.1374 -0.1573  0.1856
 6983TIP3    H142440   3.191   3.699   6.484 -0.3273  0.0269  0.9103
 6983TIP3    H242441   3.054   3.691   6.420 -1.4813  1.2166  3.1536
 6984TIP3   OH242442   4.953   2.170   2.421  0.0260  0.5059  0.3236
 6984TIP3    H142443   4.990   2.219   2.495  1.9891  0.7949 -0.7988
 6984TIP3    H242444   4.942   2.235   2.352  1.2239 -0.3292 -0.6763
 6985TIP3   OH242445   6.598   2.258  13.009  0.0088  0.0285 -0.0475
 6985TIP3    H142446   6.665   2.293  12.950 -2.0778  0.0897 -2.4641
 6985TIP3    H242447   6.587   2.326  13.075 -0.4761  1.8291 -1.9061
 6986TIP3   OH242448   5.018   6.630   6.542  0.0427 -0.5032 -0.4723
 6986TIP3    H142449   4.952   6.684   6.497  1.9110  1.9602 -0.3914
 6986TIP3    H242450   5.031   6.673   6.626  3.9674  0.9971 -1.6986
 6987TIP3   OH242451   5.995   1.395   3.900  0.0512  0.0214  0.0086
 6987TIP3    H142452   5.925   1.345   3.858 -0.5819  0.7058  0.2397
 6987TIP3    H242453   6.074   1.344   3.883 -0.6917 -1.4803  0.8929
 6988TIP3   OH242454   3.918   3.957  11.404 -0.3379  0.0540  0.8668
 6988TIP3    H142455   3.903   3.958  11.310  1.2676  0.5923  0.6016
 6988TIP3    H242456   4.012   3.975  11.414  0.1880 -3.1011  2.4382
 6989TIP3   OH242457   0.433   4.628  15.985 -0.5487  0.2518  0.7371
 6989TIP3    H142458   0.524   4.648  15.967 -0.3027  0.3754  2.0576
 6989TIP3    H242459   0.386   4.710  15.968 -0.4416  0.1443 -0.0903
 6990TIP3   OH242460   4.757   3.469   1.212  0.8428 -0.2657  0.5003
 6990TIP3    H142461   4.828   3.526   1.242  1.3952 -0.4319 -0.4783
 6990TIP3    H242462   4.737   3.501   1.124 -0.1302 -0.3853  0.6716
 6991TIP3   OH242463   6.071   2.435  14.788 -0.6978 -0.6721  0.0185
 6991TIP3    H142464   6.096   2.383  14.711  1.0129 -2.0060  1.4464
 6991TIP3    H242465   5.995   2.389  14.823 -1.0700 -0.4456 -0.4841
 6992TIP3   OH242466   3.619   6.749  13.026 -0.6100  0.0665 -0.3326
 6992TIP3    H142467   3.621   6.681  12.958  0.2058 -0.1616 -0.0896
 6992TIP3    H242468   3.532   6.742  13.065 -1.2541  0.4788 -1.6307
 6993TIP3   OH242469   2.426   4.099  16.080  0.0197  0.1912  0.3260
 6993TIP3    H142470   2.424   4.188  16.117 -0.3815  0.9999 -1.5761
 6993TIP3    H242471   2.468   4.110  15.995 -1.0497 -1.2797 -0.3958
 6994TIP3   OH242472   4.400   2.433   2.820  0.3636 -0.2871 -0.2545
 6994TIP3    H142473   4.433   2.516   2.856  0.9702 -0.9103  0.6788
 6994TIP3    H242474   4.426   2.434   2.728 -0.7630  1.1237 -0.5670
 6995TIP3   OH242475   4.820   2.468   1.173 -0.4425 -0.9509 -0.0341
 6995TIP3    H142476   4.794   2.537   1.234  0.4429 -0.0540 -0.6594
 6995TIP3    H242477   4.913   2.454   1.191  0.2614  0.5102 -2.2840
 6996TIP3   OH242478   3.549   4.339   4.205  0.2256 -0.1922 -0.0576
 6996TIP3    H142479   3.640   4.369   4.214 -0.0738  0.3287  1.3550
 6996TIP3    H242480   3.525   4.309   4.293 -0.6997 -1.1259 -0.6216
 6997TIP3   OH242481   1.563   2.224  14.228 -0.1156 -0.1441 -0.2350
 6997TIP3    H142482   1.542   2.293  14.165  1.7529 -0.1994 -0.9596
 6997TIP3    H242483   1.624   2.167  14.181  2.0714  0.3496  1.9398
 6998TIP3   OH242484   3.047   3.314   3.694  0.3829  0.7100  0.1936
 6998TIP3    H142485   3.114   3.249   3.670  0.1126  0.6679 -0.4499
 6998TIP3    H242486   3.013   3.346   3.611 -0.3466  0.7942  0.5193
 6999TIP3   OH242487   6.732   0.991   4.554  0.6484 -0.1728  0.0528
 6999TIP3    H142488   6.791   1.008   4.480 -1.5632 -0.3078 -1.7774
 6999TIP3    H242489   6.775   1.034   4.628  2.0043  1.5770 -1.6698
 7000TIP3   OH242490   2.028   5.242  15.039  0.1483  0.1877 -0.0104
 7000TIP3    H142491   2.054   5.195  15.118 -1.4583  1.0973  1.0927
 7000TIP3    H242492   2.028   5.176  14.970  1.1236 -0.7111  0.8373
 7001TIP3   OH242493   4.163   1.357  14.920 -0.0690 -0.0926  0.2069
 7001TIP3    H142494   4.203   1.432  14.876 -1.0425 -0.9345 -2.1967
 7001TIP3    H242495   4.214   1.282  14.890 -1.2426 -0.7655 -0.1225
 7002TIP3   OH242496   6.196   2.432   1.516  0.7604 -0.3968  0.2002
 7002TIP3    H142497   6.216   2.511   1.466  0.3076 -0.2368  0.2641
 7002TIP3    H242498   6.233   2.448   1.602  1.7102 -0.7533 -0.1380
 7003TIP3   OH242499   2.369   5.177   4.447 -0.2347 -0.0522  0.2313
 7003TIP3    H142500   2.280   5.161   4.416 -0.7550  0.2699  1.5261
 7003TIP3    H242501   2.396   5.257   4.403 -0.0809 -0.8717 -1.1906
 7004TIP3   OH242502   6.301   3.836   3.162  0.6252 -0.6696  0.0838
 7004TIP3    H142503   6.334   3.906   3.219  1.1893 -1.1187  0.3146
 7004TIP3    H242504   6.338   3.756   3.199  0.8165 -0.9878 -0.7839
 7005TIP3   OH242505   3.543   6.275   3.753  0.4993 -0.7325 -0.0645
 7005TIP3    H142506   3.465   6.285   3.698  1.0730  0.5876 -0.6587
 7005TIP3    H242507   3.606   6.231   3.697  0.9637  0.2991 -0.3795
 7006TIP3   OH242508   3.542   3.226  13.376 -0.2017  0.1480  0.3623
 7006TIP3    H142509   3.499   3.217  13.460  0.4759  0.7585  0.7770
 7006TIP3    H242510   3.499   3.301  13.334 -1.8403 -1.3323 -0.6385
 7007TIP3   OH242511   1.614   0.023  17.274  0.1914  0.3549  0.3130
 7007TIP3    H142512   1.527   0.012  17.310  0.1281 -1.4738 -0.3259
 7007TIP3    H242513   1.632  -0.060  17.229  1.9903  0.9434 -0.1070
 7008TIP3   OH242514   1.976   4.178  14.091 -0.0164  0.2482  0.2828
 7008TIP3    H142515   1.980   4.089  14.056 -0.1918  0.1268  0.5691
 7008TIP3    H242516   1.882   4.197  14.096  0.0528  1.2803 -1.8646
 7009TIP3   OH242517   1.820   2.108  15.477 -0.0404  0.5937  0.1389
 7009TIP3    H142518   1.761   2.036  15.500  0.0185  0.1039 -1.1820
 7009TIP3    H242519   1.833   2.156  15.559  0.6184 -1.3952  1.2448
 7010TIP3   OH242520   1.956   2.282  12.280  0.0080  0.5588 -0.1013
 7010TIP3    H142521   2.030   2.238  12.238  1.7308  2.2408  1.1157
 7010TIP3    H242522   1.883   2.266  12.220  1.0757 -1.9732 -0.8387
 7011TIP3   OH242523   6.432   4.417   4.613 -0.7198  0.2088 -0.2173
 7011TIP3    H142524   6.494   4.391   4.681  1.0330 -0.3167 -1.9868
 7011TIP3    H242525   6.420   4.511   4.626 -1.1755 -0.0469  1.4062
 7012TIP3   OH242526   3.910   1.933   4.333  0.5569 -0.0249 -0.3764
 7012TIP3    H142527   3.869   1.856   4.373  0.5969  0.1905  0.0705
 7012TIP3    H242528   3.969   1.967   4.400  0.3424  0.5520 -0.4802
 7013TIP3   OH242529   1.411   3.732  11.764  0.2479  0.1930 -0.1929
 7013TIP3    H142530   1.505   3.726  11.743  0.6028  0.5439  1.2833
 7013TIP3    H242531   1.379   3.802  11.707  1.2829  1.3808  0.6745
 7014TIP3   OH242532   0.527   0.328  16.873  0.0647  0.2627 -0.1795
 7014TIP3    H142533   0.581   0.333  16.952  0.5364 -2.2463 -0.2699
 7014TIP3    H242534   0.440   0.301  16.905  0.2811 -0.8462 -0.4909
 7015TIP3   OH242535   4.348   4.657   2.907  0.0189  0.8391 -0.1612
 7015TIP3    H142536   4.311   4.619   2.987 -0.4079 -0.3422 -0.8950
 7015TIP3    H242537   4.424   4.602   2.887 -1.0145 -0.1178 -1.6203
 7016TIP3   OH242538   5.917   3.314   1.494 -0.6282  0.4428  0.4319
 7016TIP3    H142539   5.978   3.384   1.469 -0.1099  0.3433  1.4098
 7016TIP3    H242540   5.924   3.250   1.423 -0.1371  0.7703  0.1800
 7017TIP3   OH242541   6.130   0.039   2.853 -0.4276  0.4692  0.8938
 7017TIP3    H142542   6.097  -0.050   2.843  0.5889  0.1337  0.4635
 7017TIP3    H242543   6.212   0.030   2.901  0.3556  1.0381 -0.3084
 7018TIP3   OH242544   2.757   1.895   4.417  0.1472  0.2709  0.2794
 7018TIP3    H142545   2.708   1.903   4.336 -1.0013 -0.5200  0.8786
 7018TIP3    H242546   2.826   1.831   4.397  0.4694  0.8155 -0.3514
 7019TIP3   OH242547   1.768   5.078  10.486 -0.5130  0.3498  0.0045
 7019TIP3    H142548   1.729   5.007  10.537 -1.0390 -0.6873 -1.8001
 7019TIP3    H242549   1.694   5.124  10.447 -0.0777  0.1902 -1.0407
 7020TIP3   OH242550   2.586   6.240   3.442  0.3707 -0.0771 -0.0546
 7020TIP3    H142551   2.677   6.232   3.415 -0.4489 -1.1534 -2.6575
 7020TIP3    H242552   2.559   6.152   3.466 -1.0250 -0.5046 -2.9676
 7021TIP3   OH242553   2.897   4.000   3.117 -0.2695  0.5648 -1.0666
 7021TIP3    H142554   2.944   4.064   3.064 -0.7606  0.6142 -1.4447
 7021TIP3    H242555   2.894   3.922   3.062  0.3502  0.2016 -0.5977
 7022TIP3   OH242556   1.320   4.317   0.906 -0.2017 -0.1829 -0.1075
 7022TIP3    H142557   1.338   4.386   0.970 -0.8996 -1.2838  1.3016
 7022TIP3    H242558   1.250   4.353   0.851 -0.6748  0.1664  0.7171
 7023TIP3   OH242559   5.656   0.348   1.686 -0.1015  0.6840  0.0214
 7023TIP3    H142560   5.750   0.328   1.694  0.0620  2.8398  4.8136
 7023TIP3    H242561   5.621   0.275   1.635  3.9207 -0.9974 -0.5278
 7024TIP3   OH242562   0.145   3.790  12.004 -0.3891 -0.4750  0.2318
 7024TIP3    H142563   0.095   3.782  11.923  2.0371 -1.4173 -1.2157
 7024TIP3    H242564   0.108   3.722  12.061 -0.5348 -1.3886 -0.9423
 7025TIP3   OH242565   2.622   1.198  13.877 -0.0533  0.5497 -0.3598
 7025TIP3    H142566   2.659   1.287  13.881  1.2519  0.0840 -1.4388
 7025TIP3    H242567   2.618   1.170  13.968 -0.3050  1.6499 -0.0222
 7026TIP3   OH242568   3.533   3.561  11.071 -0.3719 -0.1139 -0.0387
 7026TIP3    H142569   3.589   3.617  11.125  0.3132  0.2281 -1.1017
 7026TIP3    H242570   3.511   3.614  10.995 -2.5148 -0.0933  0.5685
 7027TIP3   OH242571   0.605   1.206  10.689  0.0368 -0.3291 -0.2722
 7027TIP3    H142572   0.559   1.147  10.630  2.7538 -1.2541 -1.5689
 7027TIP3    H242573   0.607   1.290  10.644 -2.0389  0.2613  0.6688
 7028TIP3   OH242574   1.211   1.049   6.415  0.2886  0.5188  0.3711
 7028TIP3    H142575   1.120   1.030   6.435  0.2885  0.4762  0.3305
 7028TIP3    H242576   1.247   1.085   6.496 -0.0072  1.4067  0.1087
 7029TIP3   OH242577   2.251   5.218   3.130 -0.6009 -0.5916 -0.6199
 7029TIP3    H142578   2.298   5.159   3.189  1.1209  1.9084  0.6036
 7029TIP3    H242579   2.182   5.164   3.092 -0.2088 -2.9068  1.8010
 7030TIP3   OH242580   3.378   2.970  15.666  0.1718  0.5493  0.0963
 7030TIP3    H142581   3.350   3.032  15.599 -0.1292  0.5168  0.1870
 7030TIP3    H242582   3.299   2.956  15.719  0.7729  1.6912  1.3381
 7031TIP3   OH242583   3.839   3.623  15.565 -0.6284 -0.3933 -0.3797
 7031TIP3    H142584   3.823   3.560  15.635  0.6592 -0.6223 -0.2791
 7031TIP3    H242585   3.862   3.570  15.489 -0.1957 -0.0853 -0.4708
 7032TIP3   OH242586   2.327   1.319  16.271  0.2256 -0.3296 -0.0380
 7032TIP3    H142587   2.372   1.404  16.276 -0.4089  0.1011 -1.4479
 7032TIP3    H242588   2.395   1.255  16.290  0.8590  0.4626  0.4107
 7033TIP3   OH242589   2.168   2.651   0.064 -0.0395 -0.0058 -0.4542
 7033TIP3    H142590   2.163   2.563   0.100  1.3768  1.3497  3.2173
 7033TIP3    H242591   2.077   2.672   0.040 -1.1524 -0.8392  2.7482
 7034TIP3   OH242592   0.265   4.141  13.707  0.5600 -0.0531  0.4182
 7034TIP3    H142593   0.264   4.228  13.668  1.5930  0.2475  1.0479
 7034TIP3    H242594   0.213   4.150  13.787  2.0631  0.4254  1.3698
 7035TIP3   OH242595   6.706   5.050   3.653  0.2672 -0.0208 -0.2718
 7035TIP3    H142596   6.621   5.056   3.696  0.3285  0.6373 -0.2413
 7035TIP3    H242597   6.727   4.957   3.654 -0.2959 -0.1444  0.0261
 7036TIP3   OH242598   3.120   2.319   3.196 -0.2187  0.1682  0.6168
 7036TIP3    H142599   3.077   2.386   3.142  0.6491 -1.0551 -1.7043
 7036TIP3    H242600   3.192   2.365   3.239  0.3804  0.7558 -0.9587
 7037TIP3   OH242601   1.061   1.538   2.677 -0.6888 -0.8763 -0.0274
 7037TIP3    H142602   1.101   1.527   2.764 -2.0262  0.8088  0.8263
 7037TIP3    H242603   1.132   1.519   2.616  0.6150 -0.8597  1.4475
 7038TIP3   OH242604   2.354   5.742  12.079  0.2652 -0.2928 -0.0428
 7038TIP3    H142605   2.364   5.831  12.045  0.8726 -1.5050 -3.2438
 7038TIP3    H242606   2.440   5.702  12.068  0.6856 -0.5860  3.6965
 7039TIP3   OH242607   4.332   5.663  14.052  0.5961 -0.0884 -0.1513
 7039TIP3    H142608   4.390   5.653  14.127  0.0906 -0.1341  0.2363
 7039TIP3    H242609   4.297   5.752  14.060  0.0307 -0.3246  0.0392
 7040TIP3   OH242610   4.535   6.770   2.521  0.0940  0.2214  0.3832
 7040TIP3    H142611   4.500   6.828   2.589 -1.0799 -0.9648  0.8194
 7040TIP3    H242612   4.625   6.751   2.548 -0.2095  0.1592  1.3512
 7041TIP3   OH242613   4.198   1.654   1.341 -0.2614  0.4330 -0.0785
 7041TIP3    H142614   4.235   1.585   1.286  0.8728  0.1201  1.0530
 7041TIP3    H242615   4.252   1.730   1.324 -0.8596  0.7548 -0.5398
 7042TIP3   OH242616   2.812   3.067   0.276  0.6166  0.1259  0.1112
 7042TIP3    H142617   2.800   3.124   0.352  0.8415 -0.5927  0.6870
 7042TIP3    H242618   2.807   3.126   0.201 -0.1801  0.7569  0.6544
 7043TIP3   OH242619   6.522   6.573   3.027 -0.4872  0.3719  0.5375
 7043TIP3    H142620   6.514   6.614   3.114  1.0245  1.2974  0.2659
 7043TIP3    H242621   6.616   6.562   3.015 -0.7414 -0.5899 -0.6186
 7044TIP3   OH242622   3.745   4.577   3.085  0.0038  0.0790  0.6056
 7044TIP3    H142623   3.837   4.595   3.104 -0.6079  1.6067  2.1178
 7044TIP3    H242624   3.701   4.661   3.097 -1.6553 -0.7332  0.2562
 7045TIP3   OH242625   6.718   0.441  12.860  0.0957 -0.0542 -0.1654
 7045TIP3    H142626   6.729   0.530  12.826  0.5043  0.1026  0.3693
 7045TIP3    H242627   6.780   0.436  12.933  0.2031 -0.8373 -0.3145
 7046TIP3   OH242628   6.114   0.773  11.352 -0.0777  0.2755  0.5466
 7046TIP3    H142629   6.132   0.845  11.413 -2.2622  1.4286 -0.0968
 7046TIP3    H242630   6.043   0.724  11.392 -0.2777 -0.0474 -0.1814
 7047TIP3   OH242631   1.398   0.082  15.404  0.5802  0.5780 -0.0437
 7047TIP3    H142632   1.363   0.157  15.453  0.5921 -0.0275  0.9115
 7047TIP3    H242633   1.335   0.012  15.422 -0.0177  0.6485 -1.8077
 7048TIP3   OH242634   5.939   4.541  11.628 -0.1323  0.0750  0.1360
 7048TIP3    H142635   5.853   4.501  11.641 -0.7448  0.6805 -1.8298
 7048TIP3    H242636   5.925   4.634  11.647  0.0952  0.1621 -0.1195
 7049TIP3   OH242637   4.679   5.178   4.418  0.1134 -0.4400  0.0122
 7049TIP3    H142638   4.731   5.245   4.463  1.3719 -0.5528 -1.2387
 7049TIP3    H242639   4.661   5.215   4.332 -2.6636 -0.0448  0.7155
 7050TIP3   OH242640   2.023   6.343   4.697  0.1106  0.2957  0.4056
 7050TIP3    H142641   2.003   6.379   4.783 -1.5498  1.6092 -0.5019
 7050TIP3    H242642   1.943   6.297   4.671  1.0009 -1.0895  0.0445
 7051TIP3   OH242643   4.778   6.128  11.563 -0.0043  0.2382 -0.1042
 7051TIP3    H142644   4.858   6.075  11.567  0.8234  1.4264 -0.6073
 7051TIP3    H242645   4.786   6.177  11.481 -0.5800  1.4180  0.5359
 7052TIP3   OH242646   1.770   0.714   1.307  0.0042 -0.1797  0.3437
 7052TIP3    H142647   1.797   0.786   1.364 -0.4587 -0.1735  0.5573
 7052TIP3    H242648   1.821   0.638   1.337  0.0087 -0.0969  0.5398
 7053TIP3   OH242649   2.750   6.338  13.221 -0.4158  0.4978 -0.1389
 7053TIP3    H142650   2.679   6.295  13.172  0.2119  0.0857 -0.6859
 7053TIP3    H242651   2.745   6.429  13.194  0.4619  0.1120 -1.6087
 7054TIP3   OH242652   5.541   4.105  12.193  0.7118  0.2817  0.4952
 7054TIP3    H142653   5.589   4.039  12.243  1.2083  0.7299  0.6051
 7054TIP3    H242654   5.536   4.181  12.251 -0.2466  0.1934  0.5380
 7055TIP3   OH242655   5.006   0.081  10.979  0.8406  1.0628 -0.1729
 7055TIP3    H142656   5.011   0.045  10.891  2.0334 -0.4833  0.5119
 7055TIP3    H242657   5.097   0.089  11.008  0.4047 -0.8871  1.8824
 7056TIP3   OH242658   5.699   2.563  14.552  0.4507 -0.9470 -0.0890
 7056TIP3    H142659   5.693   2.612  14.634  2.6266 -1.0840  0.1937
 7056TIP3    H242660   5.659   2.619  14.487  1.9831  0.7803  0.4251
 7057TIP3   OH242661   2.140   4.489   0.851  0.2310  0.7225  0.1772
 7057TIP3    H142662   2.196   4.501   0.775 -0.7284  0.9367 -0.5108
 7057TIP3    H242663   2.081   4.418   0.826 -0.8396  1.5696  0.2666
 7058TIP3   OH242664   0.007   0.563  15.231 -0.0647  0.4305  0.6958
 7058TIP3    H142665   0.052   0.531  15.309  0.7212  2.0732  0.9470
 7058TIP3    H242666  -0.037   0.643  15.260 -0.5668  0.5252 -0.3054
 7059TIP3   OH242667   4.680   6.479   0.815 -0.1725 -0.7269 -0.1229
 7059TIP3    H142668   4.598   6.499   0.859 -1.2371 -0.9207 -1.9817
 7059TIP3    H242669   4.672   6.387   0.789  0.8942 -0.9327  0.2252
 7060TIP3   OH242670   2.403   1.463   0.009 -0.7709 -0.3594 -0.3321
 7060TIP3    H142671   2.385   1.552   0.038 -1.9878 -0.7754  0.2210
 7060TIP3    H242672   2.359   1.456  -0.076  0.4430 -0.0241 -1.0015
 7061TIP3   OH242673   5.745   4.739  15.447  0.1709 -0.0151 -0.1265
 7061TIP3    H142674   5.804   4.756  15.373  0.5838  1.3774  0.5152
 7061TIP3    H242675   5.792   4.675  15.500  2.0205  2.4738  1.3787
 7062TIP3   OH242676   2.883   5.099  16.872  0.3102  0.1774 -0.6167
 7062TIP3    H142677   2.945   5.143  16.930  0.9593 -1.4717 -0.0411
 7062TIP3    H242678   2.937   5.038  16.821 -0.4774  0.5369 -1.9088
 7063TIP3   OH242679   2.737   2.500   0.963 -0.7671  0.7007 -0.1358
 7063TIP3    H142680   2.757   2.449   0.884  0.5501  0.0942  0.5856
 7063TIP3    H242681   2.648   2.534   0.947 -0.8700 -0.1601 -1.4839
 7064TIP3   OH242682   4.188   2.425   3.465 -0.1238 -0.6539  0.4607
 7064TIP3    H142683   4.246   2.489   3.425 -0.1606 -0.1111  1.2575
 7064TIP3    H242684   4.246   2.359   3.503  0.0146  0.3784  2.0718
 7065TIP3   OH242685   6.632   1.033   2.439  0.2681  0.0860  0.4162
 7065TIP3    H142686   6.727   1.042   2.432  0.3600  1.0087  2.5079
 7065TIP3    H242687   6.602   1.023   2.349  2.5377 -2.2714 -0.1341
 7066TIP3   OH242688   5.486   5.976  12.701  0.8533 -0.6513  0.6104
 7066TIP3    H142689   5.528   5.921  12.767  1.4195 -0.3596  0.4924
 7066TIP3    H242690   5.506   6.066  12.728 -0.2354 -0.4883  0.9126
 7067TIP3   OH242691   0.529   2.421   0.353  0.1411 -0.1691 -0.3169
 7067TIP3    H142692   0.471   2.401   0.279  0.7746  0.7339 -1.0659
 7067TIP3    H242693   0.476   2.473   0.412 -0.0741 -0.0667 -0.5994
 7068TIP3   OH242694   5.113   0.080   1.407  0.3522 -0.5926  0.0194
 7068TIP3    H142695   5.049   0.136   1.451 -0.6782 -0.9529 -1.0089
 7068TIP3    H242696   5.181   0.064   1.473  0.4558  1.5176  0.4606
 7069TIP3   OH242697   5.008   5.512  15.087 -0.3538 -0.0650  1.1361
 7069TIP3    H142698   5.023   5.418  15.081  0.3990  0.0404  1.2683
 7069TIP3    H242699   4.913   5.522  15.093 -0.4568 -0.7885  0.6828
 7070TIP3   OH242700   4.719   3.507   4.585 -0.3301 -0.0296 -0.5072
 7070TIP3    H142701   4.642   3.539   4.538 -0.6821 -0.8724 -0.5137
 7070TIP3    H242702   4.703   3.532   4.676  0.6777  2.2175 -0.9211
 7071TIP3   OH242703   4.048   4.731  14.424 -0.2067 -0.5553 -0.1028
 7071TIP3    H142704   4.029   4.778  14.506  0.0118  0.8201 -0.8145
 7071TIP3    H242705   4.114   4.667  14.449 -0.8015 -0.7627  0.9896
 7072TIP3   OH242706   0.865   3.543   0.755  0.5354  0.1643  0.5841
 7072TIP3    H142707   0.851   3.451   0.732 -0.2261 -0.2299  2.5835
 7072TIP3    H242708   0.901   3.582   0.675 -0.5028 -1.5369 -0.7472
 7073TIP3   OH242709   6.567   3.849  11.933  0.7778 -0.7780 -0.1339
 7073TIP3    H142710   6.659   3.834  11.912  0.8541 -2.7908  1.3932
 7073TIP3    H242711   6.566   3.933  11.978  2.2392 -1.7241  1.7842
 7074TIP3   OH242712   1.116   6.306  12.111  0.1004  0.0958 -0.1459
 7074TIP3    H142713   1.022   6.304  12.092  0.3429 -2.6998 -1.3398
 7074TIP3    H242714   1.122   6.347  12.197 -2.1287  1.1356 -0.4418
 7075TIP3   OH242715   4.806   5.905  17.084  0.3674 -0.5220 -0.1786
 7075TIP3    H142716   4.772   5.918  17.173  1.1209  1.6489 -0.1885
 7075TIP3    H242717   4.889   5.859  17.097  0.3524 -0.4383  0.2137
 7076TIP3   OH242718   3.121   2.106  10.615 -0.1824 -0.0843  0.1555
 7076TIP3    H142719   3.068   2.093  10.537  1.3228 -2.2773 -0.5275
 7076TIP3    H242720   3.200   2.055  10.600  1.2227  1.4515  2.0596
 7077TIP3   OH242721   0.234   4.083   2.031  0.1876 -0.4781 -0.6624
 7077TIP3    H142722   0.257   4.004   1.983  1.2938 -1.4013  1.3374
 7077TIP3    H242723   0.300   4.091   2.099  0.6195  2.6839 -1.3439
 7078TIP3   OH242724   4.591   4.660  16.857 -0.2965  0.0446  0.2615
 7078TIP3    H142725   4.619   4.673  16.948 -0.1978  0.9924  0.1058
 7078TIP3    H242726   4.672   4.659  16.807 -0.4713  2.5307 -0.1562
 7079TIP3   OH242727   1.470   1.319   4.865  0.1762  0.1508  0.4493
 7079TIP3    H142728   1.493   1.412   4.854  3.2843 -0.5708  0.3950
 7079TIP3    H242729   1.445   1.312   4.957 -1.4569  1.2956  0.1195
 7080TIP3   OH242730   1.176   1.680   3.497  0.1263  0.9360 -0.4727
 7080TIP3    H142731   1.209   1.735   3.568  1.1499  0.5724 -0.6617
 7080TIP3    H242732   1.159   1.595   3.537  0.8520  0.6856 -0.6971
 7081TIP3   OH242733   4.542   2.629   3.589 -0.1308 -0.6394 -0.1881
 7081TIP3    H142734   4.527   2.720   3.614 -0.9118 -0.9041  0.3410
 7081TIP3    H242735   4.635   2.625   3.568 -0.0919  0.2832 -0.2185
 7082TIP3   OH242736   1.945   1.698   2.286  0.2373  0.3343  0.0321
 7082TIP3    H142737   1.980   1.777   2.327 -1.0732  0.9008  0.0985
 7082TIP3    H242738   2.018   1.636   2.286  1.3661  1.6483 -0.3069
 7083TIP3   OH242739   4.932   5.203   4.132  0.1992  0.5412 -0.2052
 7083TIP3    H142740   5.003   5.261   4.104  2.4520 -1.3045  1.4717
 7083TIP3    H242741   4.974   5.141   4.192 -2.4012 -1.9593 -0.8577
 7084TIP3   OH242742   1.534   4.376  15.423 -0.0568 -0.0558 -0.7519
 7084TIP3    H142743   1.527   4.471  15.408 -3.7886  0.1714  1.6491
 7084TIP3    H242744   1.475   4.337  15.358 -1.5338 -0.3897  0.7438
 7085TIP3   OH242745   1.044   0.028  11.078 -0.5475 -0.1154 -0.0858
 7085TIP3    H142746   1.005   0.077  11.151 -0.7575 -1.5550  0.7899
 7085TIP3    H242747   1.018   0.078  11.000  0.3980  1.9225  0.8568
 7086TIP3   OH242748   3.577   4.706   4.259  0.5930  0.3539 -0.0119
 7086TIP3    H142749   3.620   4.789   4.282 -0.9521  1.2555 -0.3340
 7086TIP3    H242750   3.507   4.696   4.323  2.4967 -2.1477  1.7790
 7087TIP3   OH242751   6.112   5.377   1.739 -0.2959 -0.3357  0.5255
 7087TIP3    H142752   6.070   5.319   1.802 -1.0708  0.6660  0.9436
 7087TIP3    H242753   6.192   5.331   1.713 -0.5462 -1.2624  1.3747
 7088TIP3   OH242754   4.077   0.198  16.000  0.1258  0.9325  0.1671
 7088TIP3    H142755   4.021   0.137  16.048  0.3815  1.2825  0.9154
 7088TIP3    H242756   4.164   0.158  16.003  0.1939  1.0829  0.2169
 7089TIP3   OH242757   5.611   0.859   0.787 -0.2396  0.2927  0.1061
 7089TIP3    H142758   5.656   0.776   0.804 -0.9229  0.0803  0.8854
 7089TIP3    H242759   5.554   0.841   0.713  1.3597  0.7150 -1.2640
 7090TIP3   OH242760   1.647   4.227  16.966 -0.0444  0.0493 -0.0338
 7090TIP3    H142761   1.718   4.255  17.024  0.5407 -0.1428 -0.6490
 7090TIP3    H242762   1.620   4.142  16.999 -0.9034  0.7224  1.0179
 7091TIP3   OH242763   0.081   3.940   3.550 -0.4438 -0.2039  0.2716
 7091TIP3    H142764  -0.006   3.955   3.515  0.2579  0.2053 -1.3292
 7091TIP3    H242765   0.135   3.921   3.473  0.9076 -0.2965  1.2280
 7092TIP3   OH242766   1.665   0.977   3.011 -0.3535 -0.2894 -0.0742
 7092TIP3    H142767   1.667   0.900   3.067  2.6514 -0.9276 -0.9764
 7092TIP3    H242768   1.631   0.945   2.927  0.4907 -0.5503 -0.3191
 7093TIP3   OH242769   6.446   1.657   0.377 -0.5004  0.6739  0.1400
 7093TIP3    H142770   6.411   1.592   0.438 -0.4543  0.7067  0.2014
 7093TIP3    H242771   6.369   1.704   0.346 -0.5630  0.3940 -0.1297
 7094TIP3   OH242772   2.626   2.919  14.181 -0.6517 -0.3342  0.0352
 7094TIP3    H142773   2.580   2.930  14.265 -1.3872 -0.9320 -0.2839
 7094TIP3    H242774   2.660   2.830  14.184  0.5008  0.1034  0.2638
 7095TIP3   OH242775   2.201   1.185  16.886 -0.3256 -0.0189  0.4388
 7095TIP3    H142776   2.234   1.176  16.797 -1.5583  0.2972 -0.0678
 7095TIP3    H242777   2.106   1.176  16.877 -0.3058 -2.4107  2.0246
 7096TIP3   OH242778   0.636   6.679  11.738 -0.4608 -0.1568 -0.5497
 7096TIP3    H142779   0.694   6.661  11.665  1.0582  0.5495  0.4695
 7096TIP3    H242780   0.620   6.593  11.778  0.5976 -0.2300 -0.2902
 7097TIP3   OH242781   6.700   6.660   0.370 -0.0365 -0.8952 -0.0586
 7097TIP3    H142782   6.724   6.708   0.449  0.7535 -1.1425 -0.1444
 7097TIP3    H242783   6.782   6.622   0.339 -0.0737  0.4161 -1.8209
 7098TIP3   OH242784   1.402   3.468   6.106  0.8402 -0.1824  0.1744
 7098TIP3    H142785   1.368   3.506   6.187 -0.5647 -0.2440 -0.3740
 7098TIP3    H242786   1.487   3.511   6.093  0.1720  1.2924  0.6243
 7099TIP3   OH242787   1.969   1.204  14.621  0.3059 -0.2043 -0.6389
 7099TIP3    H142788   1.982   1.153  14.701  0.8325  1.4669  0.3542
 7099TIP3    H242789   1.999   1.146  14.551  3.3824 -0.3082  0.7006
 7100TIP3   OH242790   2.060   6.466  16.692 -0.1783 -0.6473 -0.0785
 7100TIP3    H142791   2.048   6.542  16.749 -0.2252  0.4248 -1.4963
 7100TIP3    H242792   2.153   6.467  16.670 -0.4922  0.0025 -1.4487
 7101TIP3   OH242793   5.297   4.339  12.065 -0.3012 -0.4443  0.1094
 7101TIP3    H142794   5.269   4.249  12.045  0.7472 -0.6440 -0.5038
 7101TIP3    H242795   5.227   4.374  12.120 -0.7866 -1.5937  0.2448
 7102TIP3   OH242796   0.709   4.551  17.064 -0.4057  0.0779  0.6831
 7102TIP3    H142797   0.629   4.552  17.116 -1.2528  0.5913 -0.6289
 7102TIP3    H242798   0.688   4.601  16.986  1.5876  1.2962  0.8887
 7103TIP3   OH242799   4.385   2.797   2.649  0.0642  0.0351  0.3365
 7103TIP3    H142800   4.375   2.733   2.720  0.5746 -0.7738 -0.3092
 7103TIP3    H242801   4.355   2.751   2.571 -2.9949  1.8066  0.4259
 7104TIP3   OH242802   6.342   3.222   4.117 -0.5999  0.1276  0.4489
 7104TIP3    H142803   6.305   3.137   4.142  0.3526 -0.4955 -0.2389
 7104TIP3    H242804   6.274   3.285   4.140 -1.2974 -0.8123  1.0167
 7105TIP3   OH242805   5.660   4.806  13.813 -0.2868 -0.2387  0.0511
 7105TIP3    H142806   5.656   4.825  13.907 -1.0640  0.4261 -0.1030
 7105TIP3    H242807   5.732   4.745  13.803  1.8363  2.0820  0.6944
 7106TIP3   OH242808   1.035   1.457   1.033 -0.3281  0.4151  0.8366
 7106TIP3    H142809   0.946   1.492   1.039  0.3786  2.2254  1.2587
 7106TIP3    H242810   1.081   1.497   1.107  1.1175  0.3668 -0.0209
 7107TIP3   OH242811   1.631   3.010   4.367  0.1797  1.0716  0.4243
 7107TIP3    H142812   1.645   2.920   4.395 -1.2754 -0.2338 -2.7682
 7107TIP3    H242813   1.717   3.040   4.339  0.3323 -0.0403 -0.3383
 7108TIP3   OH242814   1.298   3.643   2.556  0.3666 -0.6349  0.4039
 7108TIP3    H142815   1.375   3.693   2.529 -0.7869  0.4012 -1.0831
 7108TIP3    H242816   1.246   3.705   2.607  0.1259 -1.0831  0.7079
 7109TIP3   OH242817   4.652   5.035   0.508  0.4340  0.1208  0.1987
 7109TIP3    H142818   4.714   5.022   0.580  1.3218  1.9558 -0.2112
 7109TIP3    H242819   4.574   4.987   0.534  0.3116  1.7338  2.9425
 7110TIP3   OH242820   5.980   3.907   4.678 -0.2673 -0.2769  0.0035
 7110TIP3    H142821   5.899   3.856   4.664 -0.6970  0.1938  0.7587
 7110TIP3    H242822   5.995   3.902   4.772  0.1792  0.2643 -0.0426
 7111TIP3   OH242823   5.277   2.470   0.803 -0.0147 -0.1738  0.6680
 7111TIP3    H142824   5.276   2.558   0.842 -0.0879 -1.0078  2.5854
 7111TIP3    H242825   5.368   2.457   0.776 -0.2725  0.9955 -0.8067
 7112TIP3   OH242826   4.605   6.145   5.515 -0.0341  0.1274 -0.3573
 7112TIP3    H142827   4.580   6.144   5.607 -0.8144  0.8936 -0.5586
 7112TIP3    H242828   4.700   6.155   5.516 -0.2410  2.2810  0.3428
 7113TIP3   OH242829   1.081   5.587   2.251 -0.5932  0.0643  0.5193
 7113TIP3    H142830   1.002   5.642   2.257 -0.3452  0.3883  0.7877
 7113TIP3    H242831   1.138   5.619   2.321  0.2118  0.5214 -0.3337
 7114TIP3   OH242832   6.209   1.922   5.524 -0.0191 -0.5165 -0.1087
 7114TIP3    H142833   6.147   1.851   5.543 -0.3257 -0.1798  0.1500
 7114TIP3    H242834   6.246   1.945   5.609 -0.1181 -0.1824 -0.1568
 7115TIP3   OH242835   2.277   1.825   5.804 -0.1781 -0.3071 -0.1921
 7115TIP3    H142836   2.280   1.901   5.861 -0.6809 -0.7365  0.4253
 7115TIP3    H242837   2.241   1.857   5.722  0.3047  0.2659 -0.1777
 7116TIP3   OH242838   5.599   4.019   2.738  0.6694  1.0908  0.0126
 7116TIP3    H142839   5.578   4.102   2.779 -1.0615 -0.7382  3.0064
 7116TIP3    H242840   5.515   3.985   2.707  0.6625 -1.2830  2.3808
 7117TIP3   OH242841   1.241   5.852   2.804 -0.5593 -0.6143 -0.3211
 7117TIP3    H142842   1.327   5.887   2.781 -0.6215 -1.2132 -1.4976
 7117TIP3    H242843   1.179   5.902   2.751 -1.1892  1.4397  2.2240
 7118TIP3   OH242844   6.053   3.214   4.474 -0.3714  0.0519 -0.1378
 7118TIP3    H142845   6.140   3.253   4.485 -0.4051 -0.2557  1.1764
 7118TIP3    H242846   6.035   3.170   4.556 -1.2700 -0.9173 -0.8373
 7119TIP3   OH242847   0.362   5.885   5.533 -0.2259 -0.5254  0.1245
 7119TIP3    H142848   0.292   5.924   5.585  0.2287  0.7493 -0.2061
 7119TIP3    H242849   0.396   5.957   5.480 -1.2072 -1.9699 -2.5548
 7120TIP3   OH242850   6.059   5.422   5.524 -0.3603  0.7192 -0.2917
 7120TIP3    H142851   6.055   5.513   5.493  0.5707  0.7966 -0.2050
 7120TIP3    H242852   6.086   5.372   5.447  0.0842  0.6525 -0.0941
 7121TIP3   OH242853   4.810   0.916  15.558  0.1090 -0.8065  0.4040
 7121TIP3    H142854   4.860   0.963  15.625 -0.9999 -0.8613  1.2839
 7121TIP3    H242855   4.785   0.985  15.495 -1.2243 -0.2653  1.5135
 7122TIP3   OH242856   5.133   5.463   1.390 -0.2001  0.3725 -0.0843
 7122TIP3    H142857   5.055   5.473   1.444  0.7408  1.6057  1.0759
 7122TIP3    H242858   5.176   5.384   1.424 -1.0613 -0.4695 -0.9077
 7123TIP3   OH242859   0.497   2.814   5.801 -0.1083 -0.1514  0.0218
 7123TIP3    H142860   0.568   2.771   5.752  0.8387  0.1056  1.1567
 7123TIP3    H242861   0.473   2.890   5.748  2.3951  1.3557  0.9966
 7124TIP3   OH242862   2.261   2.925  17.260  0.4468  0.0185  0.1316
 7124TIP3    H142863   2.238   2.867  17.333 -0.6249  1.3995  0.9199
 7124TIP3    H242864   2.180   2.931  17.209  0.7077  0.4024 -0.2329
 7125TIP3   OH242865   0.502   2.814  12.052  0.0894 -0.0956 -0.1957
 7125TIP3    H142866   0.566   2.750  12.083 -0.0459  0.7459  1.8564
 7125TIP3    H242867   0.544   2.854  11.976  1.8451  0.1855  0.8984
 7126TIP3   OH242868   1.271   1.316  10.706 -0.2706 -0.0141 -0.5722
 7126TIP3    H142869   1.200   1.379  10.695  0.1016 -0.0551 -3.7312
 7126TIP3    H242870   1.248   1.245  10.646  0.6678 -1.6674  0.9872
 7127TIP3   OH242871   0.562   3.215   1.981 -0.3600  0.5425  0.5304
 7127TIP3    H142872   0.550   3.133   2.029 -1.6650 -0.9456 -2.2220
 7127TIP3    H242873   0.644   3.203   1.932  0.2614  1.5103  1.3078
 7128TIP3   OH242874   6.469   3.682   2.282  0.3116 -0.0779 -0.4504
 7128TIP3    H142875   6.519   3.664   2.202  0.1320  0.3498 -0.6650
 7128TIP3    H242876   6.494   3.771   2.305  1.7695 -0.8442  1.0200
 7129TIP3   OH242877   6.353   5.262   1.674 -0.3158 -0.3673  0.1052
 7129TIP3    H142878   6.402   5.194   1.720  2.0530  0.0869 -1.6309
 7129TIP3    H242879   6.406   5.281   1.596 -3.5752 -0.2907 -2.2081
 7130TIP3   OH242880   1.972   0.801   4.260  0.1713 -0.2686  0.3937
 7130TIP3    H142881   2.009   0.800   4.349  0.8241 -1.3197  0.1199
 7130TIP3    H242882   2.048   0.806   4.203 -0.2305 -0.0274 -0.1230
 7131TIP3   OH242883   1.477   3.400   2.749 -0.7446  0.4076  0.1087
 7131TIP3    H142884   1.441   3.377   2.835  0.1076 -0.0733  0.3440
 7131TIP3    H242885   1.512   3.488   2.760 -0.5484  0.3077  0.2828
 7132TIP3   OH242886   5.129   1.715   0.085 -0.2676 -0.8207  0.6956
 7132TIP3    H142887   5.199   1.736   0.024 -2.1134  2.5347 -0.3876
 7132TIP3    H242888   5.140   1.776   0.157 -2.1099 -0.1259  0.4348
 7133TIP3   OH242889   4.428   0.631  12.822  0.3457  0.1377 -0.7297
 7133TIP3    H142890   4.425   0.536  12.838 -0.7127  0.3321  0.3799
 7133TIP3    H242891   4.426   0.669  12.910 -1.9256  1.2261 -1.2230
 7134TIP3   OH242892   0.927   0.557   1.599  0.4746  0.3751  0.0637
 7134TIP3    H142893   0.871   0.635   1.597 -1.6992 -1.1383 -1.1447
 7134TIP3    H242894   0.956   0.546   1.509 -1.0711 -1.4188 -0.2578
 7135TIP3   OH242895   6.699   1.941  11.719  0.2707 -0.8615  0.0565
 7135TIP3    H142896   6.733   2.028  11.737  1.4939 -1.5105  0.9405
 7135TIP3    H242897   6.605   1.953  11.710  0.4143  0.5157  0.3876
 7136TIP3   OH242898   1.202   0.802  13.856 -0.2028  0.1587 -0.1015
 7136TIP3    H142899   1.156   0.785  13.939  0.1464  0.5180  0.1652
 7136TIP3    H242900   1.188   0.722  13.805  0.1508 -0.3330  0.5615
 7137TIP3   OH242901   1.656   2.229  15.163  0.6118  0.8605  0.0270
 7137TIP3    H142902   1.574   2.204  15.207  1.0598 -0.0103  0.3667
 7137TIP3    H242903   1.644   2.322  15.142 -1.2054  0.2990 -1.5741
 7138TIP3   OH242904   2.337   3.676  13.569  0.1995 -0.4247 -0.8911
 7138TIP3    H142905   2.379   3.590  13.564  0.1888 -0.4414 -0.6858
 7138TIP3    H242906   2.332   3.705  13.478  0.4057 -0.5446 -0.9408
 7139TIP3   OH242907   1.975   1.819  14.028 -0.1210 -0.1279  0.0106
 7139TIP3    H142908   1.937   1.775  13.952 -0.0237 -0.1382 -0.0323
 7139TIP3    H242909   1.903   1.871  14.065  0.3278  1.4193 -1.2220
 7140TIP3   OH242910   4.475   3.885  16.206  0.2763  0.0405  0.0008
 7140TIP3    H142911   4.400   3.834  16.238  0.7006 -0.0349  0.8731
 7140TIP3    H242912   4.551   3.845  16.247  0.9680 -0.8313 -2.0474
 7141TIP3   OH242913   2.740   1.400   4.639 -0.0519  0.1795  0.3309
 7141TIP3    H142914   2.670   1.384   4.576  0.5649  0.4121 -0.4288
 7141TIP3    H242915   2.743   1.496   4.647  1.8189  0.3157 -1.5572
 7142TIP3   OH242916   6.736   3.626  12.740 -0.3482  0.3178  0.3736
 7142TIP3    H142917   6.718   3.644  12.832  1.0549 -0.5420  0.8222
 7142TIP3    H242918   6.688   3.545  12.722 -2.0608  1.4091 -0.1460
 7143TIP3   OH242919   3.954   3.100  12.928 -0.3578 -0.2450 -0.2708
 7143TIP3    H142920   3.920   3.174  12.878  0.2580  0.9573  1.0717
 7143TIP3    H242921   3.941   3.025  12.870 -3.5719  0.4382 -0.5623
 7144TIP3   OH242922   4.773   1.792  16.729 -0.3402  0.4084 -0.1970
 7144TIP3    H142923   4.793   1.885  16.739  1.3592  0.1326 -0.9501
 7144TIP3    H242924   4.828   1.748  16.794  3.2923 -0.5350 -3.7232
 7145TIP3   OH242925   1.079   1.784  15.090 -0.0573 -0.0441 -0.4287
 7145TIP3    H142926   1.148   1.844  15.062  0.4293 -1.2680 -1.9129
 7145TIP3    H242927   1.107   1.754  15.177  0.1148  1.2146 -0.0425
 7146TIP3   OH242928   3.402   4.103   3.893 -0.0417  0.3136 -0.2925
 7146TIP3    H142929   3.394   4.018   3.936  1.3422 -0.0307 -0.6960
 7146TIP3    H242930   3.479   4.143   3.934  1.2004  0.0506 -2.3294
 7147TIP3   OH242931   1.339   0.047  13.155 -0.4006  0.4556  0.7795
 7147TIP3    H142932   1.319  -0.027  13.097 -1.6384  1.1131  0.3671
 7147TIP3    H242933   1.405   0.012  13.215 -0.2957 -0.7184  0.0092
 7148TIP3   OH242934   0.395   5.436   2.271 -0.1307 -0.3175 -0.7171
 7148TIP3    H142935   0.322   5.440   2.210 -0.9339 -1.3942  0.1518
 7148TIP3    H242936   0.382   5.355   2.319  2.0747 -0.9181 -1.0759
 7149TIP3   OH242937   1.916   6.586   2.386  0.1312  0.3907 -0.2774
 7149TIP3    H142938   1.921   6.598   2.291 -1.0540 -1.3173 -0.6018
 7149TIP3    H242939   1.847   6.646   2.414 -1.2570 -0.8650 -0.9000
 7150TIP3   OH242940   6.000   0.075   4.665 -0.3738  0.3716 -0.4973
 7150TIP3    H142941   5.975   0.121   4.745  2.3186  0.3612  0.3917
 7150TIP3    H242942   6.036   0.143   4.608 -2.2026  0.3664 -1.7211
 7151TIP3   OH242943   0.926   1.363  15.520  0.3713 -0.1083  0.1477
 7151TIP3    H142944   0.918   1.311  15.601  1.3003  2.5293  1.9989
 7151TIP3    H242945   1.007   1.332  15.479 -0.5964 -2.1193 -0.2830
 7152TIP3   OH242946   3.800   4.804  11.495  0.3468 -0.4761  0.3198
 7152TIP3    H142947   3.821   4.883  11.445 -2.9253  0.3711  0.1821
 7152TIP3    H242948   3.723   4.828  11.546  0.0561 -3.2124  1.2254
 7153TIP3   OH242949   6.371   0.742  13.077  0.0520 -0.2325  0.1316
 7153TIP3    H142950   6.300   0.797  13.110 -0.3015  0.3951 -1.6057
 7153TIP3    H242951   6.328   0.683  13.015  0.7975 -0.9069  0.2526
 7154TIP3   OH242952   0.846   5.757  13.141  0.2178 -0.4424  0.0248
 7154TIP3    H142953   0.856   5.852  13.133  0.1056 -0.3231  1.3047
 7154TIP3    H242954   0.916   5.730  13.200 -0.2178 -1.0637  0.2609
 7155TIP3   OH242955   6.593   1.025  16.605 -0.4297  0.2251 -0.4876
 7155TIP3    H142956   6.653   0.993  16.672 -3.0544 -0.3613  1.7167
 7155TIP3    H242957   6.635   1.103  16.569  2.3326 -1.0713 -0.1737
 7156TIP3   OH242958   3.564   4.605   5.770  0.4319 -0.0706 -0.0714
 7156TIP3    H142959   3.583   4.515   5.797 -0.5751 -0.3039 -0.1445
 7156TIP3    H242960   3.469   4.608   5.762  0.3883  1.2484  0.8096
 7157TIP3   OH242961   2.156   1.767   1.434  0.0729 -0.4958 -0.3733
 7157TIP3    H142962   2.096   1.720   1.376  0.1727 -1.8252  0.5908
 7157TIP3    H242963   2.240   1.723   1.421 -0.3872 -2.3350  2.4708
 7158TIP3   OH242964   5.825   6.468  11.854  1.1999 -0.0685  0.1124
 7158TIP3    H142965   5.844   6.427  11.770  0.1247 -0.3142 -0.0131
 7158TIP3    H242966   5.910   6.501  11.884  1.4395  0.8342 -1.4970
 7159TIP3   OH242967   6.534   0.936   0.717  0.2244  0.1434  0.2890
 7159TIP3    H142968   6.610   0.994   0.710  1.6656 -0.9783  4.5928
 7159TIP3    H242969   6.560   0.858   0.668  1.4633  0.1724  0.8623
 7160TIP3   OH242970   0.589   4.078  15.659 -0.0958 -0.2936 -0.3225
 7160TIP3    H142971   0.571   4.114  15.573 -1.0017 -0.9119 -0.4045
 7160TIP3    H242972   0.529   4.124  15.718  1.9781  1.6467  0.3504
 7161TIP3   OH242973   1.723   4.510   5.227  0.2590  0.3027  0.3846
 7161TIP3    H142974   1.788   4.483   5.293 -0.8353 -0.4234  1.1779
 7161TIP3    H242975   1.746   4.460   5.149 -0.0595 -0.8255  1.0154
 7162TIP3   OH242976   2.222   6.482   3.938 -0.1997  0.0914  0.0751
 7162TIP3    H142977   2.224   6.455   3.846 -2.0047  0.6018 -0.1332
 7162TIP3    H242978   2.284   6.424   3.982  0.1736 -0.6013 -1.3559
 7163TIP3   OH242979   3.600   5.353  15.676 -0.6152  0.2515 -0.5129
 7163TIP3    H142980   3.629   5.393  15.758 -0.3274  0.7790 -0.8700
 7163TIP3    H242981   3.543   5.281  15.703 -0.4005  0.3333  0.1515
 7164TIP3   OH242982   0.870   0.517  11.608  0.1114  0.1490 -0.3984
 7164TIP3    H142983   0.904   0.546  11.523  0.9197  0.1737 -0.0680
 7164TIP3    H242984   0.893   0.424  11.612  0.0935  0.1539 -0.1919
 7165TIP3   OH242985   4.046   4.418   3.892 -0.3085  0.4213 -0.0568
 7165TIP3    H142986   4.079   4.485   3.832  0.3655 -0.7609 -1.0126
 7165TIP3    H242987   3.952   4.433   3.894 -0.4838 -0.2075 -2.2719
 7166TIP3   OH242988   4.700   3.258   6.840  0.2134 -0.2127 -0.0498
 7166TIP3    H142989   4.680   3.177   6.887  0.9909 -0.6156 -0.4049
 7166TIP3    H242990   4.780   3.239   6.791 -0.2006  0.4298 -0.9968
 7167TIP3   OH242991   4.066   0.894   1.672 -0.0285 -0.1993  0.2182
 7167TIP3    H142992   4.152   0.854   1.683 -0.4025 -1.7318 -2.0992
 7167TIP3    H242993   4.009   0.847   1.733  0.5833  0.1330  1.0339
 7168TIP3   OH242994   2.151   5.526   5.220  0.0702  0.0247 -0.0966
 7168TIP3    H142995   2.081   5.550   5.160 -0.7221 -2.2448 -0.1353
 7168TIP3    H242996   2.229   5.571   5.186 -0.7023  0.0543 -1.8686
 7169TIP3   OH242997   5.692   5.384   2.897  0.0113  0.1827 -0.4637
 7169TIP3    H142998   5.746   5.387   2.977  0.0838  0.2635 -0.5155
 7169TIP3    H242999   5.605   5.360   2.928  0.2200 -0.5761 -0.4530
 7170TIP3   OH243000   4.649   5.110  12.211  0.2435  0.1288  0.7059
 7170TIP3    H143001   4.624   5.029  12.255 -1.2032 -0.1226 -0.5341
 7170TIP3    H243002   4.731   5.090  12.168  0.3012 -0.4315  1.0690
 7171TIP3   OH243003   6.448   5.995   4.122  0.3146  0.0126 -0.1970
 7171TIP3    H143004   6.480   5.975   4.034 -0.5169 -1.1185 -0.2515
 7171TIP3    H243005   6.516   6.049   4.161  0.9542  0.0379 -1.3298
 7172TIP3   OH243006   6.468   6.728  15.508  0.2805  0.1154  0.0652
 7172TIP3    H143007   6.504   6.696  15.426 -1.0326 -1.8571  0.2444
 7172TIP3    H243008   6.545   6.761  15.556  1.8806 -3.6621  0.2730
 7173TIP3   OH243009   2.690   2.289   3.627  0.0802  0.4818 -0.1513
 7173TIP3    H143010   2.758   2.234   3.664  0.6868  2.0002  1.0647
 7173TIP3    H243011   2.632   2.309   3.700 -0.0476  1.5563 -0.5222
 7174TIP3   OH243012   0.506   4.986   1.513 -0.1925  0.2870  0.7155
 7174TIP3    H143013   0.575   4.923   1.493 -1.1685 -1.0972  1.5867
 7174TIP3    H243014   0.549   5.071   1.514  1.0946 -0.3351 -0.7973
 7175TIP3   OH243015   1.784   6.496  11.472  0.5390 -0.1223 -0.3104
 7175TIP3    H143016   1.829   6.572  11.436  0.7907 -0.4653 -0.7168
 7175TIP3    H243017   1.776   6.515  11.566 -0.5264  0.9707 -0.6083
 7176TIP3   OH243018   3.665   1.630  14.879 -0.1702 -0.6703 -0.5431
 7176TIP3    H143019   3.705   1.601  14.961  0.1570 -1.7617 -1.0779
 7176TIP3    H243020   3.637   1.720  14.896 -0.4887 -1.0299  0.8979
 7177TIP3   OH243021   3.478   1.003   5.909  0.3178 -0.0952  0.2911
 7177TIP3    H143022   3.421   0.994   5.833  3.1472 -0.2413 -1.9046
 7177TIP3    H243023   3.501   1.095   5.912  1.0729 -0.2807  0.3209
 7178TIP3   OH243024   2.647   5.450   5.042 -0.2729 -0.3501  0.4620
 7178TIP3    H143025   2.650   5.354   5.040  0.1959 -0.4005  2.4946
 7178TIP3    H243026   2.558   5.470   5.070 -0.4529 -0.1812 -0.2289
 7179TIP3   OH243027   2.628   6.764   4.255  0.4214 -0.6075 -0.2408
 7179TIP3    H143028   2.676   6.809   4.186 -0.2005  1.6707  0.7700
 7179TIP3    H243029   2.536   6.781   4.237  0.1626 -1.5891  0.0938
 7180TIP3   OH243030   5.188   2.788  14.285  0.2867 -0.1529  0.3514
 7180TIP3    H143031   5.101   2.824  14.270 -0.1794 -1.3560  0.1144
 7180TIP3    H243032   5.229   2.850  14.346 -0.7220  0.4295  0.4536
 7181TIP3   OH243033   4.309   2.268  10.574  0.2713 -0.6442  0.0156
 7181TIP3    H143034   4.295   2.349  10.525 -0.6074 -1.5806 -1.3244
 7181TIP3    H243035   4.368   2.293  10.646  0.2417  1.1051 -0.5425
 7182TIP3   OH243036   3.277   2.247  13.476 -0.8376 -0.0655  0.4738
 7182TIP3    H143037   3.300   2.190  13.550  1.0767 -0.6856 -0.5787
 7182TIP3    H243038   3.346   2.314  13.475 -0.8200 -0.0908 -0.7813
 7183TIP3   OH243039   0.172   3.777   5.014 -0.0065 -0.0513 -0.5296
 7183TIP3    H143040   0.142   3.721   5.086  2.8664 -2.1408 -0.8802
 7183TIP3    H243041   0.206   3.855   5.058 -2.7429  0.8429  0.0540
 7184TIP3   OH243042   3.713   2.434  14.597  0.1190 -0.3784  0.3106
 7184TIP3    H143043   3.688   2.347  14.567 -1.1749  0.2367 -0.4396
 7184TIP3    H243044   3.809   2.432  14.601  0.1223 -1.6383 -0.2726
 7185TIP3   OH243045   4.307   1.740   2.807 -0.3272 -0.6753  0.1138
 7185TIP3    H143046   4.299   1.666   2.747  0.1418 -2.1709  1.8624
 7185TIP3    H243047   4.364   1.709   2.877  2.7944  2.5192 -0.8575
 7186TIP3   OH243048   0.948   3.466   4.464  0.0923  0.3708  0.0275
 7186TIP3    H143049   0.993   3.521   4.400  1.3857  0.5025  1.0505
 7186TIP3    H243050   0.951   3.516   4.546 -2.0155  0.4451  0.0994
 7187TIP3   OH243051   4.681   4.781   2.423  0.0870 -0.4655  0.1054
 7187TIP3    H143052   4.668   4.688   2.404 -0.4072 -0.5718  0.9356
 7187TIP3    H243053   4.755   4.806   2.368  2.3001 -2.1518  2.1792
 7188TIP3   OH243054   6.457   0.831   2.573 -0.1236 -0.6097  0.2625
 7188TIP3    H143055   6.453   0.927   2.578 -2.8359 -0.6515 -0.1910
 7188TIP3    H243056   6.502   0.813   2.491 -1.3922  0.3114 -0.6571
 7189TIP3   OH243057   3.472   6.765  10.236 -0.0460  0.0931  0.4475
 7189TIP3    H143058   3.418   6.727  10.166 -0.2692  1.7388 -0.3113
 7189TIP3    H243059   3.410   6.813  10.291  0.2397 -0.5359  1.3284
 7190TIP3   OH243060   6.317   3.062   2.605 -0.1601  0.5901  0.0668
 7190TIP3    H143061   6.376   2.991   2.581 -1.1008 -0.0971 -0.2204
 7190TIP3    H243062   6.360   3.106   2.678  2.0518  1.7948 -1.8776
 7191TIP3   OH243063   1.267   5.868   6.949  0.1734  0.4821 -0.0676
 7191TIP3    H143064   1.352   5.850   6.989  0.3007  0.7433 -0.2186
 7191TIP3    H243065   1.212   5.793   6.974  0.3905  0.4070  0.1900
 7192TIP3   OH243066   3.618   4.451   3.566  0.3884  0.0525  0.3904
 7192TIP3    H143067   3.529   4.414   3.572  0.7238 -0.6666  1.1329
 7192TIP3    H243068   3.629   4.472   3.474  0.1582 -1.6598 -0.0477
 7193TIP3   OH243069   2.908   6.296  10.966 -0.3482  0.3012  0.0928
 7193TIP3    H143070   2.903   6.232  11.038  1.3203 -0.0268 -0.0407
 7193TIP3    H243071   2.885   6.246  10.888  1.1839 -0.2261 -0.0430
 7194TIP3   OH243072   3.915   1.002   3.531 -0.0839  0.2480 -0.3127
 7194TIP3    H143073   3.889   0.948   3.456 -0.4907  0.4313 -0.3025
 7194TIP3    H243074   3.837   1.008   3.585  0.6695 -1.2608  0.9809
 7195TIP3   OH243075   0.383   1.155   1.082  0.1800  0.5225 -0.0478
 7195TIP3    H143076   0.399   1.237   1.036 -0.8374  0.1611 -1.0676
 7195TIP3    H243077   0.305   1.172   1.135 -1.5296 -0.5315 -2.1763
 7196TIP3   OH243078   3.437   3.468  12.224 -0.1995 -0.0977  0.0908
 7196TIP3    H143079   3.344   3.448  12.216 -0.2572  0.1386  0.1744
 7196TIP3    H243080   3.449   3.493  12.315 -0.4949  2.0593 -0.4192
 7197TIP3   OH243081   1.509   2.078   2.797  0.1811 -0.4419  0.0569
 7197TIP3    H143082   1.572   2.055   2.729 -0.6345 -0.8808 -0.5520
 7197TIP3    H243083   1.444   2.132   2.752 -2.6813 -4.1913 -0.5139
 7198TIP3   OH243084   5.700   2.455  11.657 -0.2095  0.3182  0.6447
 7198TIP3    H143085   5.700   2.454  11.753  1.0044 -0.5088  0.6481
 7198TIP3    H243086   5.792   2.461  11.633 -0.6122  3.0012 -0.4826
 7199TIP3   OH243087   1.822   4.915   2.640  0.2965  0.3614 -0.1151
 7199TIP3    H143088   1.738   4.915   2.685  0.4765  0.9494  0.2329
 7199TIP3    H243089   1.801   4.898   2.548  0.0576 -2.5139  0.4100
 7200TIP3   OH243090   1.626   1.985  10.623 -0.0285 -0.3753 -0.1120
 7200TIP3    H143091   1.693   1.933  10.580 -0.2577 -0.9642  0.2316
 7200TIP3    H243092   1.640   1.969  10.717 -0.0466  0.2477 -0.0035
 7201TIP3   OH243093   1.744   0.864  14.616  0.6628  0.3223 -0.3688
 7201TIP3    H143094   1.718   0.865  14.708  1.5234  0.5288 -0.1238
 7201TIP3    H243095   1.786   0.779  14.604 -2.8517 -1.3214 -1.5538
 7202TIP3   OH243096   1.445   1.869  15.539  0.0931 -0.0889 -0.0700
 7202TIP3    H143097   1.518   1.890  15.481 -1.5978  1.0416 -1.8357
 7202TIP3    H243098   1.485   1.864  15.626  2.0473  1.9059 -0.8057
 7203TIP3   OH243099   6.190   0.128  12.381  0.4466 -0.1176  0.2052
 7203TIP3    H143100   6.255   0.150  12.313  1.3183 -1.0417  0.7281
 7203TIP3    H243101   6.242   0.088  12.451 -0.6911 -0.8297  0.6488
 7204TIP3   OH243102   3.190   5.607   4.719  0.4421  0.0629  0.7001
 7204TIP3    H143103   3.251   5.679   4.738  0.4890 -0.1408  1.3268
 7204TIP3    H243104   3.150   5.631   4.635  1.4942  0.1346  0.2016
 7205TIP3   OH243105   4.308   3.191   2.969 -0.6154 -0.0213  0.0237
 7205TIP3    H143106   4.382   3.238   2.928  0.0714 -0.0565  1.2005
 7205TIP3    H243107   4.265   3.147   2.896 -0.2554  1.0732 -0.8712
 7206TIP3   OH243108   5.868   0.250  16.121  0.3420 -0.4890  0.2658
 7206TIP3    H143109   5.877   0.155  16.124  0.4987 -0.4447  2.2845
 7206TIP3    H243110   5.921   0.278  16.047 -0.0402 -2.0100 -0.5945
 7207TIP3   OH243111   1.633   5.728  17.146 -0.0233  0.3510  0.1285
 7207TIP3    H143112   1.661   5.645  17.108 -1.3660 -0.6517  1.2511
 7207TIP3    H243113   1.676   5.795  17.093  1.3794 -1.0588 -0.5604
 7208TIP3   OH243114   5.159   4.223   5.986  0.2951 -0.1636 -0.1461
 7208TIP3    H143115   5.214   4.289   5.943  1.4401  0.2019  1.8238
 7208TIP3    H243116   5.090   4.274   6.029  0.4368 -0.3365  0.2949
 7209TIP3   OH243117   2.417   6.132  15.160  0.2448 -0.5837 -0.3199
 7209TIP3    H143118   2.474   6.076  15.107  0.0782 -1.3592  0.3139
 7209TIP3    H243119   2.332   6.127  15.118  0.4464 -0.0725 -0.7954
 7210TIP3   OH243120   4.816   6.237   4.866 -0.1306 -0.0508  0.1807
 7210TIP3    H143121   4.912   6.232   4.864 -0.1852 -1.0533 -0.4439
 7210TIP3    H243122   4.793   6.209   4.955  0.0886 -1.5636 -0.2093
 7211TIP3   OH243123   3.731   4.142  16.612  0.0654  0.1053 -0.0835
 7211TIP3    H143124   3.823   4.122  16.628  0.6539  1.5860 -1.3954
 7211TIP3    H243125   3.707   4.203  16.682  0.3017  0.2989 -0.1714
 7212TIP3   OH243126   1.037   0.834  11.613  0.1343 -0.3472  0.1230
 7212TIP3    H143127   1.085   0.818  11.531 -1.4214  1.3292 -1.1673
 7212TIP3    H243128   0.945   0.838  11.586 -0.2777  1.7106  1.7227
 7213TIP3   OH243129   2.897   6.147  14.882 -0.6386 -0.0734 -0.1989
 7213TIP3    H143130   2.873   6.134  14.974 -1.8697 -0.4570 -0.5654
 7213TIP3    H243131   2.813   6.150  14.836 -0.0120 -0.3340 -1.3703
 7214TIP3   OH243132   5.031   5.326  10.687 -0.0659 -0.0458  0.1068
 7214TIP3    H143133   5.084   5.259  10.731 -1.3102 -0.4470  1.0318
 7214TIP3    H243134   5.067   5.409  10.719  2.5075 -0.2045 -2.2512
 7215TIP3   OH243135   2.109   5.445  13.009  0.2941 -0.1336  0.1972
 7215TIP3    H143136   2.022   5.436  12.972 -0.1974  0.0678  1.2767
 7215TIP3    H243137   2.163   5.479  12.938 -0.3760 -0.7957 -0.6360
 7216TIP3   OH243138   4.271   6.762   2.475 -0.0295 -0.2952  0.4386
 7216TIP3    H143139   4.365   6.771   2.460 -0.1360 -0.0888 -0.1139
 7216TIP3    H243140   4.263   6.739   2.567  0.5756 -0.5415  0.4258
 7217TIP3   OH243141   6.048   5.609  14.692  0.6460  0.7424  0.1233
 7217TIP3    H143142   6.064   5.637  14.602  1.6687  0.5035  0.2191
 7217TIP3    H243143   6.086   5.521  14.697  0.9560  0.9150  0.8907
 7218TIP3   OH243144   0.454   0.479  17.231 -0.0290 -0.2627 -0.3180
 7218TIP3    H143145   0.446   0.402  17.287 -2.1317 -0.3867 -0.7315
 7218TIP3    H243146   0.538   0.469  17.187  0.1610 -1.8055  0.3729
 7219TIP3   OH243147   1.403   5.333  12.159 -0.0441  0.1247  0.6452
 7219TIP3    H143148   1.335   5.348  12.093 -0.1121 -0.7112  0.5164
 7219TIP3    H243149   1.408   5.237  12.166  1.4067  0.1652  0.3487
 7220TIP3   OH243150   4.719   2.169   3.272  0.1982  0.0665 -0.2258
 7220TIP3    H143151   4.677   2.182   3.187  2.0613 -0.2982 -1.2188
 7220TIP3    H243152   4.775   2.093   3.260  2.7303  1.7711  0.4646
 7221TIP3   OH243153   1.744   4.927  16.774  0.0593 -0.1112  0.1276
 7221TIP3    H143154   1.815   4.910  16.836  1.6224 -0.9029 -1.8353
 7221TIP3    H243155   1.788   4.947  16.691 -1.9935 -2.2617 -1.5597
 7222TIP3   OH243156   0.258   0.452  11.549 -0.2381  0.6540 -0.0509
 7222TIP3    H143157   0.341   0.498  11.559 -0.5587  1.0278  0.8979
 7222TIP3    H243158   0.282   0.360  11.542  0.2668  0.7821 -0.0016
 7223TIP3   OH243159   1.460   1.536   5.389  0.4309 -0.0186  0.8001
 7223TIP3    H143160   1.370   1.550   5.360  1.4031  1.4235 -1.6414
 7223TIP3    H243161   1.485   1.452   5.349  0.4087 -0.0935  0.9407
 7224TIP3   OH243162   0.396   6.643   0.187 -0.0860 -0.2211 -0.0514
 7224TIP3    H143163   0.315   6.659   0.138 -0.0109  0.6827  0.1230
 7224TIP3    H243164   0.455   6.603   0.124 -0.6546 -0.8566 -0.1893
 7225TIP3   OH243165   1.194   3.823  13.552  0.1592 -0.1959  0.0200
 7225TIP3    H143166   1.202   3.908  13.597  2.4416  0.6482 -1.8536
 7225TIP3    H243167   1.225   3.759  13.617  1.9591  0.8294  0.2149
 7226TIP3   OH243168   5.465   0.326  12.061 -0.3207 -0.5210 -0.0866
 7226TIP3    H143169   5.507   0.270  11.996 -2.0353 -2.1456  0.1406
 7226TIP3    H243170   5.500   0.297  12.145 -2.0369 -2.0458  0.1233
 7227TIP3   OH243171   3.727   0.820  12.944 -0.4527 -1.0351  0.2766
 7227TIP3    H143172   3.672   0.891  12.975 -1.6107 -1.7070 -0.1788
 7227TIP3    H243173   3.729   0.831  12.848  0.3345 -0.9331  0.2963
 7228TIP3   OH243174   1.173   2.288  14.848 -0.8772  0.2480 -0.6512
 7228TIP3    H143175   1.250   2.231  14.841  0.4314  1.7909  0.6856
 7228TIP3    H243176   1.138   2.270  14.935 -0.2469  1.7162 -0.0836
 7229TIP3   OH243177   1.722   4.569  14.792 -0.1364 -0.0785  0.1339
 7229TIP3    H143178   1.815   4.590  14.792 -0.2424  0.4418 -1.6569
 7229TIP3    H243179   1.709   4.514  14.714 -1.2013 -0.7348  0.7499
 7230TIP3   OH243180   2.035   4.234   3.902  0.3605 -0.5522  0.5861
 7230TIP3    H143181   1.979   4.205   3.831 -1.8530 -1.0578  2.4555
 7230TIP3    H243182   1.983   4.301   3.947  2.3760  0.9283  0.7528
 7231TIP3   OH243183   2.685   5.969  15.345 -0.4124  0.1584  0.3666
 7231TIP3    H143184   2.678   5.875  15.357 -2.7798  0.1186 -1.0586
 7231TIP3    H243185   2.611   6.006  15.393  1.2658  1.4129  2.0563
 7232TIP3   OH243186   6.539   0.381  15.381 -0.4629  0.0148 -0.2692
 7232TIP3    H143187   6.630   0.372  15.352 -0.0639  1.1506  0.5889
 7232TIP3    H243188   6.545   0.391  15.476 -1.5334 -0.5740 -0.1338
 7233TIP3   OH243189   3.378   1.286  15.421 -0.1013  0.1675  0.2482
 7233TIP3    H143190   3.366   1.195  15.448 -0.8549  0.2291  0.1405
 7233TIP3    H243191   3.471   1.303  15.433 -0.2586 -0.0874  1.9623
 7234TIP3   OH243192   5.934   5.785  11.461  0.5855  0.2496  0.0810
 7234TIP3    H143193   5.858   5.767  11.407 -0.1366  2.6741  0.2447
 7234TIP3    H243194   5.941   5.880  11.463  2.6418  0.1164  1.4243
 7235TIP3   OH243195   4.554   2.925  11.567 -0.0249 -0.2494  0.4347
 7235TIP3    H143196   4.481   2.936  11.506 -0.1543  0.6520  0.7504
 7235TIP3    H243197   4.521   2.960  11.650  0.9802  0.7002  0.4322
 7236TIP3   OH243198   2.369   2.345  13.899 -0.0215 -0.2575 -0.9978
 7236TIP3    H143199   2.351   2.358  13.992  0.5039 -1.1135 -0.7742
 7236TIP3    H243200   2.289   2.375  13.855 -0.2673  0.1575 -0.2756
 7237TIP3   OH243201   3.738   5.454   1.112  0.3148  0.0026  0.0140
 7237TIP3    H143202   3.741   5.358   1.102 -0.8876 -0.1871  1.3653
 7237TIP3    H243203   3.711   5.468   1.202  4.0288  1.6371  0.9979
 7238TIP3   OH243204   6.395   2.475  12.043 -0.6592  0.0981 -0.2046
 7238TIP3    H143205   6.351   2.549  12.085 -0.6774 -0.4586  0.7794
 7238TIP3    H243206   6.352   2.398  12.080  2.2843 -0.5130  2.1389
 7239TIP3   OH243207   0.460   2.185   1.413 -0.1021  0.2144 -0.1416
 7239TIP3    H143208   0.475   2.110   1.355 -1.3716 -2.4112  2.8130
 7239TIP3    H243209   0.544   2.198   1.457 -0.6597 -1.2768  1.3780
 7240TIP3   OH243210   1.210   1.586  15.272 -0.2788 -0.8557  0.2643
 7240TIP3    H143211   1.293   1.576  15.318 -0.1048 -0.4713  0.0403
 7240TIP3    H243212   1.224   1.545  15.186 -0.7222 -1.9021  0.6879
 7241TIP3   OH243213   5.241   2.720   2.335  0.0780 -0.5299 -0.4139
 7241TIP3    H143214   5.172   2.677   2.385  1.0722 -0.8857  0.6855
 7241TIP3    H243215   5.257   2.663   2.261  1.2089 -1.9644  0.8978
 7242TIP3   OH243216   6.781   3.701   6.150 -0.3597 -0.3499  0.2050
 7242TIP3    H143217   6.835   3.762   6.099 -1.5223 -2.3786 -3.6454
 7242TIP3    H243218   6.813   3.614   6.127 -4.0993 -1.5267 -0.9014
 7243TIP3   OH243219   4.012   1.968  14.337  0.0149  0.0335 -0.3655
 7243TIP3    H143220   3.920   1.960  14.312 -0.3605  2.2608  0.1837
 7243TIP3    H243221   4.055   2.001  14.258  0.7330 -2.9806 -1.2588
 7244TIP3   OH243222   4.840   2.941   4.821  0.8393  0.1354 -0.4991
 7244TIP3    H143223   4.897   2.926   4.745 -0.4436 -0.1155 -1.4290
 7244TIP3    H243224   4.789   2.861   4.829  1.4824 -0.1223  1.0956
 7245TIP3   OH243225   1.735   6.363   1.960 -0.1921  0.0516 -0.3034
 7245TIP3    H143226   1.680   6.441   1.953  0.3743  0.7402  2.2840
 7245TIP3    H243227   1.825   6.397   1.963  0.1369 -0.7941 -0.4562
 7246TIP3   OH243228   4.667   4.886   0.992 -0.4570 -0.1779  0.1559
 7246TIP3    H143229   4.608   4.946   1.037 -0.8588 -0.9334  0.6376
 7246TIP3    H243230   4.709   4.835   1.062  0.0501 -0.3066 -0.2340
 7247TIP3   OH243231   0.646   2.859   4.816 -0.4321  0.1231  0.0259
 7247TIP3    H143232   0.644   2.951   4.840  0.2800  0.7689 -2.2841
 7247TIP3    H243233   0.739   2.841   4.798 -0.7814 -0.6296 -1.0762
 7248TIP3   OH243234   4.158   4.103  13.502  0.3268  0.0027  0.3536
 7248TIP3    H143235   4.198   4.190  13.495  1.7594 -0.7389 -0.9786
 7248TIP3    H243236   4.180   4.075  13.591  1.3008  0.3089  0.2170
 7249TIP3   OH243237   6.584   2.068   1.960  0.0772  0.1380  0.0946
 7249TIP3    H143238   6.543   2.128   2.023  0.1541 -0.3537  0.6114
 7249TIP3    H243239   6.540   2.087   1.878 -3.2555 -2.3535  1.1911
 7250TIP3   OH243240   0.376   0.639   0.583 -0.0117 -0.2455  0.1787
 7250TIP3    H143241   0.331   0.604   0.659 -1.3369 -0.0977 -0.5181
 7250TIP3    H243242   0.354   0.733   0.584 -0.1501 -0.2681 -0.4503
 7251TIP3   OH243243   6.209   4.577  14.557 -0.2154 -0.0353  0.1685
 7251TIP3    H143244   6.127   4.621  14.578  0.7218  1.1268  1.4711
 7251TIP3    H243245   6.277   4.637  14.586  1.1141 -2.3088  1.9313
 7252TIP3   OH243246   5.542   3.563  13.117 -0.0987  0.1539  0.2660
 7252TIP3    H143247   5.542   3.473  13.149 -2.1007  0.7408  2.0075
 7252TIP3    H243248   5.583   3.614  13.188  0.1928  0.7341 -0.3106
 7253TIP3   OH243249   6.686   4.000   4.842  0.2626 -0.0860  0.0501
 7253TIP3    H143250   6.638   3.970   4.765 -0.6882 -1.2076  1.0453
 7253TIP3    H243251   6.634   3.968   4.916  1.4186  0.5468  1.1585
 7254TIP3   OH243252   3.560   5.404  11.661 -0.1303 -0.5573  0.0536
 7254TIP3    H143253   3.612   5.480  11.687 -0.7770 -0.1593  0.1850
 7254TIP3    H243254   3.552   5.412  11.566  0.4175 -0.8606 -0.0236
 7255TIP3   OH243255   4.381   2.054  11.622  0.2265  0.2848 -0.3548
 7255TIP3    H143256   4.469   2.019  11.607 -0.3562 -0.5833 -1.8943
 7255TIP3    H243257   4.354   2.015  11.705  0.3351 -1.4718 -1.1006
 7256TIP3   OH243258   3.031   1.020  11.974 -0.2904  0.1751 -0.5213
 7256TIP3    H143259   3.105   0.987  11.923  0.1969  1.6099 -0.7586
 7256TIP3    H243260   3.036   0.973  12.057  1.6512  1.1481 -0.0391
 7257TIP3   OH243261   4.677   6.449   2.658 -0.0382 -0.2672 -0.1030
 7257TIP3    H143262   4.608   6.512   2.679 -0.4903 -0.7102 -0.2666
 7257TIP3    H243263   4.702   6.411   2.743 -1.0360 -1.1890 -0.2144
 7258TIP3   OH243264   5.790   1.400  13.078  0.8065  0.3748  0.4769
 7258TIP3    H143265   5.786   1.494  13.058  1.7696  0.1942 -0.6588
 7258TIP3    H243266   5.710   1.364  13.038  0.3774  0.7265  1.0153
 7259TIP3   OH243267   4.081   2.639  16.431 -0.3335 -0.3125  0.0377
 7259TIP3    H143268   4.089   2.560  16.484 -1.3169  1.0543  2.2832
 7259TIP3    H243269   4.034   2.610  16.352 -0.1135 -2.0779  0.5244
 7260TIP3   OH243270   0.033   5.297   4.416 -0.6801 -0.3281  0.2269
 7260TIP3    H143271   0.062   5.227   4.474  0.8507 -0.3618 -0.5450
 7260TIP3    H243272  -0.014   5.252   4.346 -1.2813 -0.4154  0.6842
 7261TIP3   OH243273   0.999   3.168   5.948  0.3093  0.1385  0.2617
 7261TIP3    H143274   1.038   3.169   5.861  1.1925  2.3389  0.6515
 7261TIP3    H243275   0.905   3.179   5.932  0.4723  0.5809 -0.4083
 7262TIP3   OH243276   0.232   1.575  13.771  0.4500  0.2317 -0.5162
 7262TIP3    H143277   0.174   1.533  13.707 -0.5414  0.8083 -0.0072
 7262TIP3    H243278   0.269   1.650  13.724  2.8387 -1.6059 -1.6834
 7263TIP3   OH243279   2.901   1.932  16.958 -0.2334 -0.1443 -0.1116
 7263TIP3    H143280   2.920   1.953  16.867  0.5354 -2.1125 -0.4121
 7263TIP3    H243281   2.809   1.907  16.959 -0.2617 -0.0469 -0.3193
 7264TIP3   OH243282   5.270   5.932  14.299  0.2350 -0.3304 -0.2287
 7264TIP3    H143283   5.312   5.846  14.286 -1.1238 -1.3003  1.4877
 7264TIP3    H243284   5.272   5.973  14.213  4.8983 -0.2370 -0.1730
 7265TIP3   OH243285   5.105   5.795  12.879  0.4489 -0.4020  0.1862
 7265TIP3    H143286   5.165   5.776  12.951  0.9329 -0.2603 -0.1812
 7265TIP3    H243287   5.065   5.710  12.859  0.7108 -0.5431  0.2594
 7266TIP3   OH243288   1.235   4.970   6.299  0.0869 -0.5820 -1.1039
 7266TIP3    H143289   1.330   4.980   6.310 -0.0670 -1.6422  1.5425
 7266TIP3    H243290   1.220   4.876   6.312 -1.4603 -0.2311 -0.2593
 7267TIP3   OH243291   6.482   2.431   6.294  0.0678  0.5462  0.5866
 7267TIP3    H143292   6.487   2.524   6.316  1.9419  0.3353  1.0698
 7267TIP3    H243293   6.494   2.386   6.378  1.5611 -0.1641 -0.0053
 7268TIP3   OH243294   5.788   0.524   1.295  0.0353  0.3822  0.2937
 7268TIP3    H143295   5.735   0.450   1.323  0.7173 -0.1987  0.0730
 7268TIP3    H243296   5.761   0.597   1.351 -1.3609  0.2257 -0.1703
 7269TIP3   OH243297   3.103   6.208  13.885  0.6097  0.1178  0.2807
 7269TIP3    H143298   3.160   6.170  13.818  2.0112  0.6798  1.1372
 7269TIP3    H243299   3.021   6.225  13.839  1.6336  0.7625 -1.3699
 7270TIP3   OH243300   0.865   6.252  15.666 -0.0053  0.7478 -0.2527
 7270TIP3    H143301   0.796   6.185  15.665  1.2325 -0.5455 -2.3662
 7270TIP3    H243302   0.932   6.217  15.724  0.4810  0.3160 -1.0708
 7271TIP3   OH243303   1.431   4.077  17.275 -0.6845 -0.0663 -0.5419
 7271TIP3    H143304   1.478   4.140  17.330 -1.2158 -0.0693 -0.0840
 7271TIP3    H243305   1.497   4.012  17.253 -0.6219 -0.4219  0.6406
 7272TIP3   OH243306   1.077   6.147  14.725  0.0709  0.6059 -0.7435
 7272TIP3    H143307   1.150   6.103  14.769 -0.0361  0.9624 -0.2104
 7272TIP3    H243308   1.080   6.237  14.758 -1.5533  0.2307  0.4685
 7273TIP3   OH243309   6.142   6.551   3.477  0.9456 -0.0622 -0.2739
 7273TIP3    H143310   6.186   6.494   3.414 -1.1459 -1.0692 -0.8566
 7273TIP3    H243311   6.105   6.621   3.423  0.8240  0.1530  0.0871
 7274TIP3   OH243312   3.140   2.518  12.130  0.6362  0.0800 -0.4060
 7274TIP3    H143313   3.117   2.610  12.119 -0.8210 -0.1304  0.8252
 7274TIP3    H243314   3.070   2.470  12.086  0.8140 -0.4690 -0.0940
 7275TIP3   OH243315   5.710   0.526   4.099 -0.5669  0.3987  0.3036
 7275TIP3    H143316   5.713   0.484   4.185  1.5262  1.4878  0.7862
 7275TIP3    H243317   5.757   0.465   4.041 -0.6057  0.4129  0.2571
 7276TIP3   OH243318   5.999   0.890   2.437  0.1082 -0.0661  0.5486
 7276TIP3    H143319   6.068   0.837   2.477  1.8228  1.1950 -0.6622
 7276TIP3    H243320   5.936   0.827   2.404  0.7739 -1.2527  1.5132
 7277TIP3   OH243321   5.273   3.779   5.510  0.0268  0.2942  0.1647
 7277TIP3    H143322   5.341   3.808   5.570  0.8266 -0.8926 -0.1519
 7277TIP3    H243323   5.258   3.854   5.452  1.6678  0.2848 -0.2938
 7278TIP3   OH243324   0.916   1.820  11.893 -0.4810 -0.0134  0.4006
 7278TIP3    H143325   0.948   1.767  11.819  1.1488  0.5621  0.6848
 7278TIP3    H243326   0.829   1.783  11.912  0.5270 -2.4851  0.4624
 7279TIP3   OH243327   4.890   5.326   1.906  0.1652  0.5849  0.2153
 7279TIP3    H143328   4.801   5.293   1.898 -0.0322  0.0437  3.7706
 7279TIP3    H243329   4.945   5.261   1.862 -1.1558  0.9752 -2.0766
 7280TIP3   OH243330   4.002   2.088   0.596 -0.0591 -0.0448 -0.2242
 7280TIP3    H143331   4.075   2.113   0.652 -0.6026  0.2817  0.3555
 7280TIP3    H243332   4.003   2.152   0.525 -0.6011  0.7988  0.5129
 7281TIP3   OH243333   0.926   3.235   6.292  0.2883 -0.4687 -0.2225
 7281TIP3    H143334   1.020   3.242   6.304  0.1037  1.4054  0.1922
 7281TIP3    H243335   0.889   3.244   6.380 -0.3863  0.8714 -0.6300
 7282TIP3   OH243336   5.201   3.483  13.384 -0.6632  0.1946 -0.9029
 7282TIP3    H143337   5.132   3.417  13.373  0.1135 -0.8629  0.3631
 7282TIP3    H243338   5.154   3.566  13.393 -1.7990 -0.5697  0.4150
 7283TIP3   OH243339   1.937   2.946   1.350 -0.1774 -0.2444 -0.3355
 7283TIP3    H143340   2.008   2.883   1.361  0.6146  0.9588  1.6948
 7283TIP3    H243341   1.873   2.922   1.418 -1.8024 -1.3951 -2.2267
 7284TIP3   OH243342   0.889   3.790  14.085  0.0269  0.4478 -0.4312
 7284TIP3    H143343   0.968   3.774  14.137  0.5201 -1.3188 -1.6856
 7284TIP3    H243344   0.827   3.828  14.147  1.5948  1.1699  0.7492
 7285TIP3   OH243345   2.499   0.999  14.505  0.4524  0.1847  0.1785
 7285TIP3    H143346   2.531   1.089  14.505 -1.6020  0.9445 -0.8722
 7285TIP3    H243347   2.413   1.004  14.464  0.1145 -2.1975  0.5228
 7286TIP3   OH243348   6.169   4.761   5.550  0.5082  0.5141  0.0369
 7286TIP3    H143349   6.179   4.835   5.610  0.5556 -1.3865  2.4707
 7286TIP3    H243350   6.252   4.714   5.556 -0.4747 -1.1904  0.5981
 7287TIP3   OH243351   2.895   5.324   5.344 -0.2547 -0.4146  0.7411
 7287TIP3    H143352   2.822   5.347   5.402 -0.2981 -1.0793  0.9518
 7287TIP3    H243353   2.971   5.322   5.401  0.1739  1.5941  0.2861
 7288TIP3   OH243354   6.606   4.442   4.940 -0.6007  0.0617 -0.1267
 7288TIP3    H143355   6.563   4.357   4.943 -0.6054  0.0785  0.2479
 7288TIP3    H243356   6.595   4.479   5.027 -0.5502  0.4228 -0.2689
 7289TIP3   OH243357   0.841   2.219  14.187  0.0025  0.4990 -0.2934
 7289TIP3    H143358   0.759   2.265  14.170  0.1308  0.3024 -1.4995
 7289TIP3    H243359   0.857   2.169  14.107  0.6938 -0.3805  0.3867
 7290TIP3   OH243360   3.999   6.505   0.770 -0.1474  0.2299  0.1444
 7290TIP3    H143361   4.067   6.555   0.815 -1.4521  2.0179  0.1608
 7290TIP3    H243362   3.980   6.555   0.692 -1.3181 -0.3668  0.0420
 7291TIP3   OH243363   4.752   4.091   5.825 -0.1710  0.3299  0.8817
 7291TIP3    H143364   4.740   4.006   5.867  0.0273  0.1858  0.6438
 7291TIP3    H243365   4.841   4.089   5.790 -0.1636  0.6358  0.8769
 7292TIP3   OH243366   5.485   6.808  16.581  0.2143 -0.2448  0.0620
 7292TIP3    H143367   5.414   6.746  16.595 -0.5068  0.4255 -0.5882
 7292TIP3    H243368   5.515   6.791  16.492  0.8759 -0.5235  0.3322
 7293TIP3   OH243369   5.022   0.530  11.516 -0.4518 -0.1829  0.1342
 7293TIP3    H143370   5.101   0.566  11.476  0.0946  0.5648  1.8538
 7293TIP3    H243371   5.048   0.505  11.605 -1.6388 -1.8427  0.0382
 7294TIP3   OH243372   5.775   5.740   5.478 -0.2477 -0.1867  0.2351
 7294TIP3    H143373   5.755   5.648   5.465 -0.0073 -0.0543 -1.1344
 7294TIP3    H243374   5.818   5.768   5.397 -0.3949  1.1424  0.5901
 7295TIP3   OH243375   4.626   1.052   2.799 -0.0626  0.0065  0.0320
 7295TIP3    H143376   4.679   0.972   2.794  2.6245  1.5993  1.9563
 7295TIP3    H243377   4.656   1.106   2.727  0.7717  0.7973  0.9597
 7296TIP3   OH243378   2.786   3.065   5.977  0.5762  0.2740 -0.7182
 7296TIP3    H143379   2.848   3.013   5.926  0.9854  0.2563 -0.2029
 7296TIP3    H243380   2.739   3.001   6.030  1.7967  0.5050  0.6935
 7297TIP3   OH243381   5.009   6.504  12.940  0.5855  0.2824  0.0607
 7297TIP3    H143382   5.012   6.495  13.035 -0.5762 -3.2406 -0.1588
 7297TIP3    H243383   4.925   6.546  12.922  1.4646  2.3491  0.6181
 7298TIP3   OH243384   2.267   2.618   4.012 -0.8100  0.5979  0.3427
 7298TIP3    H143385   2.263   2.533   4.056 -0.4378  1.3944  1.9493
 7298TIP3    H243386   2.235   2.601   3.923  1.7659 -1.7407 -0.1921
 7299TIP3   OH243387   1.661   2.974   3.437  0.2098 -0.4821  0.1168
 7299TIP3    H143388   1.658   3.060   3.395  2.0877 -0.6673 -0.4438
 7299TIP3    H243389   1.636   2.990   3.528  2.3051  0.9736  0.4695
 7300TIP3   OH243390   4.539   2.906  14.411 -0.4642  0.6521 -0.3109
 7300TIP3    H143391   4.587   2.945  14.338  0.0296  0.6650  0.0221
 7300TIP3    H243392   4.490   2.834  14.372 -0.6985  1.0579 -0.7706
 7301TIP3   OH243393   3.027   4.883  16.755  0.0608  0.3628  0.0394
 7301TIP3    H143394   3.111   4.920  16.781 -0.0035  1.0303 -0.6779
 7301TIP3    H243395   3.033   4.791  16.777  1.0132  0.3916 -0.0936
 7302TIP3   OH243396   6.181   2.269  14.577 -0.2852 -0.3166  0.2936
 7302TIP3    H143397   6.201   2.344  14.520 -0.4177 -0.7592 -0.3508
 7302TIP3    H243398   6.145   2.203  14.517 -0.6759 -0.6928  0.9420
 7303TIP3   OH243399   6.715   4.859   5.631  0.1587  0.4591  0.9364
 7303TIP3    H143400   6.667   4.860   5.713  1.0738 -0.5764  1.4840
 7303TIP3    H243401   6.764   4.941   5.631 -0.4784  0.8428  1.0386
 7304TIP3   OH243402   6.619   1.662   1.554  0.0777 -0.1973  0.1256
 7304TIP3    H143403   6.538   1.639   1.507  0.2466  1.0415 -0.7998
 7304TIP3    H243404   6.664   1.579   1.568 -0.9086 -0.7886 -0.1886
 7305TIP3   OH243405   0.477   4.079  14.344 -0.2624 -0.1023 -0.1351
 7305TIP3    H143406   0.429   4.065  14.263  1.2184 -3.1794 -0.5602
 7305TIP3    H243407   0.418   4.046  14.412 -0.5979  0.3924 -0.1853
 7306TIP3   OH243408   5.030   5.956   0.489  0.5865  0.5528  0.6227
 7306TIP3    H143409   5.008   5.939   0.398  0.3078  0.6470  0.6729
 7306TIP3    H243410   5.108   6.011   0.485  2.4033 -1.9334  0.4672
 7307TIP3   OH243411   1.040   6.392   3.222  0.7458  0.0349  0.0846
 7307TIP3    H143412   1.000   6.357   3.302 -1.2723  2.2769  0.1299
 7307TIP3    H243413   1.133   6.371   3.230  0.3779 -0.8825  2.4213
 7308TIP3   OH243414   5.860   0.511  17.038  0.9510 -0.3678 -0.2932
 7308TIP3    H143415   5.882   0.604  17.027 -1.7791  0.2555 -1.0008
 7308TIP3    H243416   5.935   0.464  17.001  1.1634  1.6011 -2.4816
 7309TIP3   OH243417   0.614   4.600  10.617  0.2478  0.1046 -0.1532
 7309TIP3    H143418   0.685   4.664  10.616 -0.3791  0.8056  0.3762
 7309TIP3    H243419   0.561   4.620  10.541 -1.9975  2.5399  1.9603
 7310TIP3   OH243420   5.243   0.384   1.206 -0.1474 -0.4519  0.4244
 7310TIP3    H143421   5.269   0.298   1.173 -0.2387 -0.4334  0.2989
 7310TIP3    H243422   5.263   0.382   1.299 -1.4589 -1.1218  0.7097
 7311TIP3   OH243423   5.192   0.146  16.498 -0.1288 -0.7848  0.2769
 7311TIP3    H143424   5.145   0.082  16.445 -2.4629  0.1145  1.2110
 7311TIP3    H243425   5.250   0.093  16.553  1.2295 -1.8025 -2.0525
 7312TIP3   OH243426   3.076   5.231   5.739  0.1278 -0.2107 -0.0538
 7312TIP3    H143427   2.998   5.175   5.745  0.4124 -0.3512  3.2015
 7312TIP3    H243428   3.041   5.320   5.739 -0.1025 -0.2881  0.7976
 7313TIP3   OH243429   3.579   3.085   5.824 -0.0808 -0.1192 -0.5572
 7313TIP3    H143430   3.564   2.990   5.827 -0.0913 -0.0779  0.9845
 7313TIP3    H243431   3.618   3.106   5.909 -1.1840  1.4447 -0.4144
 7314TIP3   OH243432   5.658   3.564  14.650 -0.8284  0.2456 -0.0388
 7314TIP3    H143433   5.687   3.637  14.704 -0.3374 -0.1603  0.2608
 7314TIP3    H243434   5.648   3.600  14.563 -0.7716  0.7092  0.1473
 7315TIP3   OH243435   1.153   0.183  16.685 -0.3091  0.1943 -0.1030
 7315TIP3    H143436   1.118   0.200  16.772  1.5808 -1.2547  0.9978
 7315TIP3    H243437   1.202   0.262  16.663 -0.1757  0.2751  0.4761
 7316TIP3   OH243438   3.250   0.532   1.275  0.2019  0.3492  0.3348
 7316TIP3    H143439   3.182   0.479   1.234  0.5443 -0.7944  1.2158
 7316TIP3    H243440   3.304   0.562   1.202 -0.0098 -0.5115 -0.1828
 7317TIP3   OH243441   6.368   4.608  17.194 -0.4819 -0.1152  0.0874
 7317TIP3    H143442   6.399   4.620  17.284 -1.5419  2.6716  0.1198
 7317TIP3    H243443   6.447   4.619  17.140  0.1015 -1.5189  0.6360
 7318TIP3   OH243444   4.472   1.419  14.951  0.6405 -0.1097 -0.3507
 7318TIP3    H143445   4.471   1.451  15.041 -0.6131 -1.2962  0.0821
 7318TIP3    H243446   4.418   1.481  14.902  1.8864  0.9194 -0.4305
 7319TIP3   OH243447   2.320   0.991  13.822  0.3450 -0.4879  0.2048
 7319TIP3    H143448   2.285   1.051  13.889  0.5518 -0.8902  0.6753
 7319TIP3    H243449   2.285   1.025  13.740  0.3509  0.2057  0.4795
 7320TIP3   OH243450   2.323   5.017  13.008 -0.2150 -0.3944  0.1883
 7320TIP3    H143451   2.385   5.085  13.034 -2.4080  1.9756 -0.6130
 7320TIP3    H243452   2.254   5.063  12.961 -0.7136 -3.4657 -2.2968
 7321TIP3   OH243453   3.275   4.909   2.386  0.1607 -0.0876 -0.0137
 7321TIP3    H143454   3.260   4.985   2.329  0.3483 -0.9145 -1.1784
 7321TIP3    H243455   3.309   4.842   2.328 -0.5950 -1.2759  0.8935
 7322TIP3   OH243456   3.507   3.744  14.572 -0.4944  0.2416  0.0488
 7322TIP3    H143457   3.537   3.818  14.624 -0.0559 -0.1262  0.3236
 7322TIP3    H243458   3.576   3.678  14.581 -0.4574  0.1374 -0.9177
 7323TIP3   OH243459   3.215   0.589   0.081  0.2250 -0.4292 -0.5572
 7323TIP3    H143460   3.175   0.523   0.137  2.6901 -0.0481  1.7687
 7323TIP3    H243461   3.256   0.539   0.010 -1.7608 -1.0098 -1.3452
 7324TIP3   OH243462   2.810   6.528  15.336 -0.6025 -0.4140 -0.3285
 7324TIP3    H143463   2.796   6.508  15.243 -1.1976 -0.3643 -0.2520
 7324TIP3    H243464   2.905   6.520  15.349 -0.4369  0.2454 -1.0938
 7325TIP3   OH243465   3.973   3.902  12.037  0.1372 -0.4137 -0.3081
 7325TIP3    H143466   3.982   3.992  12.005 -0.2554 -0.7718 -1.4522
 7325TIP3    H243467   3.903   3.865  11.985 -0.4216 -1.0735  0.8943
 7326TIP3   OH243468   5.790   5.288  14.243 -0.7206  0.2528  0.2004
 7326TIP3    H143469   5.810   5.265  14.153 -0.1341 -0.9940  0.6299
 7326TIP3    H243470   5.704   5.331  14.239 -1.2676 -0.8975 -0.7998
 7327TIP3   OH243471   0.745   5.557  14.498 -0.1299 -0.0605  0.2638
 7327TIP3    H143472   0.707   5.475  14.529 -0.4735 -0.0398 -0.1071
 7327TIP3    H243473   0.737   5.617  14.572  1.3622 -0.7519  1.0185
 7328TIP3   OH243474   5.933   1.947  15.204 -0.2942  0.2586  0.2254
 7328TIP3    H143475   6.004   1.882  15.213  0.0653  0.6260  0.0576
 7328TIP3    H243476   5.891   1.948  15.290  0.9903  1.2902  0.8597
 7329TIP3   OH243477   0.932   0.192  11.264 -0.3186 -0.1233 -0.0251
 7329TIP3    H143478   1.019   0.226  11.281 -0.2006 -0.4682  0.0553
 7329TIP3    H243479   0.874   0.266  11.281 -0.1232 -0.1603  0.8402
 7330TIP3   OH243480   4.757   0.445  12.030  0.3358 -0.1949  0.8217
 7330TIP3    H143481   4.663   0.454  12.040  0.4572  1.8524  0.3815
 7330TIP3    H243482   4.772   0.441  11.936  0.6268 -1.4097  0.9109
 7331TIP3   OH243483   6.820   4.396   2.668 -0.2585 -0.3146 -0.5800
 7331TIP3    H143484   6.846   4.379   2.759 -3.6824  1.1207  0.7521
 7331TIP3    H243485   6.878   4.466   2.639 -1.1145  1.3497  1.5843
 7332TIP3   OH243486   3.675   5.642   2.570  1.2428  0.3128 -0.2675
 7332TIP3    H143487   3.771   5.648   2.572  1.3240 -1.2388  1.7469
 7332TIP3    H243488   3.647   5.675   2.655 -0.0659  1.0950 -0.9838
 7333TIP3   OH243489   3.066   3.999  12.673  0.1839  0.0419  0.3213
 7333TIP3    H143490   3.044   4.073  12.730  0.2532 -0.4096  0.9381
 7333TIP3    H243491   2.989   3.989  12.616  1.0495  1.9560 -1.2421
 7334TIP3   OH243492   2.508   4.119   2.213 -0.3278 -0.5859  0.7534
 7334TIP3    H143493   2.436   4.110   2.276 -1.1294 -1.8333 -0.3017
 7334TIP3    H243494   2.542   4.030   2.203  0.1944 -0.2989 -0.0977
 7335TIP3   OH243495   4.914   1.907  12.823 -0.3226 -0.2122  0.4006
 7335TIP3    H143496   4.967   1.877  12.749 -0.5558  1.0883 -0.3158
 7335TIP3    H243497   4.978   1.934  12.889 -0.1044  0.0904  0.0660
 7336TIP3   OH243498   6.522   3.275   0.584  0.4126 -0.6283 -0.2249
 7336TIP3    H143499   6.540   3.194   0.536 -1.1492  0.1624 -2.2461
 7336TIP3    H243500   6.438   3.258   0.626  1.0198 -0.7377  0.9587
 7337TIP3   OH243501   0.319   2.298   2.883 -0.2634 -0.6414 -0.1535
 7337TIP3    H143502   0.376   2.366   2.848 -1.5160  0.1274 -0.7702
 7337TIP3    H243503   0.242   2.345   2.914  0.0271 -1.5022  1.9953
 7338TIP3   OH243504   1.870   2.887  12.713 -0.0207 -0.1898  0.2398
 7338TIP3    H143505   1.850   2.969  12.668 -1.2211 -0.7732 -0.3217
 7338TIP3    H243506   1.788   2.837  12.709  0.9728 -1.8088 -0.2840
 7339TIP3   OH243507   0.061   5.594   5.983 -0.2791  0.2911 -0.6969
 7339TIP3    H143508   0.100   5.612   6.069  1.4958  2.4014 -1.9152
 7339TIP3    H243509   0.135   5.585   5.924 -1.4922 -1.0256 -2.0636
 7340TIP3   OH243510   5.051   5.834  13.267 -0.3274  0.1860  0.0648
 7340TIP3    H143511   4.980   5.781  13.303 -0.4170  1.3832  1.7276
 7340TIP3    H243512   5.099   5.774  13.210 -2.6639 -0.6405 -1.1262
 7341TIP3   OH243513   3.969   2.282  12.332  0.6148  0.3268  0.0551
 7341TIP3    H143514   3.997   2.281  12.241  0.3910 -0.2662 -0.0080
 7341TIP3    H243515   3.873   2.283  12.328  0.5815 -0.8787  0.2793
 7342TIP3   OH243516   2.521   3.885   0.475  0.1920  0.1301  0.2368
 7342TIP3    H143517   2.573   3.952   0.432  1.0610 -0.3852  0.4605
 7342TIP3    H243518   2.468   3.932   0.539 -0.0151  0.7240 -0.3758
 7343TIP3   OH243519   3.625   4.311  11.113 -0.1283 -0.0694  0.0679
 7343TIP3    H143520   3.679   4.232  11.117  0.4745  0.3447  0.0292
 7343TIP3    H243521   3.555   4.288  11.052  0.8884 -0.0607 -1.1206
 7344TIP3   OH243522   1.310   3.329  16.651  0.0281 -0.2452 -0.1333
 7344TIP3    H143523   1.225   3.315  16.692 -0.4376  1.9965 -0.3000
 7344TIP3    H243524   1.357   3.386  16.711  0.8040 -0.1494 -0.8230
 7345TIP3   OH243525   4.890   6.399  13.736 -0.5455  0.0441  0.0940
 7345TIP3    H143526   4.979   6.406  13.773 -0.5719 -0.9153  0.3410
 7345TIP3    H243527   4.833   6.387  13.812 -0.8225  0.0475 -0.1118
 7346TIP3   OH243528   6.489   3.604   1.925  0.7555 -0.0085 -0.4222
 7346TIP3    H143529   6.400   3.575   1.907  0.6498 -0.0320  0.1424
 7346TIP3    H243530   6.542   3.566   1.855  0.2661  0.2985 -0.9569
 7347TIP3   OH243531   4.735   2.940   0.034  0.3213 -0.4256 -0.0614
 7347TIP3    H143532   4.750   2.846   0.045  0.5024 -0.4903 -0.8253
 7347TIP3    H243533   4.644   2.953   0.061  0.9497 -0.4530  2.1813
 7348TIP3   OH243534   2.450   1.912   4.109  0.7599  0.2308  0.4571
 7348TIP3    H143535   2.542   1.938   4.110  0.7719  0.1662  0.8763
 7348TIP3    H243536   2.440   1.856   4.186  0.2747  0.5552  0.6292
 7349TIP3   OH243537   4.691   2.273   2.259 -0.1525  0.4487  0.5269
 7349TIP3    H143538   4.679   2.203   2.195 -0.9412  1.1597 -0.1085
 7349TIP3    H243539   4.614   2.269   2.315 -0.4523  1.1524  0.1640
 7350TIP3   OH243540   1.047   6.640  15.272  0.4737 -0.2678  0.1319
 7350TIP3    H143541   1.075   6.721  15.314 -0.7196  0.9220 -1.3177
 7350TIP3    H243542   1.063   6.653  15.179  1.1349 -2.0634 -0.0356
 7351TIP3   OH243543   5.431   3.192  13.816 -0.6261 -0.0075 -0.3570
 7351TIP3    H143544   5.345   3.183  13.777 -0.9410  0.0756  0.3090
 7351TIP3    H243545   5.483   3.238  13.750 -1.1681  0.1841 -0.6506
 7352TIP3   OH243546   2.541   3.748  13.936 -0.0440  0.3159 -0.1696
 7352TIP3    H143547   2.598   3.692  13.989 -0.8947  0.5008  0.9532
 7352TIP3    H243548   2.582   3.749  13.850  1.6966  0.5060  0.6508
 7353TIP3   OH243549   5.224   4.261  14.067 -0.2672 -0.4926  0.4650
 7353TIP3    H143550   5.285   4.228  14.001 -1.6989 -2.3656  0.0330
 7353TIP3    H243551   5.140   4.265  14.022 -0.6250  1.4472  1.2425
 7354TIP3   OH243552   3.807   1.672  11.619 -0.2231  0.2274  0.1555
 7354TIP3    H143553   3.752   1.600  11.588 -1.1188  0.6800  0.6651
 7354TIP3    H243554   3.877   1.679  11.555 -0.5353 -0.6298 -0.2816
 7355TIP3   OH243555   3.216   1.752  14.189 -0.4664  0.5091 -0.4590
 7355TIP3    H143556   3.123   1.749  14.166 -0.2768 -1.3249 -1.1047
 7355TIP3    H243557   3.248   1.835  14.154 -1.4955  0.4028 -1.6486
 7356TIP3   OH243558   5.943   0.548  14.911 -0.5268  0.0214 -0.5062
 7356TIP3    H143559   5.957   0.623  14.853  0.8371 -0.7477 -1.2044
 7356TIP3    H243560   5.917   0.477  14.852  0.8854 -0.7694 -0.2138
 7357TIP3   OH243561   4.415   4.948  12.952 -0.2341  0.3954  0.3562
 7357TIP3    H143562   4.487   4.965  12.891 -0.2129 -0.0401  0.2549
 7357TIP3    H243563   4.344   4.914  12.897  0.2940 -1.4015  0.7527
 7358TIP3   OH243564   6.374   1.555   1.409  0.4163  0.1559 -0.1252
 7358TIP3    H143565   6.381   1.555   1.314  0.3721 -0.4427 -0.1311
 7358TIP3    H243566   6.328   1.474   1.430  0.9266  0.0103  0.4423
 7359TIP3   OH243567   0.015   3.740   2.925 -0.7780 -0.3622  0.2528
 7359TIP3    H143568   0.065   3.822   2.930 -1.0789  0.1810 -4.0945
 7359TIP3    H243569   0.082   3.673   2.906 -1.0447 -0.4239 -0.4929
 7360TIP3   OH243570   5.341   1.309   3.642  0.5101 -0.1487  1.0956
 7360TIP3    H143571   5.330   1.390   3.690 -0.3444 -1.4676  3.1644
 7360TIP3    H243572   5.355   1.337   3.551 -0.4873  2.2557  1.6500
 7361TIP3   OH243573   4.170   3.722  15.858 -0.1015 -0.2202 -0.0355
 7361TIP3    H143574   4.136   3.733  15.769  0.3880  2.1959  0.0539
 7361TIP3    H243575   4.250   3.671  15.847 -0.3856 -0.4859 -0.9169
 7362TIP3   OH243576   0.006   5.597  13.586 -0.2266 -0.4074 -0.2280
 7362TIP3    H143577   0.071   5.667  13.589  1.4958 -2.0439  2.9175
 7362TIP3    H243578  -0.069   5.632  13.635 -0.3036  0.0852 -0.6861
 7363TIP3   OH243579   3.165   6.723  13.565 -0.0834 -0.1873  0.5706
 7363TIP3    H143580   3.179   6.664  13.491 -0.7715 -0.3126  0.5377
 7363TIP3    H243581   3.111   6.793  13.530 -2.1820 -1.3185  1.4569
 7364TIP3   OH243582   1.391   5.355   6.088 -0.3784 -0.3779 -0.4611
 7364TIP3    H143583   1.343   5.438   6.088 -1.0561 -0.7733 -0.5736
 7364TIP3    H243584   1.482   5.381   6.076 -0.5370  0.3839 -0.0677
 7365TIP3   OH243585   6.372   4.844  11.531  0.5559  0.3886  0.8493
 7365TIP3    H143586   6.411   4.769  11.576  0.9159 -0.2242 -0.4632
 7365TIP3    H243587   6.288   4.811  11.499  0.1315  0.9355  1.4049
 7366TIP3   OH243588   4.751   2.005   3.689 -0.0729 -0.3720  0.0372
 7366TIP3    H143589   4.785   1.949   3.619  0.7213 -0.3665  0.4125
 7366TIP3    H243590   4.799   2.087   3.681 -1.3247  0.3165 -0.5842
 7367TIP3   OH243591   1.143   3.668   3.222 -0.1828 -0.2567  0.5875
 7367TIP3    H143592   1.123   3.715   3.303 -2.2510 -1.2261  0.6620
 7367TIP3    H243593   1.073   3.693   3.161  1.1079  0.1260 -0.7726
 7368TIP3   OH243594   4.021   5.606  14.102 -0.0279 -0.0624  0.3339
 7368TIP3    H143595   4.079   5.682  14.107  0.2833 -0.3246  0.7392
 7368TIP3    H243596   4.014   5.574  14.192 -0.5467 -0.2247  0.2383
 7369TIP3   OH243597   0.212   0.752  12.011 -0.5440  0.0697  0.1191
 7369TIP3    H143598   0.230   0.688  12.080 -1.1084 -0.2328 -0.0117
 7369TIP3    H243599   0.279   0.735  11.944  0.6976  1.0834  1.0649
 7370TIP3   OH243600   1.014   3.395   2.660  0.3120  0.2596  0.0438
 7370TIP3    H143601   0.947   3.332   2.633 -0.7115  1.5015 -0.3454
 7370TIP3    H243602   1.096   3.359   2.626 -0.4130 -0.2835 -1.1462
 7371TIP3   OH243603   1.217   2.674   0.229  0.1527  0.0953  0.4613
 7371TIP3    H143604   1.243   2.760   0.194 -0.1637  0.2168  0.5204
 7371TIP3    H243605   1.148   2.645   0.170 -1.2467  0.8495  1.6744
 7372TIP3   OH243606   0.858   2.489  12.245 -0.2325 -0.4584 -0.3194
 7372TIP3    H143607   0.865   2.410  12.300  0.3637  0.2651  0.6581
 7372TIP3    H243608   0.764   2.497  12.228 -0.1360 -2.3452 -1.8710
 7373TIP3   OH243609   1.339   2.336   0.639 -0.0599  0.3324 -0.5580
 7373TIP3    H143610   1.423   2.289   0.638 -0.7837 -0.9732 -0.7997
 7373TIP3    H243611   1.316   2.343   0.546 -1.8542 -2.3164 -0.3672
 7374TIP3   OH243612   1.581   3.273  13.208  0.8649  0.1196 -0.1310
 7374TIP3    H143613   1.657   3.298  13.262  1.2444 -0.4948 -0.3717
 7374TIP3    H243614   1.534   3.209  13.261  0.5482  0.4585 -0.0062
 7375TIP3   OH243615   1.451   2.143   5.224 -0.1510 -0.1006  0.1432
 7375TIP3    H143616   1.486   2.062   5.260  1.0788 -0.2161 -1.2390
 7375TIP3    H243617   1.515   2.168   5.157  0.2497  2.7452  1.4966
 7376TIP3   OH243618   5.927   2.379   5.786  0.0798  0.1445 -0.2110
 7376TIP3    H143619   6.002   2.416   5.740  1.1116 -1.0953  0.4445
 7376TIP3    H243620   5.883   2.324   5.721  0.5961 -0.3001 -0.1914
 7377TIP3   OH243621   2.468   1.292  14.453 -0.2732 -0.3062  0.2877
 7377TIP3    H143622   2.487   1.386  14.456 -1.4164 -0.1071  2.6303
 7377TIP3    H243623   2.384   1.283  14.497  0.7547 -2.6446  1.8905
 7378TIP3   OH243624   1.889   4.768   4.972  0.1940  0.3246 -0.7050
 7378TIP3    H143625   1.941   4.696   5.006  1.0621  0.9503 -0.6930
 7378TIP3    H243626   1.846   4.732   4.894  0.1752 -0.3717 -0.3668
 7379TIP3   OH243627   2.268   3.460   5.995 -0.4597  0.0585  0.4905
 7379TIP3    H143628   2.258   3.433   6.086 -0.4424 -0.3302  0.3788
 7379TIP3    H243629   2.320   3.540   6.000 -1.4656  0.6954  0.8938
 7380TIP3   OH243630   2.254   4.287  16.368 -0.1578  0.0551 -0.2822
 7380TIP3    H143631   2.196   4.349  16.324 -0.6989  1.6871  2.5895
 7380TIP3    H243632   2.335   4.336  16.382  0.7754 -1.1512 -1.3383
 7381TIP3   OH243633   4.730   5.581  12.296 -0.5536  0.1482 -0.6697
 7381TIP3    H143634   4.776   5.649  12.247 -1.2570  0.1245 -1.3660
 7381TIP3    H243635   4.647   5.569  12.249 -0.8019 -0.5806 -0.0534
 7382TIP3   OH243636   2.068   1.391   3.267  0.5117 -0.6204 -0.2115
 7382TIP3    H143637   2.053   1.483   3.246 -2.6036 -0.6519  1.6278
 7382TIP3    H243638   1.987   1.347   3.242  1.1130 -2.5062  1.0406
 7383TIP3   OH243639   2.331   2.999  16.668  0.1225 -0.1908 -0.2886
 7383TIP3    H143640   2.277   3.071  16.701  1.5798  0.3829  0.8874
 7383TIP3    H243641   2.321   3.003  16.573 -0.8808  0.7222 -0.1530
 7384TIP3   OH243642   2.123   3.040   0.323 -0.2290  0.0590 -0.2199
 7384TIP3    H143643   2.097   3.063   0.412  0.3321 -0.1240 -0.0057
 7384TIP3    H243644   2.138   2.946   0.326  0.2667  0.1312 -0.3863
 7385TIP3   OH243645   5.089   1.942  14.984  0.5280  0.8353  0.4477
 7385TIP3    H143646   5.079   1.996  14.906 -2.1870 -2.7734 -1.8598
 7385TIP3    H243647   5.006   1.952  15.031  0.6991  0.0445  0.9379
 7386TIP3   OH243648   1.760   3.129   0.963 -0.4089 -0.3985 -0.6838
 7386TIP3    H143649   1.834   3.152   1.019 -0.5671 -1.1101 -0.1758
 7386TIP3    H243650   1.747   3.035   0.976 -1.3296 -0.3088 -0.8545
 7387TIP3   OH243651   4.003   0.550   0.669  0.0601 -0.3470 -0.1962
 7387TIP3    H143652   4.069   0.503   0.617 -0.3363  0.5190 -1.5266
 7387TIP3    H243653   3.932   0.568   0.607  0.6099  2.8109 -0.0156
 7388TIP3   OH243654   0.190   4.944   4.390 -0.1386  0.6491  0.2041
 7388TIP3    H143655   0.134   4.875   4.427 -2.6262  0.5250 -3.5528
 7388TIP3    H243656   0.181   5.017   4.451 -0.2819 -1.1462  2.3818
 7389TIP3   OH243657   5.919   5.935  13.684 -0.4441 -0.3772  0.1515
 7389TIP3    H143658   6.002   5.981  13.672 -1.4559  1.3074 -0.5840
 7389TIP3    H243659   5.875   5.943  13.599 -1.3121 -1.3359  0.5071
 7390TIP3   OH243660   3.024   3.528  15.957  0.1105 -0.2624  0.2516
 7390TIP3    H143661   3.072   3.599  15.915 -2.6268  0.2139 -2.2795
 7390TIP3    H243662   3.056   3.449  15.915 -0.5914 -0.0252 -0.7607
 7391TIP3   OH243663   3.260   1.367  13.584  0.2216  0.2138 -0.4182
 7391TIP3    H143664   3.308   1.440  13.544 -0.3644 -0.6317 -2.7877
 7391TIP3    H243665   3.280   1.292  13.528 -0.8524 -0.9829  0.7721
 7392TIP3   OH243666   3.417   0.513  11.539 -0.1843 -0.0478 -0.1934
 7392TIP3    H143667   3.374   0.589  11.577  0.2753  0.9618 -1.6750
 7392TIP3    H243668   3.355   0.480  11.474  0.2064 -0.1107 -0.5339
 7393TIP3   OH243669   4.994   1.662  11.488 -0.2573  0.9537  0.1540
 7393TIP3    H143670   5.088   1.648  11.491 -0.3802  0.3535  1.1715
 7393TIP3    H243671   4.957   1.592  11.541 -1.4260 -0.1488 -2.0572
 7394TIP3   OH243672   5.563   2.997  13.962 -0.2249 -0.0006 -0.9744
 7394TIP3    H143673   5.644   2.978  13.915 -0.0546  0.4461 -0.8694
 7394TIP3    H243674   5.504   3.032  13.895 -0.8013 -1.5929 -1.3187
 7395TIP3   OH243675   6.712   0.095  14.261 -0.1602 -0.4383  0.2358
 7395TIP3    H143676   6.635   0.040  14.247  0.7028 -1.7831  0.6758
 7395TIP3    H243677   6.746   0.067  14.346  1.5187 -0.7207 -0.5147
 7396TIP3   OH243678   6.160   1.257   4.137 -0.2013  0.0211 -0.2019
 7396TIP3    H143679   6.151   1.237   4.044  1.1284 -2.1104  0.0876
 7396TIP3    H243680   6.254   1.257   4.153 -0.2993  2.5873  0.7241
 7397TIP3   OH243681   5.515   4.808   6.334 -0.0936 -0.8170  0.4164
 7397TIP3    H143682   5.580   4.877   6.321  1.0062 -2.2055 -1.6979
 7397TIP3    H243683   5.535   4.771   6.420 -0.7765  1.5347  1.6233
 7398TIP3   OH243684   1.410   2.489  14.376 -0.0904 -0.0492 -0.5876
 7398TIP3    H143685   1.440   2.571  14.415  1.0977 -0.4585 -0.6003
 7398TIP3    H243686   1.438   2.422  14.439 -0.0888 -0.5278 -1.0971
 7399TIP3   OH243687   0.641   4.578  12.044 -0.3678 -0.4860 -0.0588
 7399TIP3    H143688   0.693   4.509  12.085 -0.9249 -1.1088 -0.3826
 7399TIP3    H243689   0.586   4.612  12.115  0.7540  0.4446  0.3741
 7400TIP3   OH243690   0.882   2.481  11.508 -0.1245 -0.3279 -0.2090
 7400TIP3    H143691   0.797   2.447  11.481 -0.5190  1.5220 -1.3720
 7400TIP3    H243692   0.866   2.571  11.533  1.2612 -0.3695  0.8942
 7401TIP3   OH243693   3.761   3.242  11.172 -0.2435  0.7693  0.1274
 7401TIP3    H143694   3.751   3.278  11.084 -1.3761 -0.5085 -0.2831
 7401TIP3    H243695   3.689   3.281  11.222  0.4350  1.5421  0.5126
 7402TIP3   OH243696   1.909   1.506  15.478 -0.6539  0.3287  0.2574
 7402TIP3    H143697   1.972   1.465  15.538  0.6518  2.1008  0.1080
 7402TIP3    H243698   1.948   1.590  15.455 -1.6828  0.1815 -2.1851
 7403TIP3   OH243699   3.148   3.426   1.374 -0.4416  0.7330 -0.1124
 7403TIP3    H143700   3.216   3.403   1.437 -0.4155 -1.1609 -0.8102
 7403TIP3    H243701   3.195   3.461   1.299 -0.1435 -1.2587 -0.8922
 7404TIP3   OH243702   1.131   3.082  14.378 -0.1897  0.3071 -0.1110
 7404TIP3    H143703   1.209   3.054  14.426  0.4364 -1.9820 -2.4168
 7404TIP3    H243704   1.066   3.014  14.396 -0.0799 -0.3555 -2.1670
 7405TIP3   OH243705   1.024   2.246  13.073 -0.1843  0.0200 -0.1689
 7405TIP3    H143706   0.957   2.293  13.123 -0.3841 -0.0015 -0.4143
 7405TIP3    H243707   1.106   2.267  13.117 -0.2932  0.4579 -0.1735
 7406TIP3   OH243708   2.699   3.532  11.412 -0.1298 -0.1066 -0.4515
 7406TIP3    H143709   2.718   3.622  11.440  1.3830 -0.8321  0.9461
 7406TIP3    H243710   2.645   3.496  11.482  0.5895 -0.7816 -0.2430
 7407TIP3   OH243711   2.312   6.171   5.133 -0.3655  0.0297  0.2505
 7407TIP3    H143712   2.257   6.096   5.108 -1.7691  1.2632 -0.4175
 7407TIP3    H243713   2.302   6.176   5.228 -2.5540  1.0687  0.0057
 7408TIP3   OH243714   2.004   4.561  14.202 -0.0725  1.0050  0.5003
 7408TIP3    H143715   1.989   4.527  14.114  1.5899  0.7917  0.2698
 7408TIP3    H243716   1.952   4.505  14.259  0.5184 -0.2215 -0.1459
 7409TIP3   OH243717   2.469   0.063  11.941  0.4414 -0.4304 -0.4668
 7409TIP3    H143718   2.502   0.148  11.970  0.3776 -0.1041 -1.3411
 7409TIP3    H243719   2.531   0.035  11.873  0.1884 -0.8509 -0.5264
 7410TIP3   OH243720   1.038   6.352  15.090  0.1602 -0.0923  0.1363
 7410TIP3    H143721   1.105   6.404  15.046 -1.4048  3.8147  2.1773
 7410TIP3    H243722   0.960   6.363  15.035  0.0453 -1.0741  0.0950
 7411TIP3   OH243723   4.709   0.952  13.460 -0.1669  0.5797  0.2572
 7411TIP3    H143724   4.669   0.958  13.373  1.1259  2.2754 -0.2521
 7411TIP3    H243725   4.684   1.034  13.503  1.2721  0.8784  0.5517
 7412TIP3   OH243726   1.466   0.836  15.999  0.3853  0.0651 -0.2820
 7412TIP3    H143727   1.520   0.786  16.060  2.7629  1.6732 -0.9851
 7412TIP3    H243728   1.394   0.871  16.052  2.2429  1.1729  1.5451
 7413TIP3   OH243729   6.648   0.728   0.544  0.3310  0.0987 -0.9736
 7413TIP3    H143730   6.684   0.662   0.485  1.8505  0.4540 -0.4669
 7413TIP3    H243731   6.671   0.812   0.503  2.8703  0.3963  0.8994
 7414TIP3   OH243732   5.943   5.073   5.717 -0.5103  0.7559  0.0105
 7414TIP3    H143733   6.022   5.116   5.749 -0.9837  0.9962  0.8883
 7414TIP3    H243734   5.949   4.983   5.749 -0.7042  0.8402  0.2902
 7415TIP3   OH243735   5.052   2.814  12.629 -0.1365  0.3260  0.5772
 7415TIP3    H143736   4.957   2.801  12.628 -0.2836  1.3106  0.7612
 7415TIP3    H243737   5.062   2.909  12.638  0.8669  0.1335  1.5450
 7416TIP3   OH243738   0.572   6.157  14.047 -0.3764 -0.4949 -0.3878
 7416TIP3    H143739   0.591   6.220  13.977 -1.3409  0.7901  0.4953
 7416TIP3    H243740   0.641   6.091  14.039  0.3043  0.3559 -1.6975
 7417TIP3   OH243741   0.299   4.798  17.066 -0.4539  0.4872  0.2249
 7417TIP3    H143742   0.252   4.882  17.059 -0.9290  0.1344 -1.0597
 7417TIP3    H243743   0.243   4.736  17.019  1.4530  0.1265 -1.6454
 7418TIP3   OH243744   3.817   2.655   2.429 -0.2491 -0.1844 -0.3962
 7418TIP3    H143745   3.737   2.705   2.450 -0.3083 -0.7681  0.8040
 7418TIP3    H243746   3.853   2.699   2.352 -1.7291  0.0902 -0.9497
 7419TIP3   OH243747   6.322   1.100   6.269 -0.7526 -0.4728 -0.3059
 7419TIP3    H143748   6.303   1.176   6.323 -1.6487 -0.3800 -0.7453
 7419TIP3    H243749   6.241   1.049   6.269 -0.5807 -0.7573 -1.0913
 7420TIP3   OH243750   6.427   5.827  12.676  0.6217 -0.5084 -0.2290
 7420TIP3    H143751   6.395   5.769  12.607 -0.4996  1.7780 -1.7011
 7420TIP3    H243752   6.361   5.821  12.745  0.6141 -1.1242 -0.2878
 7421TIP3   OH243753   5.456   5.427   4.617  0.2297 -0.1324 -0.1808
 7421TIP3    H143754   5.369   5.462   4.635 -0.1811 -1.0754 -0.2969
 7421TIP3    H243755   5.478   5.376   4.695  0.7487  0.2199 -0.0897
 7422TIP3   OH243756   5.993   1.132  14.220  0.3623 -0.6057 -0.1099
 7422TIP3    H143757   6.020   1.199  14.283 -1.6825 -2.4064  2.8613
 7422TIP3    H243758   5.976   1.180  14.140  1.8423  1.9952  1.0734
 7423TIP3   OH243759   3.545   3.893  13.605  0.1831 -0.4759 -0.8210
 7423TIP3    H143760   3.473   3.869  13.663 -1.1554 -2.3368 -3.1520
 7423TIP3    H243761   3.567   3.983  13.629 -1.3335 -0.6974  1.5117
 7424TIP3   OH243762   4.471   4.041   4.269  0.6647  0.1412  0.1224
 7424TIP3    H143763   4.465   3.992   4.187 -0.4363  0.0338  0.2538
 7424TIP3    H243764   4.503   3.978   4.333 -0.7267 -0.4261  0.2889
 7425TIP3   OH243765   0.806   3.775  11.416  0.3356 -0.3265  0.5337
 7425TIP3    H143766   0.810   3.870  11.409 -0.6890 -0.2297  1.2552
 7425TIP3    H243767   0.799   3.757  11.510 -1.1588 -1.0373  0.3037
 7426TIP3   OH243768   2.606   6.200  14.817  0.6359 -0.1738 -0.5017
 7426TIP3    H143769   2.535   6.143  14.787  0.5338 -0.5502  0.4420
 7426TIP3    H243770   2.566   6.287  14.822  0.2627 -0.3661 -0.0745
 7427TIP3   OH243771   3.408   0.689   4.296  0.6517  0.2787 -0.0161
 7427TIP3    H143772   3.371   0.775   4.314  0.7577 -0.1412  2.3282
 7427TIP3    H243773   3.353   0.654   4.225 -1.3858  0.9756  1.1801
 7428TIP3   OH243774   6.770   3.762   2.456 -0.3118  0.3199 -0.4575
 7428TIP3    H143775   6.836   3.722   2.513 -2.7664 -1.5205  1.2103
 7428TIP3    H243776   6.788   3.726   2.369  0.6672 -0.4330  0.0455
 7429TIP3   OH243777   1.389   2.195  10.613  0.1702 -0.3514 -0.3145
 7429TIP3    H143778   1.403   2.268  10.552  1.2375 -0.5453 -0.3137
 7429TIP3    H243779   1.455   2.130  10.588  0.0895 -0.7631  0.5351
 7430TIP3   OH243780   4.759   0.457  11.755  0.4961 -0.3812  0.1692
 7430TIP3    H143781   4.778   0.550  11.743 -0.2268 -0.2462  0.0182
 7430TIP3    H243782   4.774   0.418  11.669 -0.4869 -0.1639 -0.1147
 7431TIP3   OH243783   1.609   3.199  10.992  0.4534 -0.0867 -0.4697
 7431TIP3    H143784   1.588   3.145  10.915  1.2281  0.9024 -1.4017
 7431TIP3    H243785   1.561   3.280  10.978 -0.8242 -0.5703  0.9973
 7432TIP3   OH243786   0.634   6.399  11.800  0.3604  0.2912 -0.2511
 7432TIP3    H143787   0.547   6.360  11.794  1.7120 -2.5930 -2.5378
 7432TIP3    H243788   0.679   6.347  11.867  0.8886  0.6066 -0.3586
 7433TIP3   OH243789   3.700   3.588  12.155 -0.3033  0.1354 -0.5441
 7433TIP3    H143790   3.753   3.528  12.103 -0.6343 -1.5833  1.0343
 7433TIP3    H243791   3.624   3.537  12.181 -0.1301  0.9097  1.6459
 7434TIP3   OH243792   4.757   2.152   1.178  0.2990  0.0683 -0.2626
 7434TIP3    H143793   4.813   2.097   1.124  1.2640  1.5478 -0.7887
 7434TIP3    H243794   4.777   2.242   1.152 -0.6228  0.7304  1.1787
 7435TIP3   OH243795   6.305   2.890   6.267  0.5001 -0.0794  0.5234
 7435TIP3    H143796   6.342   2.905   6.180  0.4225 -1.5784  0.2231
 7435TIP3    H243797   6.368   2.929   6.327  0.5745  0.9265 -0.1975
 7436TIP3   OH243798   5.719   2.997  12.880  0.3296  0.2432 -0.4676
 7436TIP3    H143799   5.736   2.925  12.819  1.5318 -0.4160  0.6262
 7436TIP3    H243800   5.680   2.955  12.957  1.9091  0.6053  0.5639
 7437TIP3   OH243801   0.850   6.643   5.997  0.0293  0.3768  1.2054
 7437TIP3    H143802   0.850   6.622   5.903 -1.3191  1.9721  0.8246
 7437TIP3    H243803   0.926   6.596   6.032  1.1997  0.6437 -0.8897
 7438TIP3   OH243804   1.278   1.175   4.217 -0.4764  0.3861 -0.6156
 7438TIP3    H143805   1.194   1.142   4.186 -1.2750 -0.2607  2.0815
 7438TIP3    H243806   1.342   1.140   4.155 -2.1204  0.2861 -2.2808
 7439TIP3   OH243807   5.771   6.085   0.869  0.3307 -0.2657  0.1898
 7439TIP3    H143808   5.816   6.169   0.858 -2.0614  0.8552 -1.2639
 7439TIP3    H243809   5.756   6.078   0.963  0.0937  1.1860  0.2722
 7440TIP3   OH243810   5.853   5.108  16.583  0.3330 -0.3080 -0.4571
 7440TIP3    H143811   5.850   5.161  16.503 -1.9253 -1.5478 -1.2417
 7440TIP3    H243812   5.865   5.018  16.551  0.2379 -0.7140  0.6494
 7441TIP3   OH243813   0.357   4.140   3.067 -0.1565  0.0104 -0.2942
 7441TIP3    H143814   0.447   4.151   3.035  0.2566 -1.8361  0.1335
 7441TIP3    H243815   0.367   4.131   3.162 -0.8078 -0.0655 -0.2326
 7442TIP3   OH243816   1.750   1.098  13.282 -0.3652 -0.3271 -0.1121
 7442TIP3    H143817   1.667   1.101  13.234 -0.1818  0.6952 -0.3872
 7442TIP3    H243818   1.793   1.018  13.252 -1.2045 -0.7963 -0.0580
 7443TIP3   OH243819   4.541   1.004  15.434 -0.0217  0.4486 -0.6150
 7443TIP3    H143820   4.547   0.931  15.496  0.2346  0.6787 -0.3635
 7443TIP3    H243821   4.461   0.988  15.385 -0.1638  0.1979 -0.3037
 7444TIP3   OH243822   0.074   2.613  16.786  0.5922  0.5994 -0.0821
 7444TIP3    H143823   0.020   2.681  16.744  1.4260  1.1960 -0.1985
 7444TIP3    H243824   0.156   2.657  16.807  0.0254  0.4367  2.6328
 7445TIP3   OH243825   0.105   1.502   2.997 -0.3984 -0.1047  0.2320
 7445TIP3    H143826   0.011   1.486   2.998 -0.3981 -0.0936  0.5230
 7445TIP3    H243827   0.133   1.486   3.087 -0.1792  0.2261  0.2260
 7446TIP3   OH243828   3.782   1.637  14.427  0.5354 -0.0444 -0.6582
 7446TIP3    H143829   3.687   1.630  14.435  0.6339  0.6298  1.2752
 7446TIP3    H243830   3.813   1.546  14.431  0.0319 -0.2112 -0.4759
 7447TIP3   OH243831   0.568   4.982  12.770  0.1091  0.1959 -0.1869
 7447TIP3    H143832   0.625   4.946  12.836 -1.5042  0.7507  1.5533
 7447TIP3    H243833   0.561   5.075  12.792 -0.3614  0.4178 -1.2038
 7448TIP3   OH243834   2.730   1.636  16.227  0.3075 -0.3206 -0.4309
 7448TIP3    H143835   2.764   1.677  16.147 -0.5450  0.8750 -0.1869
 7448TIP3    H243836   2.806   1.591  16.264  1.3778  1.3518 -0.5133
 7449TIP3   OH243837   2.994   5.695  14.630 -0.3176 -0.0183 -0.3677
 7449TIP3    H143838   3.020   5.636  14.701  0.7693  1.5178  0.5341
 7449TIP3    H243839   2.919   5.651  14.589 -0.5467 -1.2478  1.2969
 7450TIP3   OH243840   0.536   3.992   2.096 -0.2243  0.5467  0.0810
 7450TIP3    H143841   0.531   4.081   2.061 -0.0120  0.3722 -0.4062
 7450TIP3    H243842   0.543   3.936   2.018  0.5748  0.1752  0.4069
 7451TIP3   OH243843   0.954   0.318  10.611 -0.2442 -0.3791 -0.1353
 7451TIP3    H143844   0.995   0.326  10.524 -1.0435 -0.3195 -0.5107
 7451TIP3    H243845   0.976   0.400  10.655 -0.1853 -0.2317 -0.4348
 7452TIP3   OH243846   2.261   6.767   4.867  0.3949 -0.0076  0.4914
 7452TIP3    H143847   2.309   6.731   4.793  1.7834  0.9663  0.9150
 7452TIP3    H243848   2.169   6.759   4.841  0.7675 -1.7440 -0.3764
 7453TIP3   OH243849   3.151   1.615  13.362  0.0712  0.3009  0.0407
 7453TIP3    H143850   3.238   1.578  13.347 -0.2953 -0.4876 -0.1715
 7453TIP3    H243851   3.161   1.708  13.341  0.4173 -0.1375 -1.8554
 7454TIP3   OH243852   6.054   1.405  17.119 -0.5383 -0.3507 -0.1673
 7454TIP3    H143853   6.008   1.459  17.053  1.2199  0.9658 -0.3628
 7454TIP3    H243854   6.064   1.464  17.194 -0.8567 -1.2518  0.5851
 7455TIP3   OH243855   6.009   1.631  13.242  0.4787  0.2016  0.2462
 7455TIP3    H143856   6.066   1.708  13.237 -0.7119  1.1574  1.0407
 7455TIP3    H243857   5.923   1.667  13.265 -0.1657 -1.3394  0.2763
 7456TIP3   OH243858   3.946   4.225  16.793  0.0414  0.0084 -0.1454
 7456TIP3    H143859   4.003   4.246  16.719  0.0814  0.4390  0.0074
 7456TIP3    H243860   3.994   4.258  16.869  2.0753 -4.2231  0.5843
 7457TIP3   OH243861   6.111   0.981   5.110 -0.3631  0.0097  0.0594
 7457TIP3    H143862   6.090   1.021   5.026  0.0341 -0.2717 -0.1722
 7457TIP3    H243863   6.196   1.018   5.133 -0.4021 -0.0299  0.2702
 7458TIP3   OH243864   1.715   1.625  15.689 -0.0583  0.6730 -0.4947
 7458TIP3    H143865   1.742   1.556  15.629 -0.6474  1.2799 -1.4663
 7458TIP3    H243866   1.738   1.706  15.643 -0.0127  1.1344  0.3342
 7459TIP3   OH243867   0.293   3.182   2.309  0.0172 -0.0179  0.0534
 7459TIP3    H143868   0.302   3.089   2.329 -1.0687 -0.8815 -3.1626
 7459TIP3    H243869   0.205   3.205   2.338  0.3740  0.0831  1.0709
 7460TIP3   OH243870   1.768   0.522  15.466  0.3326 -0.3487 -0.3164
 7460TIP3    H143871   1.768   0.615  15.443  0.7513  0.1046  1.4201
 7460TIP3    H243872   1.829   0.482  15.405 -0.5525  0.3565 -1.6777
 7461TIP3   OH243873   5.351   1.551   6.038  0.4275 -0.3049  0.2207
 7461TIP3    H143874   5.434   1.503   6.039  0.8668  0.4191 -0.4034
 7461TIP3    H243875   5.355   1.606   6.116  0.2641 -0.7175  0.5200
 7462TIP3   OH243876   5.698   6.033  11.476 -0.7538  0.0728  0.1762
 7462TIP3    H143877   5.680   5.968  11.544 -0.1900 -0.2443  0.0291
 7462TIP3    H243878   5.791   6.052  11.486 -0.1866 -1.4726 -1.7926
 7463TIP3   OH243879   3.160   6.730   0.705  0.3177 -0.2354  0.4158
 7463TIP3    H143880   3.240   6.705   0.660 -0.1943  1.0716 -1.2567
 7463TIP3    H243881   3.108   6.649   0.709  0.4854 -0.4219 -1.1038
 7464TIP3   OH243882   0.191   2.538  13.179 -0.1309 -0.0426 -0.4276
 7464TIP3    H143883   0.261   2.531  13.243 -1.3878  0.0386  0.9833
 7464TIP3    H243884   0.132   2.466  13.201 -0.1142 -0.5743 -2.0707
 7465TIP3   OH243885   5.080   4.343   1.395  0.1035 -0.1218 -0.9322
 7465TIP3    H143886   5.126   4.360   1.477 -1.0736 -0.3983 -0.2081
 7465TIP3    H243887   5.150   4.328   1.331  1.0266  0.5066 -0.0762
 7466TIP3   OH243888   0.462   2.838   6.193  0.2077 -0.0618  0.0706
 7466TIP3    H143889   0.409   2.760   6.178  0.5870 -0.5833  1.3617
 7466TIP3    H243890   0.404   2.897   6.241  0.5801 -0.4059  0.9718
 7467TIP3   OH243891   0.881   5.298  16.986 -0.4479  0.4318 -0.5813
 7467TIP3    H143892   0.951   5.325  17.046  1.4309 -0.4184 -2.3297
 7467TIP3    H243893   0.825   5.376  16.978  0.1367  1.0413  1.0426
 7468TIP3   OH243894   2.562   6.102   4.445 -0.2968  0.2279  0.1590
 7468TIP3    H143895   2.600   6.175   4.494 -1.2956  0.3810  0.7171
 7468TIP3    H243896   2.486   6.076   4.496  0.4424 -1.6732  0.3547
 7469TIP3   OH243897   1.645   0.088   0.700 -0.0657 -0.1911  0.2297
 7469TIP3    H143898   1.687   0.174   0.699  1.3599 -0.8302  1.9170
 7469TIP3    H243899   1.657   0.056   0.789 -0.6967 -2.0806 -0.3219
 7470TIP3   OH243900   5.529   3.183  13.515  0.0865 -0.6723 -0.6285
 7470TIP3    H143901   5.571   3.218  13.436 -1.7314 -1.7048 -2.0882
 7470TIP3    H243902   5.437   3.175  13.492 -0.5965 -0.3480  1.8582
 7471TIP3   OH243903   4.682   2.906  13.221  0.6986 -0.2151 -0.5124
 7471TIP3    H143904   4.714   2.864  13.141  0.1856  0.9371 -1.3562
 7471TIP3    H243905   4.642   2.836  13.271 -1.3807 -0.5503 -2.5191
 7472TIP3   OH243906   5.935   0.046  12.534  0.5023  0.7074  0.0560
 7472TIP3    H143907   6.021   0.015  12.505 -1.1821 -3.0743 -1.2669
 7472TIP3    H243908   5.938   0.040  12.630  1.7457  0.7343  0.0241
 7473TIP3   OH243909   3.840   4.088  11.833  0.4405 -0.1056 -0.6909
 7473TIP3    H143910   3.886   4.102  11.750  1.9707 -0.0039  0.1491
 7473TIP3    H243911   3.852   4.170  11.881  0.6971 -0.6384  0.1587
 7474TIP3   OH243912   6.796   6.511  14.906 -0.1563 -0.5462  0.4766
 7474TIP3    H143913   6.772   6.529  14.815  2.1375 -1.0217 -0.2707
 7474TIP3    H243914   6.858   6.581  14.929 -0.5626 -0.5473  1.6039
 7475TIP3   OH243915   6.543   5.140   5.352  0.6770 -0.2843 -0.6339
 7475TIP3    H143916   6.539   5.137   5.448  0.2172  2.0754 -0.5412
 7475TIP3    H243917   6.516   5.229   5.330  1.1814 -0.6731 -2.9512
 7476TIP3   OH243918   3.756   4.720  15.889  0.2566 -0.0468 -0.1072
 7476TIP3    H143919   3.665   4.725  15.859  0.3111 -0.0828 -0.2814
 7476TIP3    H243920   3.781   4.629  15.873 -0.2052 -0.4610  1.4888
 7477TIP3   OH243921   3.766   2.670  12.277  0.1600 -0.2061  0.3700
 7477TIP3    H143922   3.718   2.595  12.240 -1.1044  0.9075 -0.2769
 7477TIP3    H243923   3.749   2.664  12.371 -1.4532  0.2913  0.1294
 7478TIP3   OH243924   5.317   3.139  13.162  0.2937 -0.8560 -0.7237
 7478TIP3    H143925   5.346   3.053  13.193 -0.8398 -0.5506  1.2791
 7478TIP3    H243926   5.257   3.119  13.090 -0.7783 -1.7885  0.4128
 7479TIP3   OH243927   3.254   5.896  11.179 -0.4685 -0.5879 -0.2018
 7479TIP3    H143928   3.287   5.916  11.092 -0.2350 -1.0549 -0.2241
 7479TIP3    H243929   3.229   5.980  11.216  0.1034 -0.3119 -0.4469
 7480TIP3   OH243930   4.143   6.617   0.974  0.4987 -0.5117 -0.3041
 7480TIP3    H143931   4.171   6.694   1.024 -1.9222 -0.2817  0.7513
 7480TIP3    H243932   4.141   6.546   1.037 -0.9179 -0.5989 -0.4342
 7481TIP3   OH243933   1.657   5.410   1.503  0.4420  0.2310  0.0486
 7481TIP3    H143934   1.659   5.447   1.415  2.2514 -1.0022 -0.4618
 7481TIP3    H243935   1.586   5.347   1.501  1.7498 -1.2466 -1.1715
 7482TIP3   OH243936   6.444   2.249   2.089 -0.0454  0.1466  0.1659
 7482TIP3    H143937   6.392   2.326   2.067 -0.2019  0.2111  0.7679
 7482TIP3    H243938   6.457   2.255   2.183  1.3799  0.3365 -0.0372
 7483TIP3   OH243939   4.319   0.074  14.377  0.8101  0.2223 -0.0422
 7483TIP3    H143940   4.264   0.029  14.441 -1.6266 -0.6822 -2.6448
 7483TIP3    H243941   4.281   0.162  14.372  0.8058  0.1952 -0.4638
 7484TIP3   OH243942   0.453   5.719  14.959  0.1055  0.2645  0.0840
 7484TIP3    H143943   0.367   5.709  14.917  0.9500  1.4780 -1.9709
 7484TIP3    H243944   0.435   5.776  15.034 -0.8664  0.7135 -0.4671
 7485TIP3   OH243945   1.281   5.600   6.076 -0.3348  0.2424  0.1759
 7485TIP3    H143946   1.267   5.600   6.171  0.8851  2.2775  0.3631
 7485TIP3    H243947   1.238   5.679   6.045 -0.1420 -0.0664 -0.8973
 7486TIP3   OH243948   5.835   3.866  15.316  0.0248  0.1580 -0.2912
 7486TIP3    H143949   5.824   3.908  15.230 -0.4664 -2.9447 -1.8204
 7486TIP3    H243950   5.927   3.839  15.318  0.1474  0.6236  0.3542
 7487TIP3   OH243951   2.762   4.579   6.119 -0.0699  0.4869 -0.0166
 7487TIP3    H143952   2.689   4.542   6.170 -0.7647  0.2801 -1.1512
 7487TIP3    H243953   2.832   4.515   6.130  0.1915  1.0171  1.6471
 7488TIP3   OH243954   6.512   5.600   4.075  0.0550 -0.3722 -0.2211
 7488TIP3    H143955   6.532   5.685   4.115 -0.9246  0.1749 -0.8816
 7488TIP3    H243956   6.451   5.559   4.137 -0.3235 -0.1286 -0.4238
 7489TIP3   OH243957   4.678   0.679   2.982 -0.0847  1.0017  0.3102
 7489TIP3    H143958   4.618   0.656   2.911 -1.1399  4.0118  0.1285
 7489TIP3    H243959   4.634   0.751   3.028  2.4874  1.9635  1.3916
 7490TIP3   OH243960   0.248   0.836  14.005  0.6663  0.0973  0.2208
 7490TIP3    H143961   0.155   0.819  14.020  0.8999 -0.9721  0.4612
 7490TIP3    H243962   0.277   0.882  14.084  0.5025 -0.1792  0.4379
 7491TIP3   OH243963   6.490   4.910   0.294 -0.0062  0.5907  0.1870
 7491TIP3    H143964   6.447   4.983   0.339 -1.4410  0.2789 -0.6699
 7491TIP3    H243965   6.550   4.874   0.359  0.8134  2.6075  0.5956
 7492TIP3   OH243966   1.174   4.001  11.391 -0.1517 -0.5085  0.3622
 7492TIP3    H143967   1.222   4.083  11.381  0.3634 -0.8529 -0.0529
 7492TIP3    H243968   1.082   4.025  11.385 -0.0461  0.2456  1.7781
 7493TIP3   OH243969   5.780   0.613  12.944  0.3185  0.0094  0.1864
 7493TIP3    H143970   5.795   0.690  12.999 -1.7198  0.0734  0.7017
 7493TIP3    H243971   5.828   0.631  12.863  0.5148  1.4659  0.6159
 7494TIP3   OH243972   6.369   3.893  12.234 -0.7452  0.0691  0.2746
 7494TIP3    H143973   6.323   3.936  12.162 -1.5339 -0.8902  0.2019
 7494TIP3    H243974   6.393   3.807  12.199  0.3697  0.2368  0.5929
 7495TIP3   OH243975   6.610   1.307   2.405  0.1591  0.4423 -0.1066
 7495TIP3    H143976   6.580   1.335   2.491  2.5539 -1.0340  1.2705
 7495TIP3    H243977   6.599   1.212   2.404 -1.0127  0.5569 -1.9374
 7496TIP3   OH243978   6.657   1.696   2.495 -0.0939  0.0494 -0.2197
 7496TIP3    H143979   6.641   1.772   2.438 -2.7996 -0.8348 -0.6918
 7496TIP3    H243980   6.692   1.629   2.436  0.4490  0.2768 -0.1624
 7497TIP3   OH243981   3.661   5.065  15.602  0.1017 -0.0967 -0.2278
 7497TIP3    H143982   3.670   5.124  15.527  0.0273 -1.4108 -1.3027
 7497TIP3    H243983   3.751   5.041  15.624  0.0451 -1.3231 -1.2423
 7498TIP3   OH243984   5.937   6.304  16.915 -0.0559  0.2543  0.7874
 7498TIP3    H143985   5.876   6.264  16.976  0.4832 -2.2322 -0.2721
 7498TIP3    H243986   6.021   6.263  16.935  0.7167  1.6024  0.3609
 7499TIP3   OH243987   4.723   6.365  14.047 -0.1943 -0.1239  0.3016
 7499TIP3    H143988   4.741   6.271  14.048 -1.8938 -0.4820  2.6415
 7499TIP3    H243989   4.646   6.375  14.102 -0.8993  2.5017 -1.0780
 7500TIP3   OH243990   2.051   6.249   5.611  0.2056 -0.3001  0.3941
 7500TIP3    H143991   2.100   6.182   5.563 -0.3853 -0.0599 -0.5693
 7500TIP3    H243992   2.059   6.224   5.703 -0.9512 -2.3442 -0.0294
 7501TIP3   OH243993   5.348   3.241  14.113  0.5067  0.0147  0.2735
 7501TIP3    H143994   5.398   3.251  14.032  1.0093 -1.3317  0.4017
 7501TIP3    H243995   5.276   3.182  14.090 -0.1627  0.7636  0.4552
 7502TIP3   OH243996   2.826   5.388   0.086  0.0396  0.3340 -0.1759
 7502TIP3    H143997   2.765   5.368   0.158  1.3095 -2.0229  0.3150
 7502TIP3    H243998   2.773   5.433   0.021 -2.0545 -0.9198  0.6052
 7503TIP3   OH243999   0.878   4.025   5.743 -0.2496  0.0262 -0.3147
 7503TIP3    H144000   0.862   3.971   5.666 -1.6868  0.9169 -0.6644
 7503TIP3    H244001   0.795   4.024   5.791  0.0578  0.9850  0.2528
 7504TIP3   OH244002   2.710   0.652  11.615 -0.2775  0.0585  0.1511
 7504TIP3    H144003   2.664   0.694  11.688 -0.6209  1.1518 -0.6853
 7504TIP3    H244004   2.646   0.590  11.580  0.3849 -1.5206  1.6704
 7505TIP3   OH244005   2.746   0.351  12.974 -0.1658  0.4791 -0.1462
 7505TIP3    H144006   2.804   0.281  12.944  0.3099  0.8377 -0.0651
 7505TIP3    H244007   2.747   0.345  13.069 -1.8709 -0.8167 -0.1852
 7506TIP3   OH244008   0.296   5.975  11.584 -0.0561  0.0411 -0.2012
 7506TIP3    H144009   0.376   5.939  11.622 -0.6381  0.4017  1.4197
 7506TIP3    H244010   0.292   5.939  11.496  1.7861 -0.1405 -0.2157
 7507TIP3   OH244011   0.398   5.364   1.231 -0.0110  0.1331  0.5755
 7507TIP3    H144012   0.404   5.284   1.284  0.5505 -0.6557 -0.6523
 7507TIP3    H244013   0.467   5.354   1.166 -1.8544  0.2279 -1.4444
 7508TIP3   OH244014   3.420   0.658   4.724  0.1841 -0.0095  0.4423
 7508TIP3    H144015   3.504   0.702   4.717 -0.1239  0.6562  0.9214
 7508TIP3    H244016   3.366   0.717   4.777 -1.3182  0.6711 -1.7958
 7509TIP3   OH244017   1.952   2.426  11.576  0.1661 -0.2388  0.2179
 7509TIP3    H144018   1.972   2.476  11.655 -0.6722 -0.3089  0.4781
 7509TIP3    H244019   1.954   2.490  11.505  0.7925 -0.1524  0.3127
 7510TIP3   OH244020   2.186   2.802   1.420  0.2612  0.1050 -0.3784
 7510TIP3    H144021   2.204   2.818   1.512  1.4925  0.6695 -0.7110
 7510TIP3    H244022   2.259   2.748   1.389 -0.0824  0.0116 -1.0600
 7511TIP3   OH244023   2.752   1.957  15.540  0.1605  0.3963 -0.1560
 7511TIP3    H144024   2.770   1.891  15.607 -2.1919 -0.2495 -0.1140
 7511TIP3    H244025   2.783   2.039  15.578  1.5481 -0.4036  0.4935
 7512TIP3   OH244026   4.594   0.075   3.443 -0.2219  0.0029  0.2451
 7512TIP3    H144027   4.649   0.143   3.404 -0.1379  0.5220  1.2540
 7512TIP3    H244028   4.655   0.015   3.485 -0.2667 -0.9920 -1.0980
 7513TIP3   OH244029   5.521   6.300   5.158 -0.3564 -0.7344  0.6193
 7513TIP3    H144030   5.457   6.229   5.167 -0.8664 -0.3340  0.2110
 7513TIP3    H244031   5.467   6.379   5.152  0.2012 -0.3442  0.7872
 7514TIP3   OH244032   6.348   5.303  14.183  0.7846 -0.0190 -0.4513
 7514TIP3    H144033   6.318   5.379  14.133 -0.8874 -0.4060 -0.0720
 7514TIP3    H244034   6.374   5.240  14.116 -0.3664 -0.1019 -0.8422
 7515TIP3   OH244035   1.255   5.503   0.140 -0.1805  0.3624 -0.1381
 7515TIP3    H144036   1.290   5.581   0.096 -0.2766 -0.6731 -2.1075
 7515TIP3    H244037   1.321   5.435   0.125 -1.3460 -0.6493 -0.7905
 7516TIP3   OH244038   5.136   5.109  16.218 -0.1617  0.1234  0.1718
 7516TIP3    H144039   5.174   5.058  16.289 -1.9645 -2.5439 -0.6916
 7516TIP3    H244040   5.199   5.103  16.146 -0.2654 -0.7223  0.1511
 7517TIP3   OH244041   3.463   2.002  16.404 -0.4481  0.5574 -0.1076
 7517TIP3    H144042   3.520   1.967  16.472  0.0118  0.1135 -0.7186
 7517TIP3    H244043   3.511   2.074  16.365 -0.2922  0.1810 -0.6248
 7518TIP3   OH244044   0.105   1.014   4.865 -0.2572 -0.0877 -0.0096
 7518TIP3    H144045   0.127   0.941   4.807  3.6325  0.0813  1.0596
 7518TIP3    H244046   0.139   1.091   4.820  2.8971  0.0351  2.3739
 7519TIP3   OH244047   1.858   1.549   5.631  0.1793  0.6041  0.1770
 7519TIP3    H144048   1.877   1.503   5.713 -0.3269 -0.6580 -0.3963
 7519TIP3    H244049   1.925   1.517   5.571 -1.2690 -0.8174 -0.7387
 7520TIP3   OH244050   0.102   3.273  14.475  0.3256 -0.5341  0.0633
 7520TIP3    H144051   0.147   3.300  14.396 -0.0738  0.7128  0.2528
 7520TIP3    H244052   0.014   3.249  14.446 -0.2034  1.0966  0.2965
 7521TIP3   OH244053   1.696   2.407  13.318 -0.4268 -0.0391  0.0085
 7521TIP3    H144054   1.693   2.362  13.402 -3.2832 -1.5921 -0.8522
 7521TIP3    H244055   1.640   2.484  13.330 -0.4570 -0.0103 -0.3015
 7522TIP3   OH244056   6.551   6.732   5.246 -0.1751  0.3725 -0.2440
 7522TIP3    H144057   6.505   6.793   5.188 -0.2658  1.3615  0.8504
 7522TIP3    H244058   6.577   6.785   5.321 -0.3728 -0.9723  0.7963
 7523TIP3   OH244059   0.065   3.470  14.682 -0.4588 -0.3538 -0.1997
 7523TIP3    H144060   0.158   3.484  14.668 -0.9578  1.0969 -2.3345
 7523TIP3    H244061   0.048   3.383  14.647 -0.1762 -0.0245 -1.1500
 7524TIP3   OH244062   1.637   3.925   0.659  1.0362 -0.0632  0.0371
 7524TIP3    H144063   1.658   4.012   0.624  1.8459  0.2671  1.3403
 7524TIP3    H244064   1.669   3.865   0.591  2.6567  0.5729  0.2109
 7525TIP3   OH244065   5.215   3.247  15.336 -0.1149  0.1748 -0.0832
 7525TIP3    H144066   5.196   3.341  15.326  0.9970  0.3249 -0.9089
 7525TIP3    H244067   5.129   3.207  15.348 -0.6727  1.2131 -0.4824
 7526TIP3   OH244068   2.055   0.233  16.716  0.0374  0.0711  0.1570
 7526TIP3    H144069   1.974   0.185  16.698 -0.2375  0.3078  0.7604
 7526TIP3    H244070   2.059   0.300  16.648  0.1164 -0.4320 -0.3351
 7527TIP3   OH244071   2.911   6.165  16.725  0.2942  0.0547  0.0747
 7527TIP3    H144072   2.837   6.226  16.719 -0.2170 -0.5679  0.0387
 7527TIP3    H244073   2.911   6.118  16.642 -0.6722 -1.5452  0.9545
 7528TIP3   OH244074   4.362   3.959  12.984  0.3364  0.0518  0.1443
 7528TIP3    H144075   4.384   3.867  12.994 -0.0100  0.0909  1.3920
 7528TIP3    H244076   4.269   3.959  12.959  0.0222  0.0901  1.2834
 7529TIP3   OH244077   0.408   4.790  15.702 -0.0310 -0.2999 -0.4069
 7529TIP3    H144078   0.440   4.822  15.618 -1.1794 -0.5327 -0.9354
 7529TIP3    H244079   0.323   4.752  15.683 -0.3147 -0.3325  0.8708
 7530TIP3   OH244080   2.258   4.239  11.503  0.2124 -0.2061 -0.0656
 7530TIP3    H144081   2.222   4.202  11.422 -0.4257  0.1271  0.0584
 7530TIP3    H244082   2.273   4.331  11.483 -0.8344  0.0937  0.4719
 7531TIP3   OH244083   4.353   6.570  10.662 -0.0600  0.1750  0.3202
 7531TIP3    H144084   4.434   6.531  10.629 -0.4848 -0.4586  0.0175
 7531TIP3    H244085   4.365   6.665  10.649  0.7271  0.1007  0.5061
 7532TIP3   OH244086   0.064   4.012  17.108  0.0549  0.4913  0.2489
 7532TIP3    H144087  -0.032   4.019  17.109 -0.0026 -0.2679  0.5270
 7532TIP3    H244088   0.084   3.971  17.024  0.0791 -0.1143  0.5502
 7533TIP3   OH244089   1.749   4.287  12.837 -0.6482 -0.0882 -0.2501
 7533TIP3    H144090   1.833   4.241  12.837 -0.0935  0.8707  1.2709
 7533TIP3    H244091   1.686   4.222  12.867  0.2166  0.2040  2.3955
 7534TIP3   OH244092   0.798   6.574   6.276 -0.0483  0.7125 -0.1611
 7534TIP3    H144093   0.792   6.586   6.181 -0.5471 -0.1578 -0.2331
 7534TIP3    H244094   0.877   6.521   6.288 -0.0584  0.7140 -0.0875
 7535TIP3   OH244095   5.906   1.266   4.427  0.4946  0.6756 -0.3267
 7535TIP3    H144096   5.852   1.284   4.350  1.5525  0.2586 -1.1984
 7535TIP3    H244097   5.883   1.334   4.490 -1.6145  0.0103 -0.3649
 7536TIP3   OH244098   6.552   3.611  13.679 -0.2821 -0.6214 -0.1501
 7536TIP3    H144099   6.601   3.692  13.691  1.1762 -1.6791  1.2103
 7536TIP3    H244100   6.580   3.578  13.593 -0.6076  0.1130 -0.5450
 7537TIP3   OH244101   2.548   0.450  12.797  0.2614  0.0365  0.0066
 7537TIP3    H144102   2.478   0.482  12.854  1.8336  2.1548  0.8270
 7537TIP3    H244103   2.610   0.407  12.857  0.7530  0.1559 -0.4092
 7538TIP3   OH244104   3.735   2.802  11.051  0.6501 -0.2470  0.0933
 7538TIP3    H144105   3.807   2.742  11.032 -0.5824 -1.0500 -2.1778
 7538TIP3    H244106   3.676   2.793  10.976 -1.6509  0.6472  1.7651
 7539TIP3   OH244107   2.191   3.810   3.687 -0.5182 -0.2743  0.1913
 7539TIP3    H144108   2.234   3.890   3.717  0.3270 -1.1963  1.5143
 7539TIP3    H244109   2.132   3.838   3.617 -0.6177  1.5745  1.0051
 7540TIP3   OH244110   3.366   0.210   5.504 -0.5277  0.4925 -0.1056
 7540TIP3    H144111   3.401   0.223   5.592  1.2645  1.0158 -0.8594
 7540TIP3    H244112   3.273   0.228   5.512 -0.6407 -0.9197  1.9830
 7541TIP3   OH244113   3.399   1.216   0.452  0.1056  0.0419  0.0812
 7541TIP3    H144114   3.486   1.254   0.437  0.4472 -1.4590 -1.9576
 7541TIP3    H244115   3.417   1.131   0.494 -0.5341  0.8770  2.1294
 7542TIP3   OH244116   4.135   1.192  17.016  0.3156  0.1034  0.1917
 7542TIP3    H144117   4.126   1.226  17.105  2.1698  0.1136  0.3918
 7542TIP3    H244118   4.175   1.106  17.027 -1.6700 -0.9197 -0.4927
 7543TIP3   OH244119   4.350   3.782   2.828  0.1864 -0.2073 -0.0423
 7543TIP3    H144120   4.409   3.727   2.879  0.7680  0.2999 -0.1605
 7543TIP3    H244121   4.394   3.867   2.824  0.9302 -0.6672 -2.6887
 7544TIP3   OH244122   4.921   0.896  12.299 -0.0382 -0.0118 -0.1674
 7544TIP3    H144123   4.885   0.952  12.231  1.9927 -0.0761 -1.3402
 7544TIP3    H244124   4.955   0.956  12.365  1.3396  0.1512 -1.0020
 7545TIP3   OH244125   4.167   2.306   3.844  0.4748  0.0535  0.6874
 7545TIP3    H144126   4.098   2.340   3.901  0.3739 -1.5993  1.5969
 7545TIP3    H244127   4.237   2.278   3.904 -0.2801 -3.1761  0.1743
 7546TIP3   OH244128   2.453   5.891   6.151 -0.2994  0.5708  0.1128
 7546TIP3    H144129   2.505   5.892   6.070  0.4865  0.0927  0.6057
 7546TIP3    H244130   2.495   5.954   6.208 -0.2939  0.2227  0.4960
 7547TIP3   OH244131   2.193   2.488   6.216 -0.0294  0.2616  0.1523
 7547TIP3    H144132   2.177   2.394   6.224  1.0205 -0.0665 -1.4828
 7547TIP3    H244133   2.116   2.521   6.170 -2.2016  0.8609  3.9444
 7548TIP3   OH244134   1.301   2.520   3.124 -0.3045 -0.0151  0.0873
 7548TIP3    H144135   1.291   2.489   3.034  3.3534  0.1259 -0.4584
 7548TIP3    H244136   1.299   2.616   3.118  3.1147  0.1050 -0.4038
 7549TIP3   OH244137   6.075   6.729  13.869 -0.2864 -0.8117  0.6469
 7549TIP3    H144138   6.170   6.738  13.864 -0.1697 -2.6815 -1.0998
 7549TIP3    H244139   6.059   6.693  13.956  0.5759 -0.1707  1.0722
 7550TIP3   OH244140   2.463   6.657  16.375  0.1699  0.2124  0.0263
 7550TIP3    H144141   2.541   6.603  16.368 -0.6452 -0.9485 -0.2963
 7550TIP3    H244142   2.496   6.746  16.387  1.5516 -0.5871  2.6594
 7551TIP3   OH244143   3.455   5.802  14.010  0.6439  0.0870 -1.1224
 7551TIP3    H144144   3.379   5.849  14.044  0.0286 -0.5088 -1.6537
 7551TIP3    H244145   3.434   5.709  14.023 -0.0905 -0.2016 -4.1142
 7552TIP3   OH244146   2.078   2.818   4.539  0.8218  0.0774 -0.0637
 7552TIP3    H144147   2.172   2.837   4.536  0.7727  0.1012 -1.4119
 7552TIP3    H244148   2.044   2.850   4.456 -0.1738 -1.0477 -0.0977
 7553TIP3   OH244149   6.105   5.921   3.109  0.2792 -0.2948  0.3811
 7553TIP3    H144150   6.043   5.862   3.067 -0.0378 -0.7703  1.4998
 7553TIP3    H244151   6.182   5.867   3.125  1.2597  0.4654 -1.6139
 7554TIP3   OH244152   3.655   1.489   3.884 -0.2178 -0.5888 -0.4338
 7554TIP3    H144153   3.658   1.395   3.901  0.2651 -0.4009  0.5091
 7554TIP3    H244154   3.699   1.529   3.959  0.0199  0.3607 -1.0749
 7555TIP3   OH244155   6.613   4.276  13.116  0.2831  0.5947  0.7896
 7555TIP3    H144156   6.651   4.230  13.041 -1.0758  0.7920 -0.0599
 7555TIP3    H244157   6.687   4.319  13.159  1.1471  0.0856 -0.1670
 7556TIP3   OH244158   3.071   2.638   2.932 -0.0404 -0.8361  0.1113
 7556TIP3    H144159   3.160   2.612   2.956  0.9187 -0.1561 -2.5513
 7556TIP3    H244160   3.021   2.632   3.014  2.2131 -2.1874  1.4255
 7557TIP3   OH244161   5.760   0.910   4.947 -0.1143 -0.3345  0.1677
 7557TIP3    H144162   5.843   0.923   4.900 -0.4372  1.7237  0.0980
 7557TIP3    H244163   5.730   0.824   4.919  2.0722 -1.1816  0.3117
 7558TIP3   OH244164   3.491   4.673  16.071 -0.4463  0.0756  0.4044
 7558TIP3    H144165   3.454   4.693  15.985  1.4052  1.4496 -0.0934
 7558TIP3    H244166   3.517   4.581  16.066 -0.9799 -0.0361 -0.2662
 7559TIP3   OH244167   1.822   4.557   5.715 -0.5031 -0.2010  0.1377
 7559TIP3    H144168   1.812   4.490   5.647  1.6971  1.3361 -1.7367
 7559TIP3    H244169   1.907   4.540   5.754 -0.4192  0.8213  0.4178
 7560TIP3   OH244170   3.310   0.103  16.944  0.0769  0.5869  0.8245
 7560TIP3    H144171   3.397   0.086  16.981 -0.1688 -0.9715  0.7283
 7560TIP3    H244172   3.307   0.048  16.865 -0.8735  0.8801  0.6561
 7561TIP3   OH244173   3.001   2.048  14.801 -0.0725  0.6154 -0.1853
 7561TIP3    H144174   3.034   2.033  14.712  0.7142  0.8514  0.0596
 7561TIP3    H244175   3.069   2.012  14.858 -1.0923 -0.5506  0.3133
 7562TIP3   OH244176   0.023   0.877   0.853 -0.0441  0.5674  0.3774
 7562TIP3    H144177  -0.036   0.810   0.818  0.6165  0.7500 -1.1039
 7562TIP3    H244178   0.108   0.857   0.814  0.3279  1.7848  0.5593
 7563TIP3   OH244179   0.822   2.479  15.060  0.3837 -0.6174  0.2049
 7563TIP3    H144180   0.800   2.407  15.000  0.3436 -1.8876  1.6974
 7563TIP3    H244181   0.776   2.555  15.025 -0.0484 -1.4589 -1.0810
 7564TIP3   OH244182   6.396   6.461  16.365  0.1838  0.0026  0.0399
 7564TIP3    H144183   6.337   6.414  16.424  0.8581  0.9797  1.5188
 7564TIP3    H244184   6.404   6.404  16.288 -1.6697 -0.7151  0.3681
 7565TIP3   OH244185   1.124   3.880   1.334  0.0905 -0.3021  0.1637
 7565TIP3    H144186   1.069   3.885   1.413 -0.2632 -1.4679 -0.0059
 7565TIP3    H244187   1.071   3.920   1.265  0.6861  1.3878  0.6553
 7566TIP3   OH244188   5.583   4.776   0.789 -0.0916  0.2428  0.4762
 7566TIP3    H144189   5.521   4.705   0.806 -1.7560  1.2572 -1.1103
 7566TIP3    H244190   5.578   4.832   0.866 -0.0222 -0.4562  0.9963
 7567TIP3   OH244191   2.248   2.870   4.798  0.0964  0.0933  0.4757
 7567TIP3    H144192   2.167   2.920   4.791  0.5082  0.6945 -0.0807
 7567TIP3    H244193   2.220   2.778   4.794 -0.5906  0.2901  0.6816
 7568TIP3   OH244194   4.506   0.591  10.997  0.6783 -0.3287  0.8567
 7568TIP3    H144195   4.455   0.510  10.988 -0.8244  0.6363  0.6704
 7568TIP3    H244196   4.594   0.566  10.968 -0.0145 -1.6251 -0.2073
 7569TIP3   OH244197   0.402   4.267  15.328 -0.4134 -0.1327 -0.0369
 7569TIP3    H144198   0.320   4.219  15.338 -0.0424 -0.7221  0.2277
 7569TIP3    H244199   0.442   4.230  15.249 -0.8459  0.8206 -0.7149
 7570TIP3   OH244200   2.646   6.227   2.219 -0.2635 -0.4704  0.5064
 7570TIP3    H144201   2.671   6.234   2.311 -0.8375  1.0696  0.5671
 7570TIP3    H244202   2.550   6.226   2.220 -0.2702 -0.6222 -0.0642
 7571TIP3   OH244203   3.709   6.224   2.837  0.0108 -0.7296 -0.0038
 7571TIP3    H144204   3.748   6.262   2.758  1.8039 -0.4511  0.9789
 7571TIP3    H244205   3.767   6.151   2.859 -1.8145 -2.3018 -0.2676
 7572TIP3   OH244206   3.100   6.133   6.355 -0.6277 -0.3184 -0.1531
 7572TIP3    H144207   3.105   6.228   6.351 -0.1370 -0.2951  0.9453
 7572TIP3    H244208   3.155   6.103   6.282  0.4092  0.2175  0.4086
 7573TIP3   OH244209   5.538   4.935  12.930 -0.3834  0.1678  0.3174
 7573TIP3    H144210   5.535   5.020  12.974 -2.3041 -0.2000  0.9272
 7573TIP3    H244211   5.566   4.955  12.841 -0.4478  1.3853  0.5668
 7574TIP3   OH244212   3.282   0.307  12.647 -0.4710 -0.3796  0.3486
 7574TIP3    H144213   3.280   0.402  12.659  0.5776 -0.3900  0.6730
 7574TIP3    H244214   3.365   0.280  12.687 -1.6600 -1.6751  2.0149
 7575TIP3   OH244215   2.929   4.996   5.708 -0.0318 -0.0502  1.0137
 7575TIP3    H144216   2.929   5.012   5.614  1.8553 -1.3038  0.7677
 7575TIP3    H244217   2.849   5.038   5.740 -1.6989 -1.2905 -1.4212
 7576TIP3   OH244218   5.993   0.699   5.387  0.3353  0.9530 -0.2782
 7576TIP3    H144219   6.056   0.640   5.347 -0.4455  0.7157 -1.1886
 7576TIP3    H244220   5.937   0.642   5.441 -0.6023  0.8015 -1.3904
 7577TIP3   OH244221   1.604   1.661  12.284 -0.3147 -0.0611  0.2070
 7577TIP3    H144222   1.674   1.602  12.255  0.4522  0.5905  0.7201
 7577TIP3    H244223   1.542   1.662  12.211  0.9447  0.5240 -0.8754
 7578TIP3   OH244224   5.456   3.991  12.548  0.4358  0.3447 -0.0559
 7578TIP3    H144225   5.481   3.902  12.575 -0.8829  0.4912  1.7487
 7578TIP3    H244226   5.489   4.047  12.618  1.4978  1.3296 -1.3173
 7579TIP3   OH244227   1.193   3.599  11.322  0.3135 -0.0948  0.0339
 7579TIP3    H144228   1.181   3.614  11.416 -0.3647 -1.9957  0.2724
 7579TIP3    H244229   1.251   3.669  11.294  1.1643  0.0427  2.0344
 7580TIP3   OH244230   5.844   6.695  16.639  0.2705 -0.2068  0.1602
 7580TIP3    H144231   5.768   6.657  16.683 -0.9925  1.3461 -0.6630
 7580TIP3    H244232   5.836   6.789  16.653  1.5382  0.0509 -0.7491
 7581TIP3   OH244233   5.328   0.105  11.639  0.1416  0.2140  0.2786
 7581TIP3    H144234   5.408   0.152  11.613  0.2011  0.5111  0.9898
 7581TIP3    H244235   5.289   0.077  11.557 -0.1301  1.8915 -0.1691
 7582TIP3   OH244236   6.697   3.746  12.294  0.3387  0.2073 -0.1688
 7582TIP3    H144237   6.704   3.836  12.265 -0.2130  0.0322 -0.8735
 7582TIP3    H244238   6.743   3.695  12.227 -0.9553 -0.2022 -0.7714
 7583TIP3   OH244239   2.586   3.335   0.900 -0.6173 -0.0055 -0.5149
 7583TIP3    H144240   2.644   3.349   0.825 -0.5404 -0.5649 -0.5674
 7583TIP3    H244241   2.625   3.387   0.970 -0.7962  0.6644 -0.9140
 7584TIP3   OH244242   1.043   4.856   3.603  0.0641 -0.1699  0.4776
 7584TIP3    H144243   1.107   4.911   3.649 -0.7806  0.5799  0.7871
 7584TIP3    H244244   1.062   4.767   3.633  1.9031 -0.1459 -0.5574
 7585TIP3   OH244245   4.818   4.862  12.407  0.0482 -0.1144 -0.1849
 7585TIP3    H144246   4.873   4.941  12.402 -0.4326  0.2019 -0.5593
 7585TIP3    H244247   4.875   4.796  12.446 -0.3834  1.1902  2.8559
 7586TIP3   OH244248   2.203   0.707   4.664 -0.0226  0.4532  0.4105
 7586TIP3    H144249   2.247   0.622   4.668 -1.8095 -0.5192  0.3330
 7586TIP3    H244250   2.273   0.771   4.655  1.5508 -0.7980  3.0736
 7587TIP3   OH244251   5.138   3.617  14.599 -0.0349 -0.2374 -0.2185
 7587TIP3    H144252   5.070   3.582  14.543  0.7424  0.7718 -1.8458
 7587TIP3    H244253   5.207   3.644  14.538  1.5625 -0.6975  1.3428
 7588TIP3   OH244254   1.115   4.895   4.797 -0.1424 -0.6494 -0.3814
 7588TIP3    H144255   1.046   4.948   4.836 -1.4414 -1.9396 -0.9001
 7588TIP3    H244256   1.130   4.824   4.860  1.4283  0.1735  0.2016
 7589TIP3   OH244257   2.261   2.141   1.997 -0.5622 -0.6716  0.6763
 7589TIP3    H144258   2.266   2.236   1.985 -1.4724 -0.7490 -0.4351
 7589TIP3    H244259   2.282   2.127   2.089  1.3105  0.4623  0.4599
 7590TIP3   OH244260   1.031   5.928  13.992  0.1736 -0.1144  0.1783
 7590TIP3    H144261   1.103   5.926  14.055  0.1277  0.4163  0.2512
 7590TIP3    H244262   1.025   6.020  13.965 -1.9863  0.2938  1.9169
 7591TIP3   OH244263   4.880   4.017  14.230 -0.1531  0.3116 -0.2811
 7591TIP3    H144264   4.898   3.963  14.307 -2.8236  0.9656  0.8574
 7591TIP3    H244265   4.869   4.105  14.264  0.9945  1.0646 -1.7525
 7592TIP3   OH244266   2.699   6.438  12.382 -0.2682  0.4695  0.5830
 7592TIP3    H144267   2.702   6.344  12.364 -0.8256  0.5832 -0.1247
 7592TIP3    H244268   2.703   6.445  12.478  0.9782 -0.2184  0.5842
 7593TIP3   OH244269   5.832   3.311   3.886  0.1945 -0.5723  0.5335
 7593TIP3    H144270   5.783   3.338   3.964  0.4324 -0.6394  0.7081
 7593TIP3    H244271   5.900   3.377   3.876 -1.0555  0.5332 -0.7822
 7594TIP3   OH244272   0.159   0.076   4.046 -0.0543 -0.0659 -0.3192
 7594TIP3    H144273   0.121   0.037   3.967 -3.5247  1.1992  0.6680
 7594TIP3    H244274   0.205   0.154   4.015 -1.8536  0.7186 -1.0512
 7595TIP3   OH244275   2.426   4.027   3.341  0.6956 -0.0959  0.3094
 7595TIP3    H144276   2.496   4.091   3.330 -0.7663  1.4167 -0.3833
 7595TIP3    H244277   2.471   3.944   3.353  2.6081  0.8743  0.0074
 7596TIP3   OH244278   4.265   4.490   3.576  0.2027  0.3138 -0.4989
 7596TIP3    H144279   4.276   4.413   3.632 -2.3035 -0.1867 -0.6271
 7596TIP3    H244280   4.349   4.535   3.580  0.3309 -0.0834  3.1211
 7597TIP3   OH244281   3.801   2.616   0.360 -0.1759  0.7736 -0.0843
 7597TIP3    H144282   3.811   2.551   0.291 -1.6002 -0.6386  0.9948
 7597TIP3    H244283   3.886   2.616   0.405  0.5106  1.1631 -1.3636
 7598TIP3   OH244284   4.177   5.449   4.704  0.1954  0.0768 -0.1565
 7598TIP3    H144285   4.212   5.413   4.623  2.2144  0.2286  0.6386
 7598TIP3    H244286   4.088   5.476   4.681 -0.0145 -1.8187 -1.7638
 7599TIP3   OH244287   0.496   4.081   0.054 -0.5900  0.1066  0.4648
 7599TIP3    H144288   0.451   4.019  -0.003 -2.0947  2.2028 -0.7211
 7599TIP3    H244289   0.580   4.040   0.072 -0.8739 -1.5268 -1.6481
 7600TIP3   OH244290   1.806   6.074   3.153 -0.0875 -0.1839 -0.6447
 7600TIP3    H144291   1.747   6.101   3.223 -0.6973 -0.6537 -0.9698
 7600TIP3    H244292   1.757   6.093   3.073 -1.2213 -3.6643 -0.8799
 7601TIP3   OH244293   2.565   0.265   0.260 -0.2213 -0.6329  0.0445
 7601TIP3    H144294   2.610   0.332   0.209  0.3372 -0.6319  0.5405
 7601TIP3    H244295   2.548   0.306   0.344 -1.3332 -0.5627 -0.2007
 7602TIP3   OH244296   1.077   3.456   3.944  0.1482  0.0708 -0.0609
 7602TIP3    H144297   1.142   3.386   3.947 -1.3860 -1.4420 -0.9434
 7602TIP3    H244298   0.995   3.412   3.922 -1.1579  1.9546  0.8580
 7603TIP3   OH244299   0.518   1.046   2.352  0.2625 -0.1317 -0.5091
 7603TIP3    H144300   0.467   1.059   2.432  1.8943 -0.1160  0.5524
 7603TIP3    H244301   0.454   1.015   2.287 -0.9752 -0.6661  0.9466
 7604TIP3   OH244302   3.502   0.817   1.763 -0.1283 -0.1877  0.2548
 7604TIP3    H144303   3.527   0.890   1.706  0.1158  0.5361  1.2841
 7604TIP3    H244304   3.408   0.829   1.776 -0.3250 -0.7658 -0.5627
 7605TIP3   OH244305   6.504   4.927  11.859  0.1357 -0.0648  0.4546
 7605TIP3    H144306   6.592   4.955  11.883 -0.0353  0.6084  0.3207
 7605TIP3    H244307   6.516   4.863  11.790  0.4928  0.5140 -0.0197
 7606TIP3   OH244308   0.756   1.526   5.122  0.1405 -0.0271 -0.4257
 7606TIP3    H144309   0.792   1.613   5.106  0.0846 -0.2437 -1.8611
 7606TIP3    H244310   0.832   1.470   5.136  0.3632 -0.2963 -2.4786
 7607TIP3   OH244311   0.710   6.096  16.013 -0.1996 -0.5683 -0.3424
 7607TIP3    H144312   0.745   6.043  15.942 -0.4880  0.0995 -0.9904
 7607TIP3    H244313   0.783   6.103  16.076 -0.2438 -1.9306 -0.1244
 7608TIP3   OH244314   3.554   1.001   1.536  0.4139  0.0471  0.7889
 7608TIP3    H144315   3.649   1.005   1.537  0.3677  1.5381  0.2872
 7608TIP3    H244316   3.526   1.092   1.547 -0.9781 -0.6793  3.9100
 7609TIP3   OH244317   4.950   1.585  11.760 -0.5249 -0.2716 -0.0957
 7609TIP3    H144318   4.996   1.561  11.840 -1.0589  0.2620  0.3744
 7609TIP3    H244319   4.944   1.680  11.763 -2.0989 -0.3616  0.0997
 7610TIP3   OH244320   0.053   4.224   6.442 -0.5364  0.1755  0.2808
 7610TIP3    H144321   0.055   4.263   6.530 -1.9200  0.7970  0.0568
 7610TIP3    H244322   0.144   4.226   6.413 -0.1554  0.5257  1.4631
 7611TIP3   OH244323   5.292   2.459   4.469  0.2794 -0.1280 -0.9094
 7611TIP3    H144324   5.365   2.500   4.422  0.5528  0.6844  0.2122
 7611TIP3    H244325   5.300   2.366   4.448  1.7356 -0.0762 -0.6541
 7612TIP3   OH244326   2.438   4.722   3.215  0.0708 -0.3909 -0.0262
 7612TIP3    H144327   2.401   4.653   3.161  1.2959  0.9078 -2.5969
 7612TIP3    H244328   2.533   4.717   3.200  0.1054  2.5134 -1.1479
 7613TIP3   OH244329   0.455   0.672  16.900 -0.2285 -0.4366 -0.3067
 7613TIP3    H144330   0.417   0.751  16.938 -0.0100 -0.2270 -0.5184
 7613TIP3    H244331   0.419   0.601  16.951 -0.7025 -0.2201 -0.3359
 7614TIP3   OH244332   3.908   4.073   3.181  0.1974  0.2827 -0.0550
 7614TIP3    H144333   3.918   4.168   3.180  4.7416 -0.1034 -0.1612
 7614TIP3    H244334   3.943   4.046   3.266 -2.2286 -1.2548  0.5137
 7615TIP3   OH244335   4.132   4.669   3.766  0.0568  0.6967 -0.2669
 7615TIP3    H144336   4.130   4.761   3.738 -0.8446  1.0219  0.8084
 7615TIP3    H244337   4.174   4.622   3.693  0.7179  1.9858 -0.7378
 7616TIP3   OH244338   0.474   4.869   3.047 -0.1914  0.6511  0.4006
 7616TIP3    H144339   0.457   4.785   3.090  1.2036 -0.0199 -0.3470
 7616TIP3    H244340   0.569   4.873   3.036 -0.4305  1.1801 -1.8406
 7617TIP3   OH244341   1.270   4.146   5.864 -0.6358 -0.4546 -0.0336
 7617TIP3    H144342   1.251   4.073   5.805  1.3134 -1.8474  0.9897
 7617TIP3    H244343   1.349   4.186   5.829  0.4184 -1.1578  1.4534
 7618TIP3   OH244344   2.109   1.065   2.252 -0.1174  0.0682 -0.1587
 7618TIP3    H144345   2.182   1.004   2.252 -0.9539 -0.9552  0.4319
 7618TIP3    H244346   2.137   1.137   2.195  0.8194 -0.9266 -0.9661
 7619TIP3   OH244347   0.652   6.425  15.641  0.2723  0.1601 -0.2972
 7619TIP3    H144348   0.670   6.476  15.720 -2.0513 -0.0793  0.4245
 7619TIP3    H244349   0.730   6.373  15.628  0.8102  0.4340  1.6795
 7620TIP3   OH244350   0.659   3.736   5.056 -0.3308 -0.0546  0.0561
 7620TIP3    H144351   0.644   3.764   4.966 -0.9395  1.8298  0.7239
 7620TIP3    H244352   0.576   3.695   5.082 -1.1740  1.9482  0.6583
 7621TIP3   OH244353   2.062   1.436  13.096 -0.1495 -0.8013 -0.0039
 7621TIP3    H144354   2.112   1.354  13.095  0.1230 -0.6468  0.6460
 7621TIP3    H244355   2.017   1.438  13.011  1.7971 -0.4185 -1.0682
 7622TIP3   OH244356   0.232   2.748  11.733  0.9004  0.7419 -0.1982
 7622TIP3    H144357   0.295   2.697  11.682  1.4068  1.5344 -0.3720
 7622TIP3    H244358   0.180   2.682  11.780  0.8683  0.0406 -1.2158
 7623TIP3   OH244359   6.809   1.442  15.758 -0.5208 -0.2847  0.1301
 7623TIP3    H144360   6.860   1.463  15.680  0.2660  0.5754  0.8630
 7623TIP3    H244361   6.744   1.377  15.729  0.7803 -1.1438 -0.8769
 7624TIP3   OH244362   5.249   5.727   3.332  0.0692 -0.5589 -0.2788
 7624TIP3    H144363   5.161   5.754   3.358  1.4808  2.4819  1.7151
 7624TIP3    H244364   5.277   5.668   3.401 -0.0926 -0.8438 -0.4570
 7625TIP3   OH244365   0.227   1.295   2.425  0.0728  0.3321 -0.0919
 7625TIP3    H144366   0.268   1.370   2.383 -0.0535  0.6331  0.3168
 7625TIP3    H244367   0.163   1.333   2.486  1.0972 -0.0532  1.2463
 7626TIP3   OH244368   1.914   5.827   1.494 -0.3369 -0.4958  1.0132
 7626TIP3    H144369   1.889   5.823   1.402 -0.1795  0.5527  0.9224
 7626TIP3    H244370   1.969   5.906   1.501  0.8432 -1.3512  1.7062
 7627TIP3   OH244371   2.142   3.900  17.241  0.0894  0.5207  0.1659
 7627TIP3    H144372   2.133   3.862  17.153 -1.6873 -0.2131  0.6469
 7627TIP3    H244373   2.093   3.982  17.237  1.8649  1.6017 -0.1460
 7628TIP3   OH244374   4.015   2.396  11.708 -0.2084  0.1118 -0.1059
 7628TIP3    H144375   3.974   2.441  11.781  0.2936 -0.7305  0.7050
 7628TIP3    H244376   3.948   2.333  11.678 -0.8417  1.2414 -1.1224
 7629TIP3   OH244377   5.126   5.488   3.148 -0.1629 -0.2874 -0.7885
 7629TIP3    H144378   5.083   5.572   3.129  2.3253  0.9222 -1.1977
 7629TIP3    H244379   5.113   5.477   3.242 -2.6373 -0.7037 -1.1238
 7630TIP3   OH244380   3.161   6.555  12.464 -0.3400 -0.4672 -0.0142
 7630TIP3    H144381   3.174   6.583  12.555  0.1685 -0.9518  0.0635
 7630TIP3    H244382   3.245   6.572  12.421 -0.6490 -0.0346 -0.4469
 7631TIP3   OH244383   5.585   4.091   5.459 -0.0832 -0.5899 -0.2857
 7631TIP3    H144384   5.581   4.052   5.371 -1.8584 -2.0130  0.3805
 7631TIP3    H244385   5.543   4.026   5.516 -1.8751  1.6695  1.0949
 7632TIP3   OH244386   0.522   5.479   3.865  0.1537  0.0618 -0.4491
 7632TIP3    H144387   0.470   5.418   3.813 -0.7826 -1.1762  1.8393
 7632TIP3    H244388   0.468   5.558   3.872  0.4852  0.4049 -1.7220
 7633TIP3   OH244389   5.952   5.883  11.805  0.3751 -0.1578  0.3542
 7633TIP3    H144390   5.952   5.951  11.872 -0.6492  0.0113  0.1788
 7633TIP3    H244391   6.038   5.892  11.763  0.7222  0.2234  1.1373
 7634TIP3   OH244392   1.743   4.076  16.759  0.8724 -0.6802  0.0724
 7634TIP3    H144393   1.822   4.054  16.808 -0.1751 -3.1239  0.7435
 7634TIP3    H244394   1.697   4.138  16.816  2.1544  0.5369 -0.2006
 7635TIP3   OH244395   3.017   6.544  14.972 -0.1935 -0.0918 -0.5753
 7635TIP3    H144396   2.979   6.623  14.932  1.9877  1.3449  0.1077
 7635TIP3    H244397   2.942   6.496  15.006 -1.5469  1.7983 -0.8103
 7636TIP3   OH244398   4.766   2.360   3.749  0.5082  0.5175  0.2578
 7636TIP3    H144399   4.805   2.312   3.676  1.4914  1.7091 -0.0158
 7636TIP3    H244400   4.682   2.392   3.715 -1.4938 -3.3234  1.3160
 7637TIP3   OH244401   1.272   5.793  13.755 -0.6764  0.2893  0.7612
 7637TIP3    H144402   1.204   5.733  13.785 -0.9069  0.7575  1.1857
 7637TIP3    H244403   1.311   5.749  13.679 -1.5630  0.0999  0.4133
 7638TIP3   OH244404   3.578   2.623  12.831 -0.9493 -0.4061 -0.0243
 7638TIP3    H144405   3.521   2.697  12.810 -2.1592 -1.4824 -0.6549
 7638TIP3    H244406   3.620   2.647  12.914 -1.5593  0.8482 -0.0722
 7639TIP3   OH244407   3.816   1.941  13.192  0.0244 -0.1299 -0.5673
 7639TIP3    H144408   3.860   1.859  13.214  0.4493  0.1980 -0.1768
 7639TIP3    H244409   3.751   1.953  13.262 -1.2770 -1.0430 -1.6016
 7640TIP3   OH244410   0.024   3.576  12.137 -0.0877  0.5970  0.7279
 7640TIP3    H144411   0.013   3.502  12.197  0.3548 -0.0402  0.0393
 7640TIP3    H244412   0.036   3.535  12.051 -0.1377  1.4818  0.2972
 7641TIP3   OH244413   2.234   6.282  16.392 -0.3832  0.6807 -0.3786
 7641TIP3    H144414   2.190   6.328  16.321 -3.0867 -1.3402 -0.0588
 7641TIP3    H244415   2.297   6.225  16.348 -1.3694  0.1491 -1.1267
 7642TIP3   OH244416   0.948   1.070  16.918 -0.9021  0.0440 -0.0007
 7642TIP3    H144417   0.881   1.137  16.937  0.1511  1.9986 -2.7923
 7642TIP3    H244418   0.915   1.024  16.841 -0.3543 -0.8844  0.3119
 7643TIP3   OH244419   5.598   1.920  16.864  0.4767 -0.0333 -0.0490
 7643TIP3    H144420   5.568   1.987  16.926 -0.0064 -0.0044 -0.3062
 7643TIP3    H244421   5.691   1.910  16.881  0.3323 -0.0694  0.7281
 7644TIP3   OH244422   0.571   1.345   0.535 -0.2604  0.4221 -0.1693
 7644TIP3    H144423   0.646   1.357   0.477 -0.0618  0.2506  0.0510
 7644TIP3    H244424   0.518   1.277   0.492 -0.2601  0.4996 -0.2930
 7645TIP3   OH244425   6.274   1.892   1.371 -0.9981  0.2531  0.1581
 7645TIP3    H144426   6.309   1.868   1.456  1.2842 -0.1231 -0.8621
 7645TIP3    H244427   6.261   1.987   1.376  2.1837  0.7606 -0.0991
 7646TIP3   OH244428   2.609   5.830  17.051  0.2012 -0.4677  0.5249
 7646TIP3    H144429   2.536   5.859  16.997  0.6546  0.5728  0.4454
 7646TIP3    H244430   2.586   5.858  17.140  1.2571  1.4155  0.2431
 7647TIP3   OH244431   0.610   0.497   4.987 -0.2274 -0.2992 -0.9414
 7647TIP3    H144432   0.648   0.425   5.038  0.6726 -0.6905 -2.1243
 7647TIP3    H244433   0.546   0.454   4.930 -0.4357 -0.0175 -0.9199
 7648TIP3   OH244434   6.664   4.228   2.940  0.3469  0.5409  0.1088
 7648TIP3    H144435   6.681   4.208   3.032  2.0562 -1.2738 -0.5593
 7648TIP3    H244436   6.689   4.320   2.931 -0.9163  1.0647  1.7005
 7649TIP3   OH244437   6.546   0.412   4.005  0.9055  0.2829 -0.0330
 7649TIP3    H144438   6.505   0.331   3.976 -0.1543  1.3964 -1.6915
 7649TIP3    H244439   6.554   0.401   4.100 -0.6267 -1.1330 -0.0322
 7650TIP3   OH244440   1.971   2.654   5.185  0.6584 -0.3437  0.5185
 7650TIP3    H144441   1.931   2.727   5.231  1.5648  0.9835 -0.7379
 7650TIP3    H244442   2.055   2.688   5.155  1.0843 -1.8966 -0.1051
 7651TIP3   OH244443   1.006   3.735  13.007 -0.8209  0.1604  0.4405
 7651TIP3    H144444   0.938   3.669  13.016 -1.2437  0.4350 -0.6015
 7651TIP3    H244445   0.968   3.814  13.045 -0.6612  0.0324  0.8658
 7652TIP3   OH244446   4.530   2.660   2.943 -0.1491  0.9679  0.4628
 7652TIP3    H144447   4.500   2.670   3.033  0.8257 -1.8936  1.1702
 7652TIP3    H244448   4.594   2.731   2.931  0.6997  0.5834  2.4824
 7653TIP3   OH244449   5.388   6.472  13.220 -0.0041  0.2307  0.3214
 7653TIP3    H144450   5.417   6.403  13.161 -0.8074  0.7343 -0.6826
 7653TIP3    H244451   5.336   6.427  13.286  0.6185 -0.2960  0.4503
 7654TIP3   OH244452   1.576   1.538   0.233  0.0742 -0.4472 -0.2513
 7654TIP3    H144453   1.573   1.477   0.306 -0.2340  0.9736  0.9309
 7654TIP3    H244454   1.668   1.541   0.207  0.4585  0.2985  1.1605
 7655TIP3   OH244455   4.633   5.172   1.951 -0.2682  0.0180 -0.1904
 7655TIP3    H144456   4.600   5.083   1.938 -0.3064  0.1853 -1.2870
 7655TIP3    H244457   4.559   5.220   1.987  0.3219 -0.8519  2.3014
 7656TIP3   OH244458   6.382   2.539   6.713 -0.2687  0.0770  0.2046
 7656TIP3    H144459   6.295   2.514   6.743  0.2898 -2.8460 -0.3852
 7656TIP3    H244460   6.441   2.484   6.765  0.9388 -1.5807 -2.7936
 7657TIP3   OH244461   4.489   1.682  10.780 -0.1862 -0.1786  0.5925
 7657TIP3    H144462   4.461   1.636  10.702 -0.2619 -1.0978  1.1519
 7657TIP3    H244463   4.583   1.664  10.786 -0.1730 -0.0757  0.6855
 7658TIP3   OH244464   2.499   4.850   6.600  0.1407  0.3163  0.4831
 7658TIP3    H144465   2.455   4.899   6.531  0.0660 -1.9650 -1.0962
 7658TIP3    H244466   2.546   4.781   6.555 -1.3796 -2.3441  2.8485
 7659TIP3   OH244467   3.210   0.386   2.787  0.0780 -0.1954  0.5664
 7659TIP3    H144468   3.269   0.331   2.736  0.5394 -0.7089  1.6522
 7659TIP3    H244469   3.127   0.383   2.738  1.1005  1.0226 -1.2797
 7660TIP3   OH244470   1.254   0.813  12.465 -1.0535 -0.4641  0.2662
 7660TIP3    H144471   1.231   0.728  12.427  1.4550  0.3691 -3.3265
 7660TIP3    H244472   1.349   0.817  12.460 -1.1371  2.6522  0.2067
 7661TIP3   OH244473   1.760   5.144  15.569 -0.0929  0.0140 -0.2930
 7661TIP3    H144474   1.706   5.125  15.646  1.9725 -1.4952  0.8512
 7661TIP3    H244475   1.759   5.240  15.563 -1.3549  0.0843  0.8278
 7662TIP3   OH244476   4.036   4.348  16.047  0.0278 -0.5589  0.6596
 7662TIP3    H144477   3.941   4.348  16.057 -0.0592 -0.2582 -0.1721
 7662TIP3    H244478   4.051   4.382  15.959  0.9505  0.6921  1.2738
 7663TIP3   OH244479   3.697   6.571  11.130 -0.2129  0.3147  0.7058
 7663TIP3    H144480   3.675   6.530  11.046  0.2314  1.3098  0.0924
 7663TIP3    H244481   3.763   6.636  11.108 -0.5516  1.0222  1.7382
 7664TIP3   OH244482   5.486   0.230   5.690 -0.0715  0.0737 -0.1675
 7664TIP3    H144483   5.486   0.216   5.596 -2.8586  1.2258 -0.3920
 7664TIP3    H244484   5.401   0.198   5.719  1.0374 -0.9393  2.0933
 7665TIP3   OH244485   2.038   3.330   2.288 -0.1847  0.2334  0.2088
 7665TIP3    H144486   2.007   3.381   2.213 -2.1033  0.4917  1.1215
 7665TIP3    H244487   1.997   3.373   2.363 -0.9176 -1.9835  1.1026
 7666TIP3   OH244488   2.334   1.119   5.066 -0.0103 -0.0116  0.1649
 7666TIP3    H144489   2.398   1.051   5.085  0.3525  0.3515  0.2346
 7666TIP3    H244490   2.281   1.125   5.145  1.4428  1.4388  1.0629
 7667TIP3   OH244491   1.154   3.118  11.827  0.0167  0.7550  0.3023
 7667TIP3    H144492   1.117   3.098  11.741  0.2782 -0.5997  0.4965
 7667TIP3    H244493   1.082   3.157  11.876 -0.5896  0.0176  0.0031
 7668TIP3   OH244494   2.122   0.836  10.905  0.0458 -0.2936  0.2122
 7668TIP3    H144495   2.138   0.867  10.816 -0.0155 -1.6269 -0.2796
 7668TIP3    H244496   2.027   0.842  10.916  0.2759  2.4626  1.1897
 7669TIP3   OH244497   2.589   1.166  13.615  0.7683  0.3208 -0.6057
 7669TIP3    H144498   2.499   1.199  13.607  0.2719 -1.4053 -2.7248
 7669TIP3    H244499   2.610   1.176  13.708 -1.9792 -0.1285  0.1161
 7670TIP3   OH244500   4.743   0.965  10.999  0.1702  0.2264  0.3659
 7670TIP3    H144501   4.762   1.023  11.073  1.5418 -0.1702  0.3470
 7670TIP3    H244502   4.812   0.898  11.003 -2.2249 -2.2999  1.2863
 7671TIP3   OH244503   5.822   0.011  11.214 -0.7796  0.1923  0.1593
 7671TIP3    H144504   5.832   0.106  11.225  0.5257  0.0977 -0.1218
 7671TIP3    H244505   5.906  -0.018  11.178 -1.6573 -0.8866 -1.0494
 7672TIP3   OH244506   1.115   1.001  15.541  0.2271  0.0043 -0.0335
 7672TIP3    H144507   1.152   1.034  15.459  0.1201  0.4396  0.0921
 7672TIP3    H244508   1.040   0.947  15.513 -0.1671  0.6298 -0.1978
 7673TIP3   OH244509   5.388   6.805   3.084 -0.1179  0.1061  0.3628
 7673TIP3    H144510   5.357   6.863   3.154  0.2116  1.0443 -0.2515
 7673TIP3    H244511   5.452   6.858   3.036  0.7290 -1.0325  0.2305
 7674TIP3   OH244512   4.953   6.299  15.622  0.0691 -0.0099  0.0043
 7674TIP3    H144513   4.910   6.249  15.692 -1.0117  1.1786  0.1942
 7674TIP3    H244514   4.955   6.389  15.655 -0.3289  0.5317 -1.4481
 7675TIP3   OH244515   3.768   4.198   0.708  0.4343 -0.1979  0.1941
 7675TIP3    H144516   3.755   4.292   0.697  0.4723 -0.2659 -0.4339
 7675TIP3    H244517   3.712   4.174   0.781  1.0175  0.4538  0.8568
 7676TIP3   OH244518   0.337   0.469  15.286  0.1163  0.3717  0.0354
 7676TIP3    H144519   0.430   0.478  15.266  0.7842 -0.1245  2.6569
 7676TIP3    H244520   0.312   0.552  15.326 -0.8499  0.8785 -1.5595
 7677TIP3   OH244521   5.559   2.588  11.221  0.0166  0.2757  0.4935
 7677TIP3    H144522   5.611   2.668  11.217  0.2954  0.0007 -1.7771
 7677TIP3    H244523   5.587   2.536  11.146 -0.6670 -1.6703  1.5295
 7678TIP3   OH244524   0.992   1.882   4.308 -0.1020  0.2481 -0.3606
 7678TIP3    H144525   1.011   1.790   4.291  0.7700  0.2840  0.4172
 7678TIP3    H244526   1.002   1.925   4.223  0.2124 -0.2473 -0.5753
 7679TIP3   OH244527   3.390   6.497   4.251 -0.2898 -0.0485  0.3625
 7679TIP3    H144528   3.473   6.464   4.217 -0.2902  0.4936 -0.1893
 7679TIP3    H244529   3.331   6.422   4.250  0.7862 -0.9626  2.7820
 7680TIP3   OH244530   2.710   1.365  10.834  0.3508  0.8257  0.3326
 7680TIP3    H144531   2.641   1.416  10.791  0.2515  2.1925  2.0565
 7680TIP3    H244532   2.696   1.380  10.927  2.7441  0.8348  0.7133
 7681TIP3   OH244533   5.122   3.119  12.945 -0.0265  0.3814  0.1361
 7681TIP3    H144534   5.164   3.104  12.860 -0.6149  1.4568 -0.3556
 7681TIP3    H244535   5.073   3.200  12.933 -2.8501 -1.2144  0.4551
 7682TIP3   OH244536   5.600   3.030  14.259 -0.4041 -0.2086 -0.6111
 7682TIP3    H144537   5.597   3.009  14.165  1.1030  1.2721 -1.0205
 7682TIP3    H244538   5.668   3.097  14.266 -1.2439  0.4749  1.4009
 7683TIP3   OH244539   3.016   3.225   5.601  0.5223 -0.1044 -0.0602
 7683TIP3    H144540   2.994   3.306   5.648  0.9934 -0.5618  0.9627
 7683TIP3    H244541   3.038   3.254   5.513  0.8160  0.9059  0.3388
 7684TIP3   OH244542   6.527   6.109  12.529  0.0972  0.2337  0.5348
 7684TIP3    H144543   6.592   6.076  12.591  1.5982  0.4275 -0.9054
 7684TIP3    H244544   6.511   6.036  12.469  0.8916  0.9759 -0.6178
 7685TIP3   OH244545   6.039   0.784  13.348  0.2766 -0.0702  0.3086
 7685TIP3    H144546   6.104   0.719  13.375 -1.1138 -2.1979 -1.3517
 7685TIP3    H244547   6.079   0.827  13.273  0.5294 -0.0776  0.4355
 7686TIP3   OH244548   6.458   4.680  13.406 -0.1850 -0.5010 -0.1703
 7686TIP3    H144549   6.524   4.615  13.382  1.0309  1.2542 -1.7738
 7686TIP3    H244550   6.465   4.747  13.338 -0.7831  1.7370  1.9065
 7687TIP3   OH244551   2.384   1.978  14.371  0.0893  0.2950 -0.1838
 7687TIP3    H144552   2.328   1.999  14.445  0.4974 -1.9423  0.7993
 7687TIP3    H244553   2.324   1.966  14.298 -0.5353 -0.1664  0.4057
 7688TIP3   OH244554   6.720   4.023   0.613  0.0644  0.1801  0.0119
 7688TIP3    H144555   6.685   4.081   0.681 -1.4221 -0.6638  0.0010
 7688TIP3    H244556   6.807   4.058   0.593 -0.9992  2.7027 -0.3804
 7689TIP3   OH244557   0.883   2.586  12.674 -0.3194 -0.5639  0.1357
 7689TIP3    H144558   0.919   2.499  12.693 -0.3319 -0.8352 -1.0174
 7689TIP3    H244559   0.789   2.576  12.680 -0.2809 -0.3502  1.1350
 7690TIP3   OH244560   5.461   0.205  13.899 -0.2240  0.0440  0.5859
 7690TIP3    H144561   5.368   0.215  13.916 -0.4238 -0.6885 -0.0764
 7690TIP3    H244562   5.494   0.295  13.890 -1.1712  0.2466 -0.9121
 7691TIP3   OH244563   6.297   2.257   3.123 -0.7825  0.0048 -0.4195
 7691TIP3    H144564   6.367   2.221   3.178 -0.3589 -0.4075 -1.2256
 7691TIP3    H244565   6.248   2.181   3.093 -2.1748  0.3374  0.8917
 7692TIP3   OH244566   0.826   3.346  11.508  0.1470 -0.3782  0.1273
 7692TIP3    H144567   0.908   3.334  11.459  0.7793  4.1254 -0.2126
 7692TIP3    H244568   0.760   3.360  11.441  0.1463  1.1826  0.4230
 7693TIP3   OH244569   3.177   2.775   3.300 -0.0719 -0.4638 -0.1132
 7693TIP3    H144570   3.082   2.784   3.292 -0.1141  1.2022  1.8580
 7693TIP3    H244571   3.188   2.718   3.376  0.5232 -0.3736 -0.1360
 7694TIP3   OH244572   4.076   4.234  17.212  0.6033  0.1146  0.7431
 7694TIP3    H144573   4.030   4.243  17.128 -0.2833  1.2733  1.3339
 7694TIP3    H244574   4.162   4.201  17.188 -0.6017 -2.4058 -0.3698
 7695TIP3   OH244575   2.787   1.051   5.505 -0.1542 -0.3039 -0.4784
 7695TIP3    H144576   2.834   1.107   5.443  0.9740  0.2897  0.8835
 7695TIP3    H244577   2.698   1.086   5.505  0.0200  0.1703 -1.1938
 7696TIP3   OH244578   1.435   2.514  12.443 -0.7223 -0.1760 -0.3716
 7696TIP3    H144579   1.425   2.604  12.410  0.1119  0.2106  0.4164
 7696TIP3    H244580   1.368   2.506  12.510  0.5387  0.5437  0.9853
 7697TIP3   OH244581   1.359   0.920   0.734 -0.2016  0.7325  0.3157
 7697TIP3    H144582   1.306   0.854   0.779 -0.4620  0.9155  0.2820
 7697TIP3    H244583   1.448   0.885   0.735 -0.6431 -0.4930 -1.3144
 7698TIP3   OH244584   2.868   3.707  14.620 -0.2800 -0.1116  0.0444
 7698TIP3    H144585   2.905   3.698  14.532  1.0067 -0.5579  0.6240
 7698TIP3    H244586   2.821   3.625  14.635  3.0555 -1.8489  1.4113
 7699TIP3   OH244587   0.328   2.728  13.376  0.2663  0.3181  0.0828
 7699TIP3    H144588   0.340   2.633  13.384  1.5622  0.5032  0.4097
 7699TIP3    H244589   0.417   2.763  13.367 -0.2681  1.3720 -1.4936
 7700TIP3   OH244590   5.666   3.828   0.621  0.7896 -0.2228  0.3429
 7700TIP3    H144591   5.645   3.781   0.701  2.2577 -0.5439  0.5600
 7700TIP3    H244592   5.721   3.901   0.650  0.7177  0.0921 -0.2902
 7701TIP3   OH244593   3.978   6.637   4.722 -0.3803 -0.3630  0.3972
 7701TIP3    H144594   4.031   6.635   4.643  1.3066  0.0542  1.5018
 7701TIP3    H244595   4.006   6.716   4.769 -0.7392 -1.0714  1.8349
 7702TIP3   OH244596   0.613   3.764   3.583 -0.5520 -0.0796  0.8707
 7702TIP3    H144597   0.519   3.784   3.588 -1.3757 -2.8140 -2.0777
 7702TIP3    H244598   0.641   3.801   3.500  0.3136 -1.7980  0.3777
 7703TIP3   OH244599   3.632   3.942  12.225 -0.1696  0.2796 -0.4773
 7703TIP3    H144600   3.645   4.035  12.208 -1.3451  0.2717 -1.4599
 7703TIP3    H244601   3.642   3.901  12.139  1.2830 -0.6257  0.0936
 7704TIP3   OH244602   2.062   5.679  14.128 -0.6489  0.1075 -0.1303
 7704TIP3    H144603   2.080   5.773  14.118  1.6695 -0.2844  0.1438
 7704TIP3    H244604   2.099   5.639  14.049 -1.7406 -0.5879 -0.3133
 7705TIP3   OH244605   2.237   3.655  12.601  0.0137  0.3572  0.4069
 7705TIP3    H144606   2.291   3.732  12.618 -0.9863  0.8779  1.2924
 7705TIP3    H244607   2.229   3.612  12.686 -0.4734 -0.0396  0.1661
 7706TIP3   OH244608   0.042   4.320  16.849  0.0180 -0.5666 -0.5897
 7706TIP3    H144609   0.041   4.335  16.754 -0.5537 -0.5450 -0.5811
 7706TIP3    H244610  -0.048   4.294  16.870  0.2811 -1.1216 -0.1391
 7707TIP3   OH244611   1.333   1.110   1.106  0.6129 -0.0005  0.0280
 7707TIP3    H144612   1.322   1.158   1.024 -0.2043 -0.5511 -0.2005
 7707TIP3    H244613   1.393   1.163   1.158  2.2458 -0.3398 -1.4845
 7708TIP3   OH244614   5.565   5.266   3.825  0.4804  0.2737 -0.7174
 7708TIP3    H144615   5.530   5.330   3.887 -0.1389 -2.1384  1.5183
 7708TIP3    H244616   5.548   5.181   3.866  1.5525 -1.3267 -3.4566
 7709TIP3   OH244617   3.489   3.596   2.038 -0.3532 -0.4501  0.4436
 7709TIP3    H144618   3.578   3.614   2.070  1.0707 -1.6500 -2.6104
 7709TIP3    H244619   3.448   3.683   2.033  0.5657  0.1008  2.0404
 7710TIP3   OH244620   3.482   1.807  13.145  0.0509 -0.4816  0.1458
 7710TIP3    H144621   3.398   1.847  13.168 -0.1934 -0.8575 -0.0750
 7710TIP3    H244622   3.546   1.849  13.203 -0.4263 -0.8139  0.9235
 7711TIP3   OH244623   5.241   1.521   4.125 -0.0171 -0.0715 -0.4906
 7711TIP3    H144624   5.254   1.456   4.195 -0.4116  1.6635  1.2379
 7711TIP3    H244625   5.146   1.532   4.119 -0.0455 -1.0303 -2.1086
 7712TIP3   OH244626   4.037   6.032  16.493 -0.7216  0.3286  0.1864
 7712TIP3    H144627   4.094   5.976  16.544  0.5914  2.3402  1.0038
 7712TIP3    H244628   4.097   6.095  16.451 -1.8122 -0.8330 -3.2762
 7713TIP3   OH244629   0.629   5.063   0.311 -0.4824 -0.6799  0.0728
 7713TIP3    H144630   0.695   5.080   0.377  0.5722 -0.9379 -0.8999
 7713TIP3    H244631   0.551   5.109   0.342  0.3610  0.2149  0.8786
 7714TIP3   OH244632   2.352   2.797   4.482  0.3127 -0.3450  0.7459
 7714TIP3    H144633   2.385   2.886   4.468 -0.3659 -0.0923  0.7467
 7714TIP3    H244634   2.408   2.742   4.427 -0.2727  0.2682 -0.5085
 7715TIP3   OH244635   3.797   3.106   4.116 -0.1683  0.1282  1.0142
 7715TIP3    H144636   3.827   3.092   4.027 -0.2395  0.9748  0.8503
 7715TIP3    H244637   3.747   3.027   4.138  1.6167 -0.9960  1.0722
 7716TIP3   OH244638   3.454   4.160   2.798  0.4614  0.7438  0.2103
 7716TIP3    H144639   3.529   4.208   2.763  0.4697  1.4778  1.2039
 7716TIP3    H244640   3.381   4.185   2.741  1.4056 -1.8066 -2.2212
 7717TIP3   OH244641   6.234   3.202  13.354 -0.0662 -0.2660  0.0088
 7717TIP3    H144642   6.199   3.113  13.350 -0.2768 -0.2949  2.0254
 7717TIP3    H244643   6.230   3.233  13.264  1.2672 -2.7872 -0.9709
 7718TIP3   OH244644   3.292   5.154   1.486  0.2264 -1.0095  0.6192
 7718TIP3    H144645   3.374   5.111   1.509  1.2426  0.8005  0.4406
 7718TIP3    H244646   3.301   5.175   1.393 -1.4201 -2.9301  0.0073
 7719TIP3   OH244647   3.389   5.108  14.688 -0.6563  0.1998  0.5465
 7719TIP3    H144648   3.305   5.118  14.645  0.0085  3.4425 -0.1965
 7719TIP3    H244649   3.442   5.056  14.628 -1.6866 -0.6057  0.3464
 7720TIP3   OH244650   3.054   3.492   4.036  0.2217 -0.3572  0.2949
 7720TIP3    H144651   2.981   3.542   3.999  0.1343 -1.5111 -1.1220
 7720TIP3    H244652   3.079   3.542   4.114 -0.4862  1.3723 -0.5437
 7721TIP3   OH244653   1.056   5.557   2.992  0.9969 -0.1547  0.7744
 7721TIP3    H144654   1.047   5.549   2.897  1.5103  0.8468  0.6397
 7721TIP3    H244655   1.052   5.466   3.023  0.3493 -0.4593 -0.1538
 7722TIP3   OH244656   0.525   3.213  11.888 -0.1097  0.0082 -0.1349
 7722TIP3    H144657   0.490   3.178  11.970  2.0031 -1.9444 -0.0056
 7722TIP3    H244658   0.500   3.149  11.822 -0.3324  0.7023 -0.7210
 7723TIP3   OH244659   0.671   4.419  16.791 -0.0559  0.0126 -0.0469
 7723TIP3    H144660   0.714   4.343  16.829  0.9303  1.1967  1.2560
 7723TIP3    H244661   0.735   4.490  16.798 -1.0902  1.0631 -0.8709
 7724TIP3   OH244662   4.521   2.170  13.003  0.5475  0.4328 -0.4440
 7724TIP3    H144663   4.428   2.151  12.988  1.0621 -1.2169 -1.6618
 7724TIP3    H244664   4.560   2.168  12.916  1.8213  0.5997  0.1202
 7725TIP3   OH244665   0.307   5.363  14.370 -0.1512 -0.0279 -0.1060
 7725TIP3    H144666   0.342   5.407  14.293 -3.1477  1.4002 -0.7339
 7725TIP3    H244667   0.361   5.285  14.380  1.8906  1.0607 -2.1239
 7726TIP3   OH244668   0.938   0.403   3.547  0.0390  0.0947 -0.2231
 7726TIP3    H144669   0.929   0.352   3.628 -0.3174 -0.3309 -0.5247
 7726TIP3    H244670   0.858   0.456   3.543 -0.2032 -0.2894 -0.5698
 7727TIP3   OH244671   4.805   0.601   5.765  0.4261  0.0770  0.6775
 7727TIP3    H144672   4.822   0.514   5.803 -1.5500 -1.2123 -1.2417
 7727TIP3    H244673   4.762   0.582   5.681 -0.6348  2.9244  0.5244
 7728TIP3   OH244674   4.950   6.209   3.035 -0.4351  0.4085 -0.2078
 7728TIP3    H144675   4.971   6.155   2.958 -1.1832  2.0384 -1.6007
 7728TIP3    H244676   4.960   6.299   3.004 -0.0047  1.0909  1.8444
 7729TIP3   OH244677   4.344   2.666   6.028 -0.4725 -0.5026 -0.4769
 7729TIP3    H144678   4.266   2.640   5.978 -0.2590 -0.9012 -0.6054
 7729TIP3    H244679   4.311   2.682   6.116 -0.7069 -0.6399 -0.5379
 7730TIP3   OH244680   4.728   0.956  17.227 -0.1326 -0.7491 -0.0919
 7730TIP3    H144681   4.774   0.887  17.275 -0.4527 -1.2841 -0.5484
 7730TIP3    H244682   4.651   0.913  17.191 -0.6559 -0.0102  0.1241
 7731TIP3   OH244683   5.740   3.138  11.698 -0.5509  0.4358  0.8502
 7731TIP3    H144684   5.794   3.143  11.620  0.7179 -0.3917  1.6602
 7731TIP3    H244685   5.682   3.063  11.682 -1.5144  1.3699 -0.0477
 7732TIP3   OH244686   2.501   1.475   1.843  0.0732 -0.1735  0.3693
 7732TIP3    H144687   2.422   1.513   1.803  0.8297 -0.4076 -1.3705
 7732TIP3    H244688   2.546   1.550   1.883  0.9319  0.5911 -1.9909
 7733TIP3   OH244689   1.272   0.258  12.631 -0.3928  0.1469  0.2833
 7733TIP3    H144690   1.331   0.262  12.706  0.4725  0.4252 -0.4078
 7733TIP3    H244691   1.275   0.346  12.594 -0.7757 -0.0087 -0.1206
 7734TIP3   OH244692   1.729   1.992   2.219  0.8066 -0.2186  0.0884
 7734TIP3    H144693   1.679   2.052   2.273 -0.1551 -0.9868  0.0633
 7734TIP3    H244694   1.804   1.968   2.272 -0.3123 -1.2454  1.2370
 7735TIP3   OH244695   0.436   2.714   1.350  0.0815 -0.3052 -0.3636
 7735TIP3    H144696   0.460   2.629   1.389 -0.5755 -1.4662 -2.4288
 7735TIP3    H244697   0.350   2.700   1.312 -0.2010  1.4262 -0.4152
 7736TIP3   OH244698   0.692   2.007  10.418 -0.3391 -0.8976 -0.4956
 7736TIP3    H144699   0.770   1.952  10.411 -0.1208 -0.7700  0.9022
 7736TIP3    H244700   0.620   1.946  10.435 -0.0753 -0.7585  1.1968
 7737TIP3   OH244701   1.576   0.077   4.348 -0.5940 -0.4597 -1.2948
 7737TIP3    H144702   1.620   0.079   4.263 -0.7241 -0.5826 -1.3642
 7737TIP3    H244703   1.583   0.167   4.380 -0.6686 -0.3802 -1.4994
 7738TIP3   OH244704   5.973   6.513  15.562  0.4477 -0.3321  0.0731
 7738TIP3    H144705   5.891   6.473  15.532  0.8521  0.8403 -2.6441
 7738TIP3    H244706   5.950   6.605  15.577  0.6295 -0.5688  2.0270
 7739TIP3   OH244707   1.161   4.891   3.349 -0.5255  0.5082 -0.1551
 7739TIP3    H144708   1.248   4.852   3.333  0.2545  1.6494  1.2087
 7739TIP3    H244709   1.141   4.867   3.439 -2.3961 -1.1401 -0.9586
 7740TIP3   OH244710   6.134   2.754   3.682  0.1994 -0.3331 -0.0339
 7740TIP3    H144711   6.117   2.795   3.597  0.7911  2.1222  0.9789
 7740TIP3    H244712   6.173   2.669   3.661 -1.3665 -0.5488 -2.2138
 7741TIP3   OH244713   5.405   6.356   1.423  0.5433 -0.8540 -0.0663
 7741TIP3    H144714   5.400   6.262   1.401  0.7657 -1.5244  2.5777
 7741TIP3    H244715   5.440   6.358   1.512  1.7902  1.8340 -0.5698
 7742TIP3   OH244716   4.711   2.587   3.174  0.0964  0.1198 -0.5362
 7742TIP3    H144717   4.713   2.551   3.263 -1.0870 -0.2681 -0.6617
 7742TIP3    H244718   4.803   2.603   3.153  0.5382 -1.5013  0.0659
 7743TIP3   OH244719   4.531   1.118  15.147 -0.4152 -0.1660  0.2591
 7743TIP3    H144720   4.480   1.187  15.105 -1.3821 -1.2256 -0.3408
 7743TIP3    H244721   4.562   1.157  15.229 -0.9000  0.9866 -0.0923
 7744TIP3   OH244722   6.053   5.771  15.341  0.5086  0.5426  0.3915
 7744TIP3    H144723   5.979   5.731  15.295  2.4683  0.6546 -3.0268
 7744TIP3    H244724   6.017   5.799  15.425 -3.0555 -0.3524 -0.7624
 7745TIP3   OH244725   3.120   6.507  11.724  0.3095  0.1418  0.1486
 7745TIP3    H144726   3.113   6.569  11.652  0.6625  1.5063  1.2622
 7745TIP3    H244727   3.063   6.434  11.699 -0.8974  1.3647 -0.7322
 7746TIP3   OH244728   4.437   4.926   3.336  0.5820  0.5264  0.1920
 7746TIP3    H144729   4.522   4.967   3.355  0.6831 -0.5885  2.3286
 7746TIP3    H244730   4.455   4.866   3.264  1.9275 -0.6277  1.4427
 7747TIP3   OH244731   6.049   1.680   4.689  0.2945  0.0497 -0.0257
 7747TIP3    H144732   5.984   1.703   4.755  0.1883 -1.3396  0.3829
 7747TIP3    H244733   6.133   1.698   4.731  0.2184 -0.5036  0.3802
 7748TIP3   OH244734   2.603   4.665   3.961  0.2282 -0.3351  0.2247
 7748TIP3    H144735   2.636   4.624   3.881 -0.3353 -0.7442  0.1925
 7748TIP3    H244736   2.525   4.614   3.983 -1.5260  1.7940 -0.7946
 7749TIP3   OH244737   4.580   2.073   2.977 -0.3488 -0.4579 -0.0784
 7749TIP3    H144738   4.490   2.105   2.978 -0.0626  0.4241  3.1592
 7749TIP3    H244739   4.578   1.991   3.026  0.6470 -0.2719  0.3018
 7750TIP3   OH244740   2.448   1.954   1.632 -0.0322 -0.2037  0.1140
 7750TIP3    H144741   2.496   2.021   1.681  2.0411 -1.6460  0.1052
 7750TIP3    H244742   2.493   1.949   1.548 -1.2084 -0.4376 -0.5093
 7751TIP3   OH244743   6.485   2.970   5.671  0.1629 -0.4296 -0.2668
 7751TIP3    H144744   6.443   2.996   5.753  0.2262 -1.5458  0.1224
 7751TIP3    H244745   6.545   3.042   5.651 -2.1524  1.3739 -1.0190
 7752TIP3   OH244746   3.830   0.375  16.255 -0.2320 -0.3187 -0.2192
 7752TIP3    H144747   3.756   0.429  16.226 -0.1937 -0.1180  0.0530
 7752TIP3    H244748   3.807   0.287  16.227  0.4163  0.0667 -2.0258
 7753TIP3   OH244749   4.689   1.192  12.514 -0.0052  0.4035  0.3583
 7753TIP3    H144750   4.684   1.253  12.587  1.2916 -0.0625  0.8354
 7753TIP3    H244751   4.657   1.109  12.549 -0.0584  0.3528  0.1939
 7754TIP3   OH244752   2.758   2.662   4.363  0.1429 -0.2983  0.3963
 7754TIP3    H144753   2.671   2.642   4.397 -0.2884  0.4657 -0.2516
 7754TIP3    H244754   2.798   2.718   4.430 -0.7966  1.4125 -0.4703
 7755TIP3   OH244755   1.765   1.000  11.332 -0.3386 -0.6666  0.0212
 7755TIP3    H144756   1.830   0.996  11.263  0.1827 -0.9350  0.5276
 7755TIP3    H244757   1.691   0.949  11.298 -0.9969  1.1509 -1.2964
 7756TIP3   OH244758   0.257   0.306  12.657 -0.1087 -0.0856 -0.2300
 7756TIP3    H144759   0.241   0.223  12.612 -0.0567 -1.0042  1.4386
 7756TIP3    H244760   0.351   0.323  12.644 -0.2027 -0.0696 -0.9165
 7757TIP3   OH244761   0.642   3.875   3.315 -0.1363 -0.4023 -0.1138
 7757TIP3    H144762   0.684   3.933   3.252 -0.3958 -0.1652 -0.0687
 7757TIP3    H244763   0.551   3.906   3.320 -0.0223 -0.1614  0.6703
 7758TIP3   OH244764   3.829   4.688  13.662 -0.0450  0.2014 -0.0285
 7758TIP3    H144765   3.751   4.672  13.609  0.2494  0.7268 -0.6216
 7758TIP3    H244766   3.891   4.731  13.602  0.7477 -0.3164  0.3998
 7759TIP3   OH244767   1.151   5.265   0.937  0.3037 -0.3151  0.5697
 7759TIP3    H144768   1.220   5.203   0.915 -1.5015 -1.8015 -1.1634
 7759TIP3    H244769   1.070   5.217   0.920 -1.1461  2.0294  0.6397
 7760TIP3   OH244770   6.689   0.157   2.762 -0.3573 -0.3081  0.1023
 7760TIP3    H144771   6.616   0.184   2.818  1.1774 -0.1028  2.0871
 7760TIP3    H244772   6.707   0.233   2.707 -1.6617 -0.3817 -0.4366
 7761TIP3   OH244773   4.884   6.764   3.346 -0.1296  0.0969 -0.5645
 7761TIP3    H144774   4.823   6.690   3.342  0.9878 -0.8725 -0.0501
 7761TIP3    H244775   4.872   6.801   3.434 -0.5269  0.3855 -0.7405
 7762TIP3   OH244776   3.067   6.648  13.140 -0.2587  0.2429 -0.6223
 7762TIP3    H144777   3.037   6.597  13.065  1.4174 -0.6690 -0.6909
 7762TIP3    H244778   3.049   6.593  13.215  0.5804 -0.0056 -0.6012
 7763TIP3   OH244779   5.388   2.508  13.642  0.0701 -0.0628  0.7920
 7763TIP3    H144780   5.391   2.413  13.639  1.0350 -0.0067 -0.6144
 7763TIP3    H244781   5.301   2.530  13.608 -0.6120 -0.4728  2.2648
 7764TIP3   OH244782   0.760   3.903   1.912  0.3654  0.2849  0.2286
 7764TIP3    H144783   0.795   3.989   1.887  0.5050 -0.0125 -0.6087
 7764TIP3    H244784   0.741   3.860   1.829 -0.2545 -0.2714  0.6573
 7765TIP3   OH244785   5.416   4.591  13.493 -0.6215 -0.0890 -0.0616
 7765TIP3    H144786   5.356   4.665  13.504 -0.3832  0.1923 -0.6239
 7765TIP3    H244787   5.380   4.522  13.549 -0.6768  0.5494  0.7148
 7766TIP3   OH244788   0.983   6.145  11.197  0.3371 -0.6073 -0.7735
 7766TIP3    H144789   0.974   6.180  11.286  1.2204 -0.5997 -0.6891
 7766TIP3    H244790   0.971   6.051  11.207  1.5802 -0.7400 -0.4782
 7767TIP3   OH244791   0.190   2.696  16.515 -0.6487 -0.1280  0.6418
 7767TIP3    H144792   0.278   2.658  16.510 -0.6377 -0.1427  0.9328
 7767TIP3    H244793   0.149   2.653  16.590 -1.8610 -2.0684 -1.0883
 7768TIP3   OH244794   1.975   4.875  12.061 -0.4579 -0.5066  0.3639
 7768TIP3    H144795   2.052   4.828  12.093 -0.0001 -1.1524 -1.6179
 7768TIP3    H244796   2.010   4.944  12.005 -1.3384 -1.5641 -1.5261
 7769TIP3   OH244797   1.179   3.948   5.664  0.2211  0.4607 -0.4405
 7769TIP3    H144798   1.123   3.991   5.599  0.1672 -1.1398 -1.4838
 7769TIP3    H244799   1.152   3.857   5.662  0.6227  0.2937  1.4481
 7770TIP3   OH244800   5.203   1.074   2.917 -0.2915  0.2089  0.0997
 7770TIP3    H144801   5.241   1.089   3.004  0.5057 -0.2318 -0.1684
 7770TIP3    H244802   5.121   1.029   2.934  1.8218 -3.7293  0.4744
 7771TIP3   OH244803   4.412   2.375  16.077 -0.1240  0.3443 -0.6592
 7771TIP3    H144804   4.502   2.406  16.067 -0.2263  0.9233  0.1587
 7771TIP3    H244805   4.421   2.282  16.097  0.3024  0.4319 -0.4404
 7772TIP3   OH244806   1.309   4.512   1.091  0.3826 -0.6309  0.6549
 7772TIP3    H144807   1.248   4.585   1.097  0.5114 -0.5342  0.8184
 7772TIP3    H244808   1.277   4.448   1.154 -0.2112 -1.0767 -0.0964
 7773TIP3   OH244809   5.538   1.693   1.292  0.6647  0.5467  0.2156
 7773TIP3    H144810   5.591   1.615   1.305  0.3503  0.0682 -1.2809
 7773TIP3    H244811   5.473   1.691   1.363  0.8096 -0.4230  0.3193
 7774TIP3   OH244812   2.502   3.801  12.667 -0.6738  0.1682  0.5786
 7774TIP3    H144813   2.530   3.809  12.576 -3.3040 -1.4066 -0.4332
 7774TIP3    H244814   2.577   3.761  12.712  0.0466 -0.5529 -1.2425
 7775TIP3   OH244815   5.625   5.246  16.644  0.4083 -0.3524 -0.3101
 7775TIP3    H144816   5.644   5.313  16.579  0.8085 -0.2914 -0.1401
 7775TIP3    H244817   5.705   5.193  16.647  1.5839  1.4869  2.3404
 7776TIP3   OH244818   0.897   0.162   4.327 -0.2393 -0.2882  0.6802
 7776TIP3    H144819   0.868   0.213   4.403 -0.0354 -0.6401  0.9929
 7776TIP3    H244820   0.939   0.085   4.365 -1.2511 -1.0892  0.2015
 7777TIP3   OH244821   2.727   2.834   0.542 -0.2391 -0.1069 -0.3890
 7777TIP3    H144822   2.781   2.779   0.598 -0.1944  0.4410  0.1151
 7777TIP3    H244823   2.780   2.912   0.527 -1.0242  0.6019  0.4328
 7778TIP3   OH244824   5.115   2.847  15.873 -0.3593  0.7031 -0.0629
 7778TIP3    H144825   5.203   2.817  15.849  0.0662  3.3602 -2.0809
 7778TIP3    H244826   5.060   2.822  15.799 -0.6401  1.8778 -0.2630
 7779TIP3   OH244827   0.072   6.304  17.196  0.4422 -0.0972  0.2186
 7779TIP3    H144828   0.162   6.334  17.179  0.2236  0.3306 -0.2187
 7779TIP3    H244829   0.019   6.355  17.135  0.1128 -1.8030 -0.9417
 7780TIP3   OH244830   1.326   5.354  16.417  1.0572 -0.7910  0.5748
 7780TIP3    H144831   1.346   5.307  16.337  1.5329 -2.4244  1.6275
 7780TIP3    H244832   1.375   5.309  16.485  0.5604  0.4777  1.8229
 7781TIP3   OH244833   6.162   4.729   0.634  0.3679  0.0758  0.5334
 7781TIP3    H144834   6.104   4.693   0.567  1.5658 -0.4541 -0.2315
 7781TIP3    H244835   6.122   4.813   0.658 -0.9173 -0.4503  0.3002
 7782TIP3   OH244836   2.321   3.365  15.032 -0.0206 -0.1005  0.2998
 7782TIP3    H144837   2.318   3.399  15.121  0.2213 -0.1690  0.3328
 7782TIP3    H244838   2.383   3.423  14.987 -0.7268  0.4159 -0.0222
 7783TIP3   OH244839   5.316   0.444  14.295  0.2034  0.4412  0.3799
 7783TIP3    H144840   5.320   0.517  14.233 -1.5498 -0.8091 -1.2605
 7783TIP3    H244841   5.235   0.460  14.345  0.1861 -0.0168  0.4967
 7784TIP3   OH244842   2.650   3.784   1.913  0.3695  0.5760  0.0932
 7784TIP3    H144843   2.688   3.823   1.834  2.5783 -0.2838  0.6859
 7784TIP3    H244844   2.615   3.700   1.884  1.0318  0.3335 -0.0065
 7785TIP3   OH244845   3.512   0.223  12.743 -0.3104  0.0323 -0.2172
 7785TIP3    H144846   3.519   0.292  12.810  0.1359  0.6855 -0.9252
 7785TIP3    H244847   3.602   0.207  12.716 -0.1385 -2.7634  1.8472
 7786TIP3   OH244848   3.014   5.379   5.104 -0.3643  0.7128 -0.1804
 7786TIP3    H144849   2.933   5.395   5.054 -0.7658 -1.4781 -0.2894
 7786TIP3    H244850   2.983   5.357   5.192  0.0255 -1.3308 -0.5326
 7787TIP3   OH244851   0.754   3.780  10.773  0.0006 -0.4704  0.2044
 7787TIP3    H144852   0.666   3.791  10.737 -0.3141  1.5664  1.4869
 7787TIP3    H244853   0.812   3.784  10.697 -0.8209  1.2976 -0.3476
 7788TIP3   OH244854   2.783   5.394  11.979 -0.6462  0.5108 -0.2238
 7788TIP3    H144855   2.874   5.423  11.970 -1.1789  1.9134 -1.2816
 7788TIP3    H244856   2.771   5.331  11.907 -0.6312  0.6180 -0.3204
 7789TIP3   OH244857   2.557   4.270  14.367 -0.0931  0.4950 -0.0395
 7789TIP3    H144858   2.623   4.307  14.308  0.0370  0.8912  0.3449
 7789TIP3    H244859   2.549   4.335  14.437 -0.2987  0.0646  0.3399
 7790TIP3   OH244860   2.740   3.664  17.226  0.1822  0.2546  0.1475
 7790TIP3    H144861   2.711   3.606  17.296 -1.3657 -0.1433 -0.7826
 7790TIP3    H244862   2.694   3.632  17.148  1.5592  0.9301 -0.9756
 7791TIP3   OH244863   3.065   3.392  12.274 -0.2772 -0.3545 -0.0606
 7791TIP3    H144864   2.993   3.381  12.336 -0.4400  0.0648 -0.1692
 7791TIP3    H244865   3.117   3.312  12.282 -1.1124 -0.9399 -0.4444
 7792TIP3   OH244866   0.305   5.912  12.042 -0.2296  0.0040  0.8626
 7792TIP3    H144867   0.317   6.006  12.024  2.8266 -0.5775 -0.6476
 7792TIP3    H244868   0.323   5.903  12.135  0.5551  0.7855  0.7975
 7793TIP3   OH244869   1.390   3.772  12.536 -0.0322  0.1452  0.2563
 7793TIP3    H144870   1.360   3.851  12.582  1.5931  0.8217  0.1971
 7793TIP3    H244871   1.374   3.700  12.596 -2.0976  0.4339  0.0794
 7794TIP3   OH244872   3.338   4.797  14.817 -0.1054 -0.3745 -0.2442
 7794TIP3    H144873   3.421   4.760  14.846 -0.5620 -2.1306 -1.0840
 7794TIP3    H244874   3.319   4.866  14.880  1.1428 -1.0968  0.9593
 7795TIP3   OH244875   4.823   2.467   2.391 -0.2014  0.5897  0.5305
 7795TIP3    H144876   4.757   2.412   2.348  0.1010  0.1548  0.6171
 7795TIP3    H244877   4.797   2.557   2.370 -0.7103  0.4143  0.4025
 7796TIP3   OH244878   2.566   0.039   2.249 -0.6651  0.3165  0.6492
 7796TIP3    H144879   2.615  -0.016   2.189 -2.6678 -1.7514  0.8487
 7796TIP3    H244880   2.522   0.103   2.193  1.3010  1.4863  0.3790
 7797TIP3   OH244881   0.709   5.158  13.504 -0.0194 -0.1998 -0.4250
 7797TIP3    H144882   0.671   5.143  13.590 -0.3421  0.1361 -0.5049
 7797TIP3    H244883   0.696   5.251  13.488  1.4686  0.0662 -0.1609
 7798TIP3   OH244884   1.908   5.932   5.002  0.0024 -0.2578  0.5449
 7798TIP3    H144885   1.850   5.997   5.043  0.3062  1.3127 -1.4656
 7798TIP3    H244886   1.857   5.898   4.928  1.0155 -0.0718 -0.2471
 7799TIP3   OH244887   2.840   4.837   1.266 -0.5279  0.5015  0.5783
 7799TIP3    H144888   2.873   4.838   1.356  0.1547  1.9416  0.3305
 7799TIP3    H244889   2.748   4.860   1.274 -1.0325 -1.5947  1.0971
 7800TIP3   OH244890   4.483   0.301  12.074 -0.0646  0.2943  0.7186
 7800TIP3    H144891   4.544   0.240  12.033 -0.1240  0.3887  0.4886
 7800TIP3    H244892   4.402   0.293  12.023  0.0956  0.9515  0.3496
 7801TIP3   OH244893   0.607   6.525  14.580 -0.2216 -0.0228  0.1987
 7801TIP3    H144894   0.640   6.443  14.542  0.5618  0.1944  0.4046
 7801TIP3    H244895   0.595   6.583  14.505 -0.4125 -0.2008  0.0927
 7802TIP3   OH244896   5.720   2.577  15.555  0.6882 -0.0616  0.5614
 7802TIP3    H144897   5.797   2.632  15.541  0.2411  0.3440 -0.3643
 7802TIP3    H244898   5.730   2.505  15.492 -0.7629  1.1520 -1.0945
 7803TIP3   OH244899   1.248   4.934   3.733 -0.5404  0.3767  0.2173
 7803TIP3    H144900   1.338   4.913   3.710 -0.5332  0.1585  0.4443
 7803TIP3    H244901   1.251   4.958   3.826 -0.7642  0.0671  0.3072
 7804TIP3   OH244902   3.736   3.172   1.279 -0.3818 -0.3604 -0.1053
 7804TIP3    H144903   3.727   3.218   1.362 -0.9181  0.1733 -0.4576
 7804TIP3    H244904   3.748   3.080   1.303 -0.3470 -0.1799  0.5646
 7805TIP3   OH244905   0.810   3.725   4.679  0.6342  0.0507  0.0428
 7805TIP3    H144906   0.899   3.739   4.647  0.5480  0.7952  0.1079
 7805TIP3    H244907   0.767   3.674   4.610  0.9930  0.0331 -0.1698
 7806TIP3   OH244908   1.596   1.498   3.197 -0.9621  0.2363  0.2919
 7806TIP3    H144909   1.606   1.454   3.113 -2.0080 -1.3551  0.9771
 7806TIP3    H244910   1.678   1.546   3.209 -0.0107 -1.0965 -0.7168
 7807TIP3   OH244911   0.328   2.646  11.423  0.1830  0.3113 -0.6949
 7807TIP3    H144912   0.320   2.741  11.432 -0.6703  0.3258 -1.5661
 7807TIP3    H244913   0.370   2.633  11.339  2.2888 -0.0291  0.3832
 7808TIP3   OH244914   2.017   2.873   6.355 -0.3990 -0.0308  0.3325
 7808TIP3    H144915   2.096   2.823   6.375  0.3074 -0.1303 -2.4549
 7808TIP3    H244916   2.036   2.961   6.387  0.6047 -0.2106  0.2636
 7809TIP3   OH244917   2.514   6.271   2.540  0.0639 -0.4766 -0.6524
 7809TIP3    H144918   2.527   6.177   2.550  0.4587 -0.4494 -0.9051
 7809TIP3    H244919   2.456   6.295   2.613  1.4550 -0.6027  0.5163
 7810TIP3   OH244920   5.247   0.937  13.472  0.1074 -1.0196 -0.3855
 7810TIP3    H144921   5.212   0.888  13.546  0.4661 -1.3719 -0.4448
 7810TIP3    H244922   5.279   0.869  13.412  0.6982 -0.7096 -0.4213
 7811TIP3   OH244923   0.618   4.194  12.109  0.1347  0.0962 -0.7635
 7811TIP3    H144924   0.705   4.169  12.078 -0.0245  0.1634 -1.2704
 7811TIP3    H244925   0.565   4.200  12.030 -0.8408 -1.8952 -0.3011
 7812TIP3   OH244926   6.014   3.613   0.763  0.0352 -0.0500  0.4534
 7812TIP3    H144927   6.027   3.527   0.803 -0.5205 -0.0810  0.5718
 7812TIP3    H244928   6.095   3.630   0.714 -0.5010 -1.3722 -0.9222
 7813TIP3   OH244929   4.309   2.246  11.433 -0.2746  0.2583  0.2534
 7813TIP3    H144930   4.332   2.188  11.506 -1.0258 -1.2561 -0.6740
 7813TIP3    H244931   4.392   2.259  11.386  0.0767  0.6953  0.9877
 7814TIP3   OH244932   5.147   3.964   1.505 -0.4884  0.2112  0.1814
 7814TIP3    H144933   5.095   3.930   1.577 -2.0169  1.0113 -0.5263
 7814TIP3    H244934   5.172   4.052   1.533 -0.5997  0.3074 -0.0218
 7815TIP3   OH244935   5.136   3.198  11.718  0.3479  0.1525  0.0877
 7815TIP3    H144936   5.189   3.248  11.656 -0.1758  1.4738  0.6708
 7815TIP3    H244937   5.064   3.258  11.741 -2.4222 -2.2405 -2.0331
 7816TIP3   OH244938   3.979   2.149  13.870  0.1814 -0.0298 -0.2462
 7816TIP3    H144939   3.920   2.124  13.799 -0.7201 -0.1344  0.5295
 7816TIP3    H244940   3.929   2.213  13.921  0.9062  0.2157  0.1656
 7817TIP3   OH244941   3.686   1.284  15.655 -0.1571 -0.4449 -0.2916
 7817TIP3    H144942   3.780   1.267  15.647 -0.4041 -1.2065 -1.7100
 7817TIP3    H244943   3.671   1.362  15.601 -0.2158  0.2003  0.6290
 7818TIP3   OH244944   6.648   2.175  14.879 -0.1245  0.4069  0.1265
 7818TIP3    H144945   6.554   2.163  14.875 -0.1107  0.4086 -0.3400
 7818TIP3    H244946   6.678   2.114  14.946 -0.2910 -0.6466 -0.7434
 7819TIP3   OH244947   4.921   0.390   5.093 -0.3639  0.1648 -0.1117
 7819TIP3    H144948   4.978   0.466   5.095  0.6019 -0.5062 -1.3503
 7819TIP3    H244949   4.929   0.356   5.004 -1.2793 -1.0028  0.2318
 7820TIP3   OH244950   0.205   5.611  12.665  0.7237  0.1000  0.1750
 7820TIP3    H144951   0.245   5.698  12.667  0.2251  0.3122  0.9074
 7820TIP3    H244952   0.279   5.550  12.673  0.9195  0.4823  1.2829
 7821TIP3   OH244953   0.976   4.732  12.018 -0.2174 -0.0692  0.3451
 7821TIP3    H144954   1.005   4.660  11.961 -0.2623  0.1460  0.0518
 7821TIP3    H244955   0.918   4.690  12.081  0.7168 -0.5077  0.9313
 7822TIP3   OH244956   1.992   5.874   5.638  0.1831  0.1887 -0.4495
 7822TIP3    H144957   2.085   5.855   5.651 -0.2838 -1.5901  0.5135
 7822TIP3    H244958   1.981   5.964   5.667  1.3605 -0.0209  0.7037
 7823TIP3   OH244959   6.417   2.399  16.726 -0.5364  0.7855 -0.2244
 7823TIP3    H144960   6.333   2.443  16.732 -1.0275  0.1904 -2.1971
 7823TIP3    H244961   6.398   2.318  16.678  1.5225  1.7482 -2.7781
 7824TIP3   OH244962   2.950   1.581  16.070  0.3814  0.0736  0.9935
 7824TIP3    H144963   2.930   1.654  16.012 -0.2132 -2.5251 -2.1764
 7824TIP3    H244964   3.044   1.589  16.087  1.1474 -0.6894 -2.6329
 7825TIP3   OH244965   6.454   1.858  16.238 -0.1182  0.1559 -0.0339
 7825TIP3    H144966   6.523   1.909  16.281 -1.1580 -0.9589  3.1373
 7825TIP3    H244967   6.406   1.923  16.186  2.2906  1.2335 -0.9811
 7826TIP3   OH244968   5.640   6.502   3.941  0.0405 -0.4989 -0.0949
 7826TIP3    H144969   5.712   6.558   3.971 -0.1340 -0.1694 -0.2937
 7826TIP3    H244970   5.668   6.472   3.854  0.5188 -1.4042  0.3596
 7827TIP3   OH244971   5.665   0.486  12.538 -0.2413  0.8199 -0.1380
 7827TIP3    H144972   5.731   0.537  12.492  0.9812  0.6234  1.3591
 7827TIP3    H244973   5.585   0.538  12.532  0.6816  2.3011  0.2720
 7828TIP3   OH244974   3.574   5.353   6.175 -0.1685  0.6601  0.0576
 7828TIP3    H144975   3.663   5.319   6.166 -1.0236 -1.3883 -1.1043
 7828TIP3    H244976   3.573   5.394   6.262  1.7631  0.3083  0.2785
 7829TIP3   OH244977   4.784   5.667   2.814  0.8993  0.4766  0.0999
 7829TIP3    H144978   4.858   5.652   2.872  1.5837 -1.7058 -1.2554
 7829TIP3    H244979   4.823   5.696   2.731  0.3427 -1.5073 -0.8914
 7830TIP3   OH244980   0.111   6.109   1.541  0.0484 -0.4519 -0.2582
 7830TIP3    H144981   0.051   6.058   1.596 -0.2120  0.9544  0.8059
 7830TIP3    H244982   0.082   6.093   1.452 -1.8534  0.1053  0.2324
 7831TIP3   OH244983   0.987   5.666  11.898 -0.3177 -0.0109  0.4615
 7831TIP3    H144984   1.045   5.704  11.832  1.4971 -2.2796  0.6753
 7831TIP3    H244985   1.000   5.571  11.889 -1.3864 -0.4139  2.8551
 7832TIP3   OH244986   4.108   4.923   1.289  0.4815 -0.1053 -0.6552
 7832TIP3    H144987   4.051   4.857   1.328 -1.9248  2.1092 -0.2988
 7832TIP3    H244988   4.197   4.894   1.311 -0.6233 -1.7897  1.7672
 7833TIP3   OH244989   1.658   3.809   3.543  0.0125 -0.2766 -0.1470
 7833TIP3    H144990   1.612   3.727   3.559 -0.0574 -0.1625  0.2406
 7833TIP3    H244991   1.622   3.841   3.460  0.8965 -1.2293 -0.9287
 7834TIP3   OH244992   5.364   2.013   0.057 -0.2310 -0.5432 -0.4437
 7834TIP3    H144993   5.314   2.011  -0.025 -2.3618 -1.3568  0.8324
 7834TIP3    H244994   5.298   2.001   0.126  1.4627  0.5504  1.4235
 7835TIP3   OH244995   1.533   1.907  12.400 -0.3597  0.1561  0.5451
 7835TIP3    H144996   1.578   1.959  12.333  0.7263 -1.2201  0.1752
 7835TIP3    H244997   1.560   1.816  12.381 -0.3305 -0.2801  2.6209
 7836TIP3   OH244998   1.183   3.428   2.985 -0.3464  0.1147 -0.1125
 7836TIP3    H144999   1.123   3.419   3.058 -1.5114 -2.9829 -1.3759
 7836TIP3    H245000   1.143   3.495   2.929 -1.0364  0.2547  0.5390
 7837TIP3   OH245001   3.872   3.346  11.608  0.2071  0.0174 -0.7166
 7837TIP3    H145002   3.910   3.417  11.661  0.6159  0.1524 -1.1803
 7837TIP3    H245003   3.945   3.287  11.592 -0.0214 -0.2568 -0.7417
 7838TIP3   OH245004   5.076   5.397  14.089 -0.3745  0.2500  0.3156
 7838TIP3    H145005   5.162   5.402  14.048 -1.9627  0.0836 -3.1929
 7838TIP3    H245006   5.037   5.316  14.057 -1.7471  0.1706  2.0699
 7839TIP3   OH245007   0.370   2.463   4.353  0.1689  0.2347 -0.0356
 7839TIP3    H145008   0.431   2.420   4.413  0.1172 -1.6819 -1.2852
 7839TIP3    H245009   0.427   2.511   4.292  0.2337  1.8673  1.2739
 7840TIP3   OH245010   5.523   4.339   4.897 -0.3303 -0.6795  0.8901
 7840TIP3    H145011   5.579   4.262   4.891  0.2524 -0.1072 -1.3207
 7840TIP3    H245012   5.435   4.304   4.915  0.2186 -1.7422  1.5236
 7841TIP3   OH245013   5.169   4.884   1.489  0.4522 -0.4824 -0.0901
 7841TIP3    H145014   5.094   4.899   1.547  0.7469  1.1619 -0.1305
 7841TIP3    H245015   5.130   4.858   1.406 -0.1219  1.2139 -0.3694
 7842TIP3   OH245016   6.062   6.278   6.359  0.5219 -0.8598 -0.4534
 7842TIP3    H145017   6.070   6.184   6.344  4.2768 -0.5780 -0.5738
 7842TIP3    H245018   6.112   6.318   6.289 -0.3419  1.2410  0.0859
 7843TIP3   OH245019   5.026   5.401  16.559 -0.2994  0.0587  0.9327
 7843TIP3    H145020   4.965   5.444  16.500  0.1714  1.9044  1.7504
 7843TIP3    H245021   5.107   5.394  16.509 -0.3086  0.3346  0.8794
 7844TIP3   OH245022   5.761   3.471   3.186 -0.0140 -0.3644 -0.6066
 7844TIP3    H145023   5.770   3.528   3.110 -0.0748 -0.0579 -0.3880
 7844TIP3    H245024   5.680   3.422   3.171 -0.7279  0.6508 -0.1153
 7845TIP3   OH245025   4.203   4.982  11.685 -0.0441 -0.3649  0.0031
 7845TIP3    H145026   4.187   4.946  11.772  0.2749  0.4924  0.4278
 7845TIP3    H245027   4.116   4.998  11.649 -0.1770  0.1709  0.5515
 7846TIP3   OH245028   4.902   4.354   5.257  0.3350  0.5387  0.0527
 7846TIP3    H145029   4.849   4.429   5.284 -1.2395 -0.8220  0.7874
 7846TIP3    H245030   4.855   4.316   5.183  1.4346  0.6153 -0.6908
 7847TIP3   OH245031   3.934   6.252   0.512 -0.6052 -0.3043 -0.5132
 7847TIP3    H145032   3.890   6.273   0.595  1.8717 -0.5260  0.8938
 7847TIP3    H245033   3.886   6.302   0.447 -1.5444  1.2366  1.2985
 7848TIP3   OH245034   6.550   4.883  16.645 -0.1740 -0.3319  0.5019
 7848TIP3    H145035   6.559   4.950  16.578  0.0417 -0.4553  0.4060
 7848TIP3    H245036   6.640   4.864  16.672 -0.0945 -2.0243 -0.9014
 7849TIP3   OH245037   0.992   6.287   5.402 -0.2841  0.5358 -0.2799
 7849TIP3    H145038   1.075   6.306   5.357  0.1365  0.9877  0.6705
 7849TIP3    H245039   0.935   6.361   5.379  0.3211  1.3716  0.8785
 7850TIP3   OH245040   3.732   0.996  15.887  0.2009  0.2836 -0.3157
 7850TIP3    H145041   3.787   1.069  15.859 -0.1701  1.4916  2.0369
 7850TIP3    H245042   3.756   0.981  15.979 -0.3983 -1.9548 -0.4843
 7851TIP3   OH245043   0.191   5.077  11.517  0.2263  0.1938 -0.1427
 7851TIP3    H145044   0.275   5.067  11.561  0.1424 -0.5346 -0.1327
 7851TIP3    H245045   0.168   5.169  11.529  0.4920  0.1404  0.8052
 7852TIP3   OH245046   5.190   0.333  13.730 -0.3740  0.3909  0.0314
 7852TIP3    H145047   5.167   0.240  13.718  0.5296  0.0500  0.8899
 7852TIP3    H245048   5.107   0.375  13.753 -0.5344 -0.4692  1.0954
 7853TIP3   OH245049   6.653   3.733   4.323  0.1884  0.7226 -0.3559
 7853TIP3    H145050   6.562   3.704   4.330  0.1620  1.1578  1.2801
 7853TIP3    H245051   6.649   3.811   4.267 -0.4584  0.7835 -0.2265
 7854TIP3   OH245052   3.422   5.732   2.095 -0.3025  0.0910 -0.4929
 7854TIP3    H145053   3.455   5.666   2.033 -1.1560  0.1000 -0.9657
 7854TIP3    H245054   3.493   5.742   2.159  0.0144 -0.9795 -0.6547
 7855TIP3   OH245055   2.818   3.078   5.439 -1.1773  0.1481  0.2218
 7855TIP3    H145056   2.836   2.991   5.476 -1.6509  1.3357  3.3906
 7855TIP3    H245057   2.891   3.132   5.470 -0.1133  0.6416 -2.9032
 7856TIP3   OH245058   1.858   3.411   2.885 -0.8598  0.0568 -0.1480
 7856TIP3    H145059   1.950   3.415   2.859 -0.7980 -0.2049  0.0374
 7856TIP3    H245060   1.854   3.461   2.967 -0.5200 -1.6021  0.9040
 7857TIP3   OH245061   6.127   2.591  15.068  0.3470 -0.0842  0.2569
 7857TIP3    H145062   6.180   2.564  14.993 -1.5715 -2.0624 -0.4655
 7857TIP3    H245063   6.068   2.516  15.083 -1.7910  1.7745  1.4105
 7858TIP3   OH245064   4.033   3.769   4.870 -0.8341  0.3125 -0.3904
 7858TIP3    H145065   4.082   3.795   4.792 -1.1136 -1.2411 -1.0818
 7858TIP3    H245066   4.101   3.749   4.935 -0.6061  2.1009 -0.0426
 7859TIP3   OH245067   2.024   1.314   1.691  0.8939 -0.6702  0.6417
 7859TIP3    H145068   1.961   1.303   1.619  2.3305 -1.5173 -0.5229
 7859TIP3    H245069   2.092   1.369   1.654  1.4960 -0.8685  1.4576
 7860TIP3   OH245070   2.598   3.538   5.895  0.1259 -0.6067 -0.7333
 7860TIP3    H145071   2.602   3.587   5.813 -1.4280  0.3156 -0.2858
 7860TIP3    H245072   2.578   3.448   5.868 -1.0634 -0.1753 -1.3555
 7861TIP3   OH245073   2.949   1.889  12.621  0.4576 -0.3141  0.2390
 7861TIP3    H145074   2.919   1.928  12.539  1.1840 -2.1026 -0.8939
 7861TIP3    H245075   3.022   1.945  12.649  0.9576 -0.3593 -0.9459
 7862TIP3   OH245076   1.870   2.871  11.440  0.0023 -0.2070  0.3719
 7862TIP3    H145077   1.869   2.895  11.348 -0.4583 -2.3840 -0.2231
 7862TIP3    H245078   1.958   2.836  11.455 -0.4657 -1.4361  0.3110
 7863TIP3   OH245079   0.366   6.093  16.761 -0.3964  0.5946 -0.3255
 7863TIP3    H145080   0.423   6.149  16.815  1.6052 -1.0711 -0.6226
 7863TIP3    H245081   0.367   6.135  16.675 -0.2015  0.9751 -0.1399
 7864TIP3   OH245082   0.186   5.482  13.188  0.4141 -0.4205 -0.1650
 7864TIP3    H145083   0.155   5.395  13.165 -0.9114  0.8169 -3.4134
 7864TIP3    H245084   0.242   5.508  13.115  2.5040  0.6454  1.7556
 7865TIP3   OH245085   5.969   5.759   2.962  0.3016 -0.4246  0.3350
 7865TIP3    H145086   5.891   5.806   2.933  1.2190 -0.2938 -2.0440
 7865TIP3    H245087   5.979   5.689   2.898  1.9209 -0.6837  0.8578
 7866TIP3   OH245088   4.034   3.124  12.558 -0.2928 -0.7772  0.1591
 7866TIP3    H145089   3.971   3.144  12.627 -0.1267 -1.8986  0.6345
 7866TIP3    H245090   4.085   3.205  12.548 -1.5463  0.0154  0.0282
 7867TIP3   OH245091   1.847   4.203   3.703 -0.1841  0.2789  0.2729
 7867TIP3    H145092   1.805   4.289   3.709 -0.8021  0.1103 -1.5568
 7867TIP3    H245093   1.858   4.187   3.610  2.0892 -0.6090  0.6403
 7868TIP3   OH245094   1.952   3.105  10.487 -0.0991  0.4059  0.4328
 7868TIP3    H145095   1.881   3.163  10.517 -0.2185  0.9490 -0.8574
 7868TIP3    H245096   2.007   3.161  10.431 -1.3920 -1.2062 -2.5942
 7869TIP3   OH245097   1.990   1.250  13.352 -0.0238  0.5031 -0.5906
 7869TIP3    H145098   1.970   1.333  13.309  0.7831  0.7854 -0.4349
 7869TIP3    H245099   1.908   1.202  13.351 -0.2336  0.8659 -1.6678
 7870TIP3   OH245100   1.580   2.456  16.828  0.2181 -0.1425 -0.5435
 7870TIP3    H145101   1.612   2.545  16.843  1.4252 -0.6721  0.1191
 7870TIP3    H245102   1.546   2.457  16.738  0.9423  0.7749 -0.8104
 7871TIP3   OH245103   4.230   1.871   3.066 -0.2188 -1.0104 -0.3802
 7871TIP3    H145104   4.238   1.776   3.054  0.5173 -0.8146 -1.5200
 7871TIP3    H245105   4.265   1.887   3.153 -2.0373 -2.0021  0.5569
 7872TIP3   OH245106   2.765   2.679   3.718 -0.5277 -0.3803  0.1556
 7872TIP3    H145107   2.674   2.665   3.742 -0.5712  1.4606  1.1936
 7872TIP3    H245108   2.762   2.712   3.629 -1.1789  3.0540  1.3802
 7873TIP3   OH245109   5.945   5.359   0.929  0.4106 -0.0336  0.2402
 7873TIP3    H145110   5.922   5.332   1.018 -0.7763  0.7317  0.1691
 7873TIP3    H245111   6.013   5.426   0.941 -0.4233  0.7562  0.6136
 7874TIP3   OH245112   0.988   5.964   3.316  0.0224 -0.3122 -0.4856
 7874TIP3    H145113   0.969   5.949   3.223  1.5018 -0.0076 -0.8462
 7874TIP3    H245114   0.944   5.892   3.361 -0.2498 -0.7708 -1.4699
 7875TIP3   OH245115   4.815   1.341   1.510 -0.8498 -0.2288 -0.5865
 7875TIP3    H145116   4.790   1.310   1.597 -0.2248  0.6285 -0.0928
 7875TIP3    H245117   4.748   1.306   1.452 -2.2365  0.5899  0.4743
 7876TIP3   OH245118   1.701   2.021  11.146  0.4503  0.3499  0.2421
 7876TIP3    H145119   1.792   2.022  11.175  0.5922  1.6149 -0.2047
 7876TIP3    H245120   1.650   2.035  11.226  0.7651  2.1292  0.1408
 7877TIP3   OH245121   4.822   2.710   3.599 -0.1488  0.4038 -0.0178
 7877TIP3    H145122   4.906   2.715   3.554 -0.1547 -1.4572 -0.2559
 7877TIP3    H245123   4.782   2.796   3.585  0.9546  0.7047 -1.3781
 7878TIP3   OH245124   6.377   6.406  13.950 -0.3906  0.1147 -0.1022
 7878TIP3    H145125   6.428   6.328  13.972  0.3787  1.1398  1.8982
 7878TIP3    H245126   6.309   6.374  13.891  0.9084 -1.7628 -0.6419
 7879TIP3   OH245127   2.567   2.054   0.455  0.0150 -0.0594  0.2788
 7879TIP3    H145128   2.617   1.973   0.465  0.8855  0.5594  1.0930
 7879TIP3    H245129   2.632   2.123   0.467 -0.3034  0.7861 -2.4218
 7880TIP3   OH245130   5.710   3.277   0.884 -0.4478  0.4498  0.4039
 7880TIP3    H145131   5.740   3.279   0.794 -0.0979  0.6659  0.5215
 7880TIP3    H245132   5.639   3.341   0.887 -2.0542 -1.2764 -0.2615
 7881TIP3   OH245133   0.877   1.969  14.758 -0.0671 -0.0530 -0.1003
 7881TIP3    H145134   0.868   1.961  14.663 -0.6625  1.6553 -0.1995
 7881TIP3    H245135   0.932   1.894  14.783 -1.8640 -1.8655 -1.4631
 7882TIP3   OH245136   1.941   0.410   4.924  0.0516 -0.0402 -0.0634
 7882TIP3    H145137   1.970   0.377   4.838  1.4275 -0.2529  0.4591
 7882TIP3    H245138   1.884   0.341   4.958  0.2794 -0.3971 -0.3920
 7883TIP3   OH245139   3.553   6.125   5.315 -0.0759 -0.2443  0.1131
 7883TIP3    H145140   3.517   6.041   5.286  2.3675 -2.0342  1.9497
 7883TIP3    H245141   3.568   6.174   5.234 -3.8456 -0.5102 -0.8530
 7884TIP3   OH245142   1.601   6.649   5.319  0.1281 -0.1713 -0.7734
 7884TIP3    H145143   1.578   6.740   5.338  1.1556  0.2450 -1.4791
 7884TIP3    H245144   1.582   6.602   5.401 -2.1493  0.3305 -0.9831
 7885TIP3   OH245145   6.282   2.909   4.956  0.5384 -0.1399  0.0899
 7885TIP3    H145146   6.237   2.910   5.041  1.1290  0.3734  0.3968
 7885TIP3    H245147   6.325   2.824   4.953 -2.6978 -1.8258 -1.4000
 7886TIP3   OH245148   1.709   4.042   6.100  0.1764  0.0572  0.1003
 7886TIP3    H145149   1.798   4.060   6.069 -0.0414 -0.6428 -0.9506
 7886TIP3    H245150   1.722   4.001   6.186  0.7564  2.5424  1.2361
 7887TIP3   OH245151   0.417   4.954   6.016 -0.0650 -0.1311 -0.0242
 7887TIP3    H145152   0.467   4.948   5.935  1.4502  0.0504  0.8904
 7887TIP3    H245153   0.383   5.044   6.017 -0.3063 -0.2155 -0.5819
 7888TIP3   OH245154   6.795   0.267   2.227 -0.1675  0.5890  0.1273
 7888TIP3    H145155   6.822   0.190   2.177 -0.4287  1.1686 -0.9326
 7888TIP3    H245156   6.704   0.282   2.202 -0.7289  0.1065  1.8095
 7889TIP3   OH245157   4.084   0.346   3.834 -0.5536 -0.7095  0.5979
 7889TIP3    H145158   4.103   0.258   3.801  0.2773 -0.0543 -0.7231
 7889TIP3    H245159   4.011   0.334   3.894 -1.9132 -2.0285 -1.2452
 7890TIP3   OH245160   6.160   6.506  11.836  0.2794 -0.6663  0.2125
 7890TIP3    H145161   6.253   6.526  11.827 -0.2390  0.9045 -2.2112
 7890TIP3    H245162   6.129   6.565  11.904  1.1611 -1.6759  1.5236
 7891TIP3   OH245163   2.390   2.395  15.217 -0.0473 -0.7457  0.1511
 7891TIP3    H145164   2.429   2.307  15.216  2.1797  0.1293  3.5289
 7891TIP3    H245165   2.329   2.394  15.290 -1.1789  0.0713 -0.7675
 7892TIP3   OH245166   3.255   5.444  16.089  0.4891 -0.3003 -0.3643
 7892TIP3    H145167   3.281   5.428  16.180 -0.9605 -1.4612 -0.1445
 7892TIP3    H245168   3.293   5.370  16.040  0.5927 -0.1030 -0.5856
 7893TIP3   OH245169   1.021   3.789   5.934  0.5856  0.1515 -0.3038
 7893TIP3    H145170   1.068   3.754   6.009  1.1301  1.0547 -0.2176
 7893TIP3    H245171   1.049   3.881   5.928 -0.5459  0.4841 -0.7305
 7894TIP3   OH245172   0.640   6.208  16.419 -0.6619  0.7135  0.4491
 7894TIP3    H145173   0.694   6.131  16.404 -1.0845 -0.0788  2.7087
 7894TIP3    H245174   0.702   6.280  16.425 -0.1589  0.3669 -0.4148
 7895TIP3   OH245175   0.499   0.342  13.733 -0.0178  0.0875 -0.2354
 7895TIP3    H145176   0.445   0.264  13.727  1.1560 -0.6081 -2.2062
 7895TIP3    H245177   0.443   0.413  13.700 -0.6850 -0.1053  0.4642
 7896TIP3   OH245178   6.035   1.784   1.434 -0.6970 -0.1637  0.3944
 7896TIP3    H145179   6.004   1.702   1.394 -1.8009  0.6250 -0.4043
 7896TIP3    H245180   6.118   1.802   1.391 -0.1504 -1.1734  1.0034
 7897TIP3   OH245181   5.439   3.353   4.851 -0.4880  0.2452  0.1819
 7897TIP3    H145182   5.453   3.266   4.814  0.2833  0.5572 -0.2686
 7897TIP3    H245183   5.391   3.337   4.933 -1.0166 -0.5375 -0.2810
 7898TIP3   OH245184   4.111   1.606  16.239  0.4600 -0.0503  0.3770
 7898TIP3    H145185   4.120   1.649  16.154 -0.5806 -0.0472  0.2624
 7898TIP3    H245186   4.117   1.677  16.302  1.8692 -0.1292  0.3459
 7899TIP3   OH245187   4.465   6.528  14.007 -0.0500 -0.1249  0.0619
 7899TIP3    H145188   4.422   6.552  14.089  0.4598  0.5765  0.1289
 7899TIP3    H245189   4.554   6.562  14.016 -0.3531  1.0620 -1.2839
 7900TIP3   OH245190   6.482   2.731   0.980  0.3427  0.2276 -0.8126
 7900TIP3    H145191   6.443   2.644   0.990 -0.5329  0.7854  0.6774
 7900TIP3    H245192   6.502   2.737   0.886  1.2034 -1.9097 -0.8017
 7901TIP3   OH245193   2.093   6.729  10.562 -0.0412 -0.2993  0.3354
 7901TIP3    H145194   2.084   6.659  10.498  0.0495  0.5694 -0.6366
 7901TIP3    H245195   2.004   6.763  10.573  0.4434  1.9988 -2.1472
 7902TIP3   OH245196   3.858   4.716   2.799  0.2485 -0.2614  0.6983
 7902TIP3    H145197   3.882   4.739   2.889 -0.3423 -2.6282  1.4888
 7902TIP3    H245198   3.939   4.729   2.749  1.1168 -0.7827  1.9430
 7903TIP3   OH245199   2.923   0.367   5.893 -0.1855  0.1164 -0.0344
 7903TIP3    H145200   2.992   0.428   5.866 -0.6981  1.2394  1.1541
 7903TIP3    H245201   2.858   0.422   5.936 -1.3077 -1.0924 -0.1555
 7904TIP3   OH245202   6.733   3.111  14.872  0.2156  0.1953 -0.6418
 7904TIP3    H145203   6.649   3.072  14.848 -0.5156 -0.4359  2.7410
 7904TIP3    H245204   6.790   3.036  14.888  0.5049  0.5757  0.1120
 7905TIP3   OH245205   4.573   6.699   2.249 -0.0694 -0.5114  0.3623
 7905TIP3    H145206   4.569   6.733   2.338 -0.6225 -0.2598  0.2483
 7905TIP3    H245207   4.651   6.740   2.211  0.7303 -1.4149  1.0468
 7906TIP3   OH245208   6.606   2.846   2.888 -0.2534 -0.0791 -0.0275
 7906TIP3    H145209   6.550   2.769   2.898 -1.4868  0.9379  1.2685
 7906TIP3    H245210   6.552   2.908   2.838  0.5622  0.1122 -0.6838
 7907TIP3   OH245211   3.018   4.082   0.227 -0.2677 -0.4559 -0.4555
 7907TIP3    H145212   3.080   4.139   0.181  0.2876  0.4708  1.3897
 7907TIP3    H245213   2.977   4.139   0.292 -1.1468 -1.7096  0.1012
 7908TIP3   OH245214   3.444   1.891   3.248 -0.0864  0.3897  0.2356
 7908TIP3    H145215   3.366   1.890   3.194  0.7297  1.2070 -0.9659
 7908TIP3    H245216   3.417   1.934   3.329 -1.0865 -0.0719  0.1491
 7909TIP3   OH245217   2.566   4.647  15.562  0.5618 -0.5656 -0.4713
 7909TIP3    H145218   2.624   4.680  15.493 -1.3791 -0.3290 -2.0327
 7909TIP3    H245219   2.493   4.608  15.514 -0.9062 -0.2142  1.4740
 7910TIP3   OH245220   4.854   5.186  16.587  0.1244  0.6360 -0.7486
 7910TIP3    H145221   4.851   5.117  16.520  1.7263 -1.2922  1.0878
 7910TIP3    H245222   4.934   5.235  16.567  0.3309  0.3807 -0.5497
 7911TIP3   OH245223   5.376   3.258   3.634  0.4965 -0.6557 -0.1312
 7911TIP3    H145224   5.375   3.306   3.717  0.3339  0.4018 -0.7298
 7911TIP3    H245225   5.436   3.309   3.579 -0.8856 -0.2596 -1.2943
 7912TIP3   OH245226   1.927   0.528  10.820 -0.0662  0.0112  0.6026
 7912TIP3    H145227   1.911   0.439  10.788 -1.1965  0.2495  0.5127
 7912TIP3    H245228   1.966   0.516  10.906 -0.1535 -0.5752  0.5602
 7913TIP3   OH245229   5.195   2.828  12.226 -0.4033  0.0565  0.1243
 7913TIP3    H145230   5.198   2.735  12.250 -2.5446  0.3052  1.4839
 7913TIP3    H245231   5.108   2.840  12.188 -0.6149  1.7727  1.1021
 7914TIP3   OH245232   3.873   5.098   1.560 -0.2198 -0.2346 -0.0832
 7914TIP3    H145233   3.929   5.023   1.542 -0.6697 -0.9632  1.4542
 7914TIP3    H245234   3.808   5.096   1.490  0.2265 -0.8336 -0.4871
 7915TIP3   OH245235   4.335   2.923   1.072 -0.0176  0.0969 -0.4226
 7915TIP3    H145236   4.366   3.012   1.053 -2.6447  1.7200  2.4803
 7915TIP3    H245237   4.277   2.902   0.998 -1.8366  2.1019  0.3733
 7916TIP3   OH245238   6.785   2.692   1.587  0.4054 -0.3628 -0.6260
 7916TIP3    H145239   6.812   2.604   1.560  0.7810 -0.1432 -0.9638
 7916TIP3    H245240   6.863   2.746   1.576 -0.2951  0.3908 -2.0962
 7917TIP3   OH245241   2.520   4.462   1.256 -0.4336  0.1648  0.1451
 7917TIP3    H145242   2.434   4.502   1.248 -0.8844 -0.2824  2.5297
 7917TIP3    H245243   2.571   4.523   1.308  0.0098 -0.6276  0.6497
 7918TIP3   OH245244   2.503   3.675  11.041  0.0807 -0.3171 -0.2899
 7918TIP3    H145245   2.412   3.664  11.015  0.5197  1.1408 -2.5577
 7918TIP3    H245246   2.553   3.642  10.966  1.3990  1.5312 -0.2499
 7919TIP3   OH245247   3.151   5.624   4.413  0.2645  0.6761  0.0374
 7919TIP3    H145248   3.152   5.530   4.393  0.9952  0.9719 -1.3209
 7919TIP3    H245249   3.065   5.654   4.383  0.4803  0.6723 -0.5795
 7920TIP3   OH245250   6.617   4.699  14.816 -0.3869 -0.5433 -0.0249
 7920TIP3    H145251   6.536   4.693  14.765 -1.2988 -0.2295  1.3580
 7920TIP3    H245252   6.607   4.632  14.884 -0.9443  1.6664  2.1417
 7921TIP3   OH245253   5.424   0.412   4.287  0.6158  0.0268 -0.1291
 7921TIP3    H145254   5.346   0.462   4.262 -0.6182 -0.0407  3.3824
 7921TIP3    H245255   5.419   0.332   4.233 -0.1154  1.3582 -2.0760
 7922TIP3   OH245256   5.685   2.555   3.869 -0.0920 -0.2115 -0.6063
 7922TIP3    H145257   5.661   2.513   3.787  1.7078 -1.4100 -0.5320
 7922TIP3    H245258   5.740   2.629   3.843  1.7467 -1.4785 -0.4441
 7923TIP3   OH245259   2.234   4.919  14.020  0.2653 -0.5009  0.0911
 7923TIP3    H145260   2.271   4.834  13.994 -1.9919 -2.0269  1.7123
 7923TIP3    H245261   2.142   4.900  14.039 -1.0350  2.9345 -2.4482
 7924TIP3   OH245262   0.735   0.243   5.796 -0.4320 -0.1455 -0.2696
 7924TIP3    H145263   0.699   0.161   5.830  0.2500 -0.0782  0.6009
 7924TIP3    H245264   0.660   0.285   5.753 -1.0750 -0.6497  0.3470
 7925TIP3   OH245265   5.204   2.400   0.542  0.1100  0.0777  0.2309
 7925TIP3    H145266   5.226   2.425   0.631  1.2113 -1.3933  0.3920
 7925TIP3    H245267   5.147   2.470   0.511 -0.5371  0.4425  2.1868
 7926TIP3   OH245268   1.937   2.496  15.296  0.3297  0.5706 -0.1939
 7926TIP3    H145269   1.889   2.570  15.332 -0.5339  0.8339 -1.8569
 7926TIP3    H245270   1.997   2.534  15.231  0.5924 -0.0826 -0.3451
 7927TIP3   OH245271   1.340   3.562  13.937 -0.4824  0.2324  0.0726
 7927TIP3    H145272   1.349   3.468  13.916 -1.6197  0.2370 -0.4403
 7927TIP3    H245273   1.370   3.569  14.028 -0.0643 -0.5675  0.0056
 7928TIP3   OH245274   1.086   5.936  15.242 -0.2439 -0.0697  0.1095
 7928TIP3    H145275   1.022   5.921  15.312 -0.9532 -0.6442 -0.6477
 7928TIP3    H245276   1.145   5.861  15.248 -0.1753 -0.0065  0.2288
 7929TIP3   OH245277   5.381   1.692   6.303  0.1139  0.5477  0.7256
 7929TIP3    H145278   5.287   1.710   6.296 -0.1849 -0.8081  0.9793
 7929TIP3    H245279   5.423   1.764   6.257 -1.0838  0.8114  0.0142
 7930TIP3   OH245280   4.620   2.225  16.865 -0.4374 -0.2370 -0.2719
 7930TIP3    H145281   4.538   2.271  16.887  0.2633  0.8058  0.1946
 7930TIP3    H245282   4.675   2.292  16.824  0.1222 -0.9772 -0.7319
 7931TIP3   OH245283   5.206   2.695   6.872 -0.0499 -0.5548  0.0517
 7931TIP3    H145284   5.135   2.664   6.816 -0.6342  2.6995 -1.1358
 7931TIP3    H245285   5.198   2.644   6.952 -3.6019 -0.4606 -0.1629
 7932TIP3   OH245286   2.775   5.068  16.255  0.3728  0.4599  0.2567
 7932TIP3    H145287   2.728   5.077  16.172 -0.1582 -0.1501  0.4906
 7932TIP3    H245288   2.841   5.138  16.253  0.8634 -0.0282 -1.0109
 7933TIP3   OH245289   1.050   4.326   0.236 -0.1803  0.3893  0.2745
 7933TIP3    H145290   1.050   4.286   0.148  2.8633 -0.9308  0.7786
 7933TIP3    H245291   1.054   4.420   0.219  2.2517  0.1042 -1.1049
 7934TIP3   OH245292   1.685   6.703  14.007  0.9903 -0.0062 -0.2061
 7934TIP3    H145293   1.726   6.779  14.047  2.6385 -1.0859  0.2153
 7934TIP3    H245294   1.670   6.642  14.079  0.2928 -0.3515 -0.6305
 7935TIP3   OH245295   1.239   0.911  14.654  0.7809  0.3110 -0.7960
 7935TIP3    H145296   1.306   0.927  14.588  1.1025  1.1962 -0.2695
 7935TIP3    H245297   1.212   0.999  14.682 -2.3964  0.0408 -2.8002
 7936TIP3   OH245298   6.556   3.890  16.545  0.0347  0.0514 -0.4586
 7936TIP3    H145299   6.634   3.914  16.494  0.5227  0.3537  0.4304
 7936TIP3    H245300   6.483   3.919  16.491  0.5483  0.2330 -1.0636
 7937TIP3   OH245301   3.146   6.279   0.780 -0.3213  0.7088  0.1803
 7937TIP3    H145302   3.215   6.295   0.715 -0.1697 -1.3885 -0.2077
 7937TIP3    H245303   3.193   6.252   0.859 -0.5992  1.5771  0.6537
 7938TIP3   OH245304   2.493   0.677  12.122  0.2988 -0.5985 -0.3771
 7938TIP3    H145305   2.484   0.739  12.194  3.9658  0.3220 -0.6303
 7938TIP3    H245306   2.404   0.644  12.108 -1.1663  2.1252  1.9428
 7939TIP3   OH245307   0.903   5.078   0.895 -0.1599 -0.5260 -0.5667
 7939TIP3    H145308   0.877   5.002   0.948 -1.0869 -0.3438 -0.7557
 7939TIP3    H245309   0.868   5.059   0.808  0.3345 -0.2658 -0.8224
 7940TIP3   OH245310   5.668   1.152  15.793  0.3197  0.0341  0.0986
 7940TIP3    H145311   5.580   1.189  15.783  0.2984 -0.3929 -1.4773
 7940TIP3    H245312   5.704   1.155  15.705  1.8208  0.0198  0.7089
 7941TIP3   OH245313   0.957   1.628   4.424  0.3500  0.2283 -0.5149
 7941TIP3    H145314   0.900   1.551   4.417  1.2230 -0.5095  0.2620
 7941TIP3    H245315   0.900   1.697   4.457 -0.5724  0.0616 -1.7170
 7942TIP3   OH245316   0.963   3.047  11.143 -0.1317  0.0593 -0.2274
 7942TIP3    H145317   0.882   3.002  11.169 -1.0116  1.7544  0.0376
 7942TIP3    H245318   0.974   3.023  11.051 -2.2226  1.6473 -0.9320
 7943TIP3   OH245319   5.584   0.871  16.115 -0.0013  0.1257 -0.0006
 7943TIP3    H145320   5.659   0.858  16.058 -1.0501 -0.8889 -1.1909
 7943TIP3    H245321   5.621   0.907  16.196  1.4122  2.4419 -1.6009
 7944TIP3   OH245322   1.574   1.613   5.860 -0.0500  0.3020 -0.2668
 7944TIP3    H145323   1.494   1.584   5.905  1.1367 -2.7171 -0.0509
 7944TIP3    H245324   1.558   1.592   5.768  0.3500  0.0629 -0.2785
 7945TIP3   OH245325   5.663   3.389   0.280 -0.3910  0.4303  0.2796
 7945TIP3    H145326   5.645   3.482   0.293  0.1008  0.3670  1.4546
 7945TIP3    H245327   5.685   3.382   0.187 -2.0591  1.2125 -0.1909
 7946TIP3   OH245328   0.656   4.475   2.627  0.3189  0.0744 -0.6999
 7946TIP3    H145329   0.724   4.468   2.694 -0.5953  1.5390  0.4149
 7946TIP3    H245330   0.656   4.568   2.601 -1.3751  0.1460 -0.5288
 7947TIP3   OH245331   3.867   6.800  11.088 -0.2772 -0.5807  0.6734
 7947TIP3    H145332   3.858   6.830  11.178  0.7167  1.6771  0.0608
 7947TIP3    H245333   3.908   6.874  11.042  1.7177 -2.6689 -1.0496
 7948TIP3   OH245334   4.914   6.096   5.472 -0.1505 -0.1093 -0.7315
 7948TIP3    H145335   4.926   6.088   5.377  1.0598  0.5104 -0.6363
 7948TIP3    H245336   4.995   6.062   5.510 -0.4940 -0.0433  0.0743
 7949TIP3   OH245337   0.264   3.505   5.842  0.0253 -0.1246 -0.0043
 7949TIP3    H145338   0.264   3.418   5.803 -1.0594 -0.1966  0.1453
 7949TIP3    H245339   0.345   3.509   5.892  0.1008 -1.0329 -0.0493
 7950TIP3   OH245340   5.740   6.321  15.800 -0.3421 -0.1630 -0.0898
 7950TIP3    H145341   5.791   6.245  15.772  1.6210  1.4538 -0.9928
 7950TIP3    H245342   5.730   6.309  15.895  1.9399 -0.3843  0.1491
 7951TIP3   OH245343   1.469   3.676  13.021  0.4082  0.2757 -0.2013
 7951TIP3    H145344   1.490   3.590  12.985  0.7854  0.3058 -0.0531
 7951TIP3    H245345   1.430   3.724  12.948  0.4671  0.0789 -0.3619
 7952TIP3   OH245346   5.066   3.795  12.273  0.0438  0.3052 -0.8057
 7952TIP3    H145347   4.992   3.846  12.239 -0.6572 -0.1424  0.0193
 7952TIP3    H245348   5.117   3.858  12.323 -0.0757  0.4984 -0.9246
 7953TIP3   OH245349   2.764   2.598  15.751  0.6431 -0.4210  0.4780
 7953TIP3    H145350   2.823   2.538  15.796  1.7791  0.0058 -0.4087
 7953TIP3    H245351   2.817   2.635  15.681 -0.6741  0.0097 -0.3050
 7954TIP3   OH245352   6.393   3.956   2.921 -0.2632 -0.2697 -0.2165
 7954TIP3    H145353   6.356   3.922   2.840  1.7267  1.1449 -1.7472
 7954TIP3    H245354   6.356   3.899   2.989 -3.1935 -0.5075 -1.9061
 7955TIP3   OH245355   6.300   2.402  11.437 -0.3641 -0.4245  0.0121
 7955TIP3    H145356   6.260   2.484  11.408  0.7633 -0.4838 -1.7894
 7955TIP3    H245357   6.300   2.407  11.533  2.3283  2.9489 -0.0865
 7956TIP3   OH245358   0.525   1.800  10.517  0.4105  0.4877 -0.2104
 7956TIP3    H145359   0.465   1.725  10.518  1.4538 -0.3516  0.3738
 7956TIP3    H245360   0.578   1.789  10.596  1.6059  1.0013 -0.9319
 7957TIP3   OH245361   5.734   5.796   6.296  0.0385  0.1650 -0.9267
 7957TIP3    H145362   5.797   5.788   6.368 -1.6116 -1.4771  0.3808
 7957TIP3    H245363   5.747   5.717   6.245  0.0289  0.5259 -1.4917
 7958TIP3   OH245364   3.481   6.782  14.077 -0.2465 -0.2927 -0.1308
 7958TIP3    H145365   3.436   6.800  13.994  0.1542 -2.4692 -0.8538
 7958TIP3    H245366   3.570   6.814  14.062 -0.3546 -0.0596 -0.2947
 7959TIP3   OH245367   2.179   3.186  13.092  0.5681  0.1430  0.0581
 7959TIP3    H145368   2.091   3.209  13.122  0.6421  1.5959 -0.8003
 7959TIP3    H245369   2.198   3.103  13.136 -0.5975  0.6140  1.5006
 7960TIP3   OH245370   6.077   0.999  14.768 -0.4444  0.2937  0.0699
 7960TIP3    H145371   5.989   1.036  14.771 -1.0176 -0.9311 -1.2188
 7960TIP3    H245372   6.065   0.906  14.790  0.5381  0.1319 -0.0203
 7961TIP3   OH245373   6.315   0.489  11.689  0.3337  0.1166 -0.0538
 7961TIP3    H145374   6.386   0.551  11.675 -1.2570  2.1963  0.9125
 7961TIP3    H245375   6.275   0.478  11.603  1.9783 -1.3316 -0.6788
 7962TIP3   OH245376   1.585   3.126   3.711 -0.2257 -0.4122  0.2716
 7962TIP3    H145377   1.552   3.041   3.738 -1.4042 -0.2578 -0.5909
 7962TIP3    H245378   1.517   3.188   3.739  0.1097  0.1061 -0.0483
 7963TIP3   OH245379   3.580   5.728   2.328 -0.1269 -0.5152  0.8828
 7963TIP3    H145380   3.653   5.778   2.290  0.7379 -2.8879 -0.6989
 7963TIP3    H245381   3.610   5.706   2.416  0.6481 -0.5803  0.6101
 7964TIP3   OH245382   1.943   5.300  13.844 -0.2113 -0.2432  0.5343
 7964TIP3    H145383   2.028   5.335  13.873 -0.0831 -0.6475  0.6513
 7964TIP3    H245384   1.964   5.246  13.768 -0.5143  0.5923 -0.1445
 7965TIP3   OH245385   0.948   5.464   3.357  0.0693  0.3032 -0.8604
 7965TIP3    H145386   0.905   5.380   3.375 -0.8639  0.6686 -1.3817
 7965TIP3    H245387   0.898   5.528   3.408  0.7950  0.5516 -0.4496
 7966TIP3   OH245388   3.009   1.659  16.523  0.2488 -0.5552 -0.0091
 7966TIP3    H145389   2.999   1.564  16.509  0.4329 -0.5631 -0.0878
 7966TIP3    H245390   3.095   1.679  16.486  0.1509 -0.3327 -0.1146
 7967TIP3   OH245391   6.712   6.146   5.647 -0.3407  0.4332  0.5136
 7967TIP3    H145392   6.660   6.197   5.708 -0.8988  1.7102 -0.9958
 7967TIP3    H245393   6.716   6.200   5.568 -0.1274 -1.4283 -0.7813
 7968TIP3   OH245394   1.547   5.877  13.512  0.0961 -0.1408  0.0751
 7968TIP3    H145395   1.633   5.865  13.473 -1.9513 -2.2402 -4.1119
 7968TIP3    H245396   1.529   5.793  13.555 -0.3225 -0.1297 -0.0755
 7969TIP3   OH245397   6.599   6.693  12.643 -0.5575  0.4593 -0.1097
 7969TIP3    H145398   6.505   6.679  12.629 -0.2232 -1.7269 -0.4832
 7969TIP3    H245399   6.636   6.689  12.555 -0.2463  2.6622 -0.1021
 7970TIP3   OH245400   4.437   1.594  10.481  0.4164  0.2413  0.2219
 7970TIP3    H145401   4.351   1.571  10.445  0.6164 -0.4466  0.1801
 7970TIP3    H245402   4.448   1.686  10.459  0.2702 -0.0141 -0.9539
 7971TIP3   OH245403   5.798   4.149   0.091  0.3060 -0.1314 -0.0615
 7971TIP3    H145404   5.809   4.221   0.153  0.0990 -0.4055  0.2912
 7971TIP3    H245405   5.710   4.116   0.107  0.3872 -0.4430 -0.2485
 7972TIP3   OH245406   5.354   5.889   2.553  0.3328  0.5679  0.1445
 7972TIP3    H145407   5.364   5.979   2.523 -0.6503  0.0458 -1.8715
 7972TIP3    H245408   5.443   5.856   2.562  0.6841  1.4314 -0.1532
 7973TIP3   OH245409   1.378   4.182  13.253 -0.3557  0.0995  0.2852
 7973TIP3    H145410   1.304   4.225  13.298  0.2993 -0.3393  1.8289
 7973TIP3    H245411   1.439   4.161  13.324  1.8517  1.5778 -1.1083
 7974TIP3   OH245412   5.300   1.733  15.745 -0.0495  0.2183 -0.1407
 7974TIP3    H145413   5.222   1.757  15.795  0.1813  3.0749 -1.0656
 7974TIP3    H245414   5.370   1.787  15.782  0.4616  1.1792 -2.4017
 7975TIP3   OH245415   6.159   0.047   2.094  0.0386  0.2709  0.3658
 7975TIP3    H145416   6.243   0.012   2.123  1.0531  1.8344 -0.6194
 7975TIP3    H245417   6.119  -0.024   2.043  0.1197 -0.9774  2.0236
 7976TIP3   OH245418   3.435   0.183   2.320  0.0536 -0.3760  0.8811
 7976TIP3    H145419   3.460   0.197   2.228 -1.2165 -0.5973  0.4909
 7976TIP3    H245420   3.515   0.201   2.369  0.8699 -0.6855 -0.3025
 7977TIP3   OH245421   4.637   4.230  13.068 -0.2903  0.0873  1.2430
 7977TIP3    H145422   4.668   4.308  13.114 -0.0661 -0.1894  1.5676
 7977TIP3    H245423   4.579   4.264  13.000  0.9081  0.6165  0.4829
 7978TIP3   OH245424   4.200   5.551   1.865 -0.1696 -0.4472 -0.2166
 7978TIP3    H145425   4.285   5.581   1.832  0.1972 -0.0866  1.0152
 7978TIP3    H245426   4.197   5.458   1.845  0.9731 -0.6816  0.6474
 7979TIP3   OH245427   1.527   6.025   1.355  0.4581 -0.3783  0.3928
 7979TIP3    H145428   1.535   6.008   1.449 -0.2386  0.5459  0.6276
 7979TIP3    H245429   1.444   5.983   1.331 -0.7252  1.6841  0.7552
 7980TIP3   OH245430   1.624   6.508   5.576 -0.9008 -0.6624 -0.3121
 7980TIP3    H145431   1.610   6.414   5.561 -0.9356 -0.8395  0.7758
 7980TIP3    H245432   1.715   6.523   5.551 -0.5592 -1.2208  0.5604
 7981TIP3   OH245433   3.683   0.839  11.079 -0.0081  0.4263 -0.3317
 7981TIP3    H145434   3.622   0.912  11.065  1.3170  1.9138  1.4077
 7981TIP3    H245435   3.768   0.874  11.054  0.7260 -0.3301  1.0723
 7982TIP3   OH245436   1.952   6.080   3.514 -0.4265 -0.1534  0.1695
 7982TIP3    H145437   1.982   6.024   3.441  1.0869  0.7124  0.1115
 7982TIP3    H245438   1.959   6.024   3.591 -0.3167 -0.5109 -0.0964
 7983TIP3   OH245439   1.173   4.084  13.790 -0.0821  0.2746  0.3138
 7983TIP3    H145440   1.087   4.046  13.807 -1.3402  2.2152 -1.6798
 7983TIP3    H245441   1.178   4.160  13.848  0.2775  0.2182  0.3616
 7984TIP3   OH245442   2.022   1.655   0.307  0.0589  0.2485 -0.3493
 7984TIP3    H145443   1.988   1.591   0.370  2.4783  0.7990  1.6022
 7984TIP3    H245444   2.101   1.616   0.272 -0.1664  0.8350 -1.5277
 7985TIP3   OH245445   2.395   3.972  16.918  0.0944 -0.0429  0.2005
 7985TIP3    H145446   2.432   3.945  16.834  0.0784  0.1677  0.1270
 7985TIP3    H245447   2.334   4.042  16.896  0.7549  0.6375  0.4820
 7986TIP3   OH245448   0.051   3.537  11.812  0.1895  0.7818 -0.5550
 7986TIP3    H145449   0.069   3.551  11.719 -0.3721  0.3576 -0.7314
 7986TIP3    H245450   0.081   3.448  11.829 -0.7054  0.4741 -0.5872
 7987TIP3   OH245451   1.289   2.915  11.706 -0.6050  0.5016 -0.2160
 7987TIP3    H145452   1.224   2.963  11.756 -0.2541  0.4573  0.2870
 7987TIP3    H245453   1.300   2.965  11.625 -1.1350  0.5999 -0.2252
 7988TIP3   OH245454   2.183   1.322   3.884  0.6773 -0.1619 -0.4259
 7988TIP3    H145455   2.240   1.380   3.834 -1.6776  0.7280 -2.1872
 7988TIP3    H245456   2.147   1.261   3.819  1.9922 -2.7474  1.1658
 7989TIP3   OH245457   4.487   2.410   5.228  0.5153  0.9596 -0.4528
 7989TIP3    H145458   4.556   2.369   5.176  0.2275  0.3392 -0.3554
 7989TIP3    H245459   4.467   2.346   5.296  1.3027  2.0145  0.7982
 7990TIP3   OH245460   1.300   3.707   4.727  0.7339 -0.0083 -0.5587
 7990TIP3    H145461   1.211   3.679   4.749  0.7552 -0.9261 -1.6197
 7990TIP3    H245462   1.344   3.627   4.699  1.9731  0.3978  0.2102
 7991TIP3   OH245463   1.510   0.123  14.321 -0.3346 -0.1818 -0.0313
 7991TIP3    H145464   1.536   0.095  14.408 -1.2478  1.7979  0.9166
 7991TIP3    H245465   1.589   0.114  14.268 -0.0871 -2.5475  0.6913
 7992TIP3   OH245466   4.922   2.912   6.105  0.2757 -0.2764  0.0238
 7992TIP3    H145467   4.850   2.852   6.084  0.6618 -1.7206  2.5881
 7992TIP3    H245468   4.973   2.866   6.171  0.8687  2.6890  1.7196
 7993TIP3   OH245469   4.934   2.136  16.247 -0.1299  0.0147  0.0492
 7993TIP3    H145470   4.922   2.105  16.157  2.8613 -2.9430  0.5825
 7993TIP3    H245471   4.971   2.224  16.238 -0.5539  0.0425 -1.5827
 7994TIP3   OH245472   3.212   2.518   1.868  0.0610  0.0983 -0.0003
 7994TIP3    H145473   3.148   2.515   1.797 -1.0304 -1.4425  1.0246
 7994TIP3    H245474   3.201   2.605   1.907 -0.8818  0.1167 -0.3045
 7995TIP3   OH245475   0.242   3.233  11.291 -0.4357 -0.4326 -0.6713
 7995TIP3    H145476   0.191   3.203  11.367  1.1839 -0.8251  0.2823
 7995TIP3    H245477   0.243   3.158  11.232 -3.6089  0.5941 -2.1472
 7996TIP3   OH245478   1.115   6.754   4.738  0.3739  0.5312 -0.7220
 7996TIP3    H145479   1.138   6.793   4.654 -2.9100 -0.8609 -2.3233
 7996TIP3    H245480   1.155   6.667   4.736 -0.1546  0.2981 -1.0549
 7997TIP3   OH245481   3.108   0.952  13.699  0.4709  0.7309 -0.0023
 7997TIP3    H145482   3.036   1.009  13.728 -0.1884 -1.4513  2.8524
 7997TIP3    H245483   3.164   0.943  13.777  1.8431 -0.6124 -1.1175
 7998TIP3   OH245484   3.016   4.397  11.013  0.1600 -0.5293  0.1597
 7998TIP3    H145485   3.076   4.456  11.059 -0.6783  2.0094 -1.8703
 7998TIP3    H245486   3.073   4.330  10.974  1.2867 -0.2328  1.2842
 7999TIP3   OH245487   0.898   2.360  16.859 -0.1701  0.4422  0.2581
 7999TIP3    H145488   0.854   2.325  16.937 -1.5560  0.3182 -0.5592
 7999TIP3    H245489   0.927   2.282  16.811  1.0912  0.5258  0.8610
 8000TIP3   OH245490   4.520   0.716   4.385  0.2899 -0.0175 -0.1081
 8000TIP3    H145491   4.553   0.735   4.473  1.9247 -0.6754 -0.5758
 8000TIP3    H245492   4.529   0.799   4.338 -1.4540  0.5925  0.5927
 8001TIP3   OH245493   2.169   1.620  16.898 -0.0289  1.1053  0.5141
 8001TIP3    H145494   2.131   1.649  16.981 -2.2361  0.6929 -0.3148
 8001TIP3    H245495   2.104   1.645  16.832  0.9566 -0.0429 -0.9173
 8002TIP3   OH245496   4.859   5.420   1.210 -0.2610 -0.0451 -0.4131
 8002TIP3    H145497   4.868   5.325   1.202 -0.6315 -0.2321  1.1798
 8002TIP3    H245498   4.847   5.435   1.304  2.2077  1.7930 -0.3285
 8003TIP3   OH245499   4.509   3.774  12.390 -0.2850  0.1904 -0.3402
 8003TIP3    H145500   4.533   3.861  12.358 -2.1929  0.5642 -0.8102
 8003TIP3    H245501   4.455   3.736  12.320  1.3985 -1.8095 -0.6121
 8004TIP3   OH245502   4.060   3.164  11.530 -0.1428 -0.4428 -0.3123
 8004TIP3    H145503   3.975   3.122  11.539 -1.0880  1.3309 -0.6230
 8004TIP3    H245504   4.091   3.138  11.443 -0.4775 -0.8871 -0.2984
 8005TIP3   OH245505   1.104   0.587   2.604  0.3948 -0.0583 -0.3676
 8005TIP3    H145506   1.048   0.511   2.590 -1.1302  0.6577  1.5731
 8005TIP3    H245507   1.056   0.661   2.567  0.9352  0.2625 -0.4399
 8006TIP3   OH245508   5.613   6.721   0.663 -0.5560  0.3442 -0.2842
 8006TIP3    H145509   5.552   6.655   0.630 -0.4597  0.2601 -0.2951
 8006TIP3    H245510   5.654   6.758   0.585  1.6677 -1.7507 -0.1753
 8007TIP3   OH245511   4.791   1.604  14.995 -0.4075  0.1716 -0.0264
 8007TIP3    H145512   4.755   1.685  15.032  0.5811 -0.0034  1.3535
 8007TIP3    H245513   4.760   1.536  15.054  1.0440 -0.1403  0.3769
 8008TIP3   OH245514   5.009   3.332   5.045 -0.6224 -0.1428 -0.0965
 8008TIP3    H145515   5.036   3.424   5.042  0.8109 -0.5470 -0.0521
 8008TIP3    H245516   5.052   3.297   5.123 -1.7644 -0.6735  0.3026
 8009TIP3   OH245517   5.730   5.812  11.306 -0.1181  0.7581 -0.0588
 8009TIP3    H145518   5.663   5.772  11.251  1.3238  1.0826 -2.1093
 8009TIP3    H245519   5.683   5.881  11.354 -1.1117  1.4524 -1.9810
 8010TIP3   OH245520   6.211   1.396   4.531 -0.7741 -0.2567 -0.6718
 8010TIP3    H145521   6.222   1.316   4.480  0.9152  0.9006 -2.1944
 8010TIP3    H245522   6.194   1.464   4.466 -0.5261  0.9029  0.4577
 8011TIP3   OH245523   0.884   0.969   4.694 -0.1630  0.0195 -0.3704
 8011TIP3    H145524   0.858   0.937   4.781  0.0307  0.9317  0.0309
 8011TIP3    H245525   0.801   0.990   4.650 -0.2195  0.6844  0.0390
 8012TIP3   OH245526   2.871   5.196  11.796 -0.2723  0.8340 -0.5557
 8012TIP3    H145527   2.893   5.206  11.703 -1.5266  1.4959 -0.7892
 8012TIP3    H245528   2.941   5.242  11.842  0.4961  0.2797 -1.1570
 8013TIP3   OH245529   6.149   3.168  15.506 -0.5482 -0.1127  0.4160
 8013TIP3    H145530   6.166   3.177  15.412  1.5468 -1.0620  0.6710
 8013TIP3    H245531   6.096   3.244  15.528  0.8036  1.3378 -1.1194
 8014TIP3   OH245532   3.355   3.655  14.035 -0.3430 -0.5572 -0.1961
 8014TIP3    H145533   3.436   3.605  14.044 -1.0211 -1.3713  1.5190
 8014TIP3    H245534   3.286   3.589  14.033 -1.0375  0.1670 -1.0150
 8015TIP3   OH245535   2.107   6.678  14.637 -0.5957  0.4270  0.5082
 8015TIP3    H145536   2.048   6.602  14.640  0.1741 -0.3267 -2.0804
 8015TIP3    H245537   2.132   6.692  14.728 -1.8185 -1.5732  1.2032
 8016TIP3   OH245538   5.424   1.282   5.709 -0.3663 -0.0054 -0.3338
 8016TIP3    H145539   5.492   1.233   5.663  0.3383  0.2146  0.4508
 8016TIP3    H245540   5.467   1.311   5.790 -0.9382  1.4516 -0.5518
 8017TIP3   OH245541   4.797   5.197  17.098 -0.6613  0.4604 -0.5816
 8017TIP3    H145542   4.722   5.230  17.146  0.7498 -1.4617  3.1565
 8017TIP3    H245543   4.870   5.254  17.124 -0.2524  0.6181 -2.0222
 8018TIP3   OH245544   6.004   3.463   2.141 -0.1803 -0.1977 -0.9725
 8018TIP3    H145545   5.934   3.414   2.184  0.3505 -0.4607 -0.3949
 8018TIP3    H245546   5.959   3.529   2.089 -0.8332  0.0001 -0.1614
 8019TIP3   OH245547   6.681   3.031  16.406 -0.2067  0.8065 -0.1923
 8019TIP3    H145548   6.759   3.004  16.357 -0.2132  0.3344  0.0607
 8019TIP3    H245549   6.624   3.071  16.339  0.4073  1.4978 -0.3103
 8020TIP3   OH245550   4.696   3.158  15.351 -0.2188 -0.2450 -0.1547
 8020TIP3    H145551   4.675   3.067  15.375  2.1324 -0.8288 -0.1582
 8020TIP3    H245552   4.665   3.166  15.261  0.3283 -1.3213 -0.4470
 8021TIP3   OH245553   2.023   5.535  17.038 -0.2860 -0.0542 -0.1081
 8021TIP3    H145554   1.939   5.576  17.016  0.7147  1.3451 -1.4873
 8021TIP3    H245555   2.088   5.598  17.008  1.2772 -1.5342  0.1077
 8022TIP3   OH245556   3.751   3.922  16.256  0.5842 -0.2808  0.2836
 8022TIP3    H145557   3.779   3.957  16.340  0.5651 -0.5540  0.4038
 8022TIP3    H245558   3.746   3.828  16.270 -0.5716 -0.2270  0.3212
 8023TIP3   OH245559   5.866   6.599   4.344 -0.4237 -0.5610  0.0139
 8023TIP3    H145560   5.866   6.540   4.419 -0.7714 -1.5130 -0.7237
 8023TIP3    H245561   5.949   6.581   4.299  0.1353  0.5490  0.5765
 8024TIP3   OH245562   2.355   1.284   3.613  0.2390 -0.2290  0.2941
 8024TIP3    H145563   2.319   1.370   3.590  0.2766  0.1134  1.5109
 8024TIP3    H245564   2.309   1.223   3.555  0.7628  0.6838 -1.1226
 8025TIP3   OH245565   1.334   4.489   2.673 -0.1447 -0.0450  0.3099
 8025TIP3    H145566   1.333   4.468   2.580 -0.0585  1.5324 -0.0620
 8025TIP3    H245567   1.243   4.478   2.701 -0.0755 -1.0411  0.1750
 8026TIP3   OH245568   2.113   4.122  12.884 -0.2217 -0.0101  0.2363
 8026TIP3    H145569   2.121   4.216  12.904  0.1310  0.4891 -2.0262
 8026TIP3    H245570   2.196   4.100  12.842 -0.6733 -1.0972 -0.0985
 8027TIP3   OH245571   0.610   1.677  16.436  0.0743  0.2974  0.0399
 8027TIP3    H145572   0.546   1.624  16.389 -0.4079 -1.5125  2.6744
 8027TIP3    H245573   0.687   1.678  16.379 -1.7868  1.4227 -2.5622
 8028TIP3   OH245574   6.363   2.659   1.542  0.5201  0.1737 -0.3300
 8028TIP3    H145575   6.427   2.702   1.599 -0.2265 -0.3089  0.8725
 8028TIP3    H245576   6.415   2.629   1.467  1.2462  2.0909 -0.6007
 8029TIP3   OH245577   2.738   3.501   3.527 -0.8825 -0.6802 -0.5977
 8029TIP3    H145578   2.679   3.426   3.538 -0.9324 -0.5118  0.3369
 8029TIP3    H245579   2.694   3.573   3.573  0.9212 -1.0228  1.7607
 8030TIP3   OH245580   3.325   2.052  16.155  0.0085 -0.6721 -0.5406
 8030TIP3    H145581   3.237   2.060  16.192  0.6301  0.6079  0.6997
 8030TIP3    H245582   3.381   2.035  16.231  0.7217 -2.3442 -1.4271
 8031TIP3   OH245583   5.250   4.307  12.449 -0.3573  0.1727  0.2321
 8031TIP3    H145584   5.220   4.284  12.537  0.2421 -0.5865  0.2409
 8031TIP3    H245585   5.208   4.243  12.392  1.8487 -1.3961  0.3251
 8032TIP3   OH245586   5.935   4.477   4.060  0.1125  0.1798 -0.0103
 8032TIP3    H145587   5.955   4.507   4.149 -0.3884  0.8149 -0.1113
 8032TIP3    H245588   5.910   4.385   4.071 -4.4571  1.4668  1.1288
 8033TIP3   OH245589   0.181   6.340   2.219 -0.0112  0.0211  0.0018
 8033TIP3    H145590   0.216   6.408   2.161 -1.4265  0.0402 -0.8576
 8033TIP3    H245591   0.089   6.330   2.192 -0.2257 -1.1817  1.1100
 8034TIP3   OH245592   4.843   4.007  11.682 -0.3903 -0.0668 -0.0252
 8034TIP3    H145593   4.920   3.979  11.732 -0.0885 -0.3787 -0.6632
 8034TIP3    H245594   4.793   3.926  11.667 -0.3650 -0.0109 -0.4215
 8035TIP3   OH245595   1.416   0.917  14.143 -0.5732  0.1161 -0.3788
 8035TIP3    H145596   1.425   0.880  14.055 -0.0142  0.6510 -0.5534
 8035TIP3    H245597   1.341   0.872  14.181 -0.0293 -1.0359 -0.6636
 8036TIP3   OH245598   0.975   2.859  16.179  0.3114  0.1434 -0.1692
 8036TIP3    H145599   1.035   2.785  16.165 -0.1560 -0.0742 -1.1210
 8036TIP3    H245600   1.009   2.929  16.123 -0.7967 -0.2715 -1.4065
 8037TIP3   OH245601   1.934   3.435  16.996  0.0521 -0.9963  0.0401
 8037TIP3    H145602   1.931   3.500  17.066  0.4485 -0.3443 -0.5433
 8037TIP3    H245603   1.957   3.353  17.041 -1.7286 -1.0099  0.9613
 8038TIP3   OH245604   0.809   1.862   3.129 -0.4822  0.5786  0.2292
 8038TIP3    H145605   0.899   1.893   3.130 -0.2468  0.2241 -2.7594
 8038TIP3    H245606   0.770   1.905   3.053 -2.5747  0.0452  0.9638
 8039TIP3   OH245607   2.711   1.980  16.366 -0.5491  0.0775  0.1707
 8039TIP3    H145608   2.714   1.944  16.455  1.5932  0.0541  0.1189
 8039TIP3    H245609   2.746   1.911  16.311 -0.5953  0.5958 -0.5199
 8040TIP3   OH245610   3.355   5.109   5.311  0.6571  0.3933  0.4011
 8040TIP3    H145611   3.348   5.022   5.273  1.7799  0.9394 -1.0836
 8040TIP3    H245612   3.442   5.112   5.350  0.1273  0.4132  1.6330
 8041TIP3   OH245613   0.371   3.858  14.472  0.3992 -0.2904  0.6884
 8041TIP3    H145614   0.366   3.781  14.416 -0.2370  0.8440 -0.8425
 8041TIP3    H245615   0.288   3.861  14.518 -0.2197  0.3622 -0.4526
 8042TIP3   OH245616   1.735   0.602   4.657 -0.0067 -0.8991 -0.9217
 8042TIP3    H145617   1.684   0.521   4.650 -0.3791 -0.6482 -1.0811
 8042TIP3    H245618   1.793   0.600   4.581  1.9486 -2.3800  0.5223
 8043TIP3   OH245619   1.095   3.367  15.710  0.6021  0.1465 -0.3437
 8043TIP3    H145620   1.096   3.348  15.617  0.4049 -2.3384  0.1286
 8043TIP3    H245621   1.008   3.339  15.740 -0.6342  4.0568  0.0127
 8044TIP3   OH245622   0.159   1.275  14.173 -0.6851  0.1968  0.1468
 8044TIP3    H145623   0.113   1.322  14.243 -1.3378  0.8992 -0.7270
 8044TIP3    H245624   0.089   1.240  14.118 -0.1807  0.1659 -0.4808
 8045TIP3   OH245625   1.730   4.547   4.402 -0.3764 -0.6765 -0.3686
 8045TIP3    H145626   1.767   4.499   4.476  0.3639 -0.8239 -0.8346
 8045TIP3    H245627   1.637   4.522   4.401 -0.8047  0.6869  1.5832
 8046TIP3   OH245628   4.598   3.421  15.682 -1.1823 -0.0346 -0.0182
 8046TIP3    H145629   4.671   3.461  15.635 -2.0194  0.6575 -0.7509
 8046TIP3    H245630   4.612   3.326  15.671  1.1846 -0.0063  2.3308
 8047TIP3   OH245631   0.131   1.894   2.328 -0.4935  0.5341  0.0069
 8047TIP3    H145632   0.095   1.910   2.241 -1.4476  0.9640  0.4795
 8047TIP3    H245633   0.186   1.971   2.345  0.5615 -0.0596 -0.6568
 8048TIP3   OH245634   0.519   2.683   6.454  0.4859 -0.5558  0.0750
 8048TIP3    H145635   0.477   2.723   6.378 -0.1896 -0.7983  0.3157
 8048TIP3    H245636   0.550   2.598   6.423  0.8089 -0.3738 -0.1041
 8049TIP3   OH245637   6.081   2.127   3.539 -0.2506  0.0026  0.0662
 8049TIP3    H145638   6.011   2.063   3.527 -0.5222  0.4876 -0.9445
 8049TIP3    H245639   6.090   2.135   3.634 -1.1750 -0.4844  0.1969
 8050TIP3   OH245640   3.326   5.685   5.860  0.7765 -0.2041 -0.4150
 8050TIP3    H145641   3.341   5.644   5.775  1.1363  0.4330 -0.6639
 8050TIP3    H245642   3.264   5.756   5.842  0.1413 -0.6411  0.0156
 8051TIP3   OH245643   3.115   0.477   0.916 -0.1462  0.2638 -0.2476
 8051TIP3    H145644   3.199   0.439   0.940 -0.0210 -0.0822 -1.2341
 8051TIP3    H245645   3.109   0.466   0.821 -1.7964 -0.7404 -0.0517
 8052TIP3   OH245646   0.074   1.194  12.770 -0.4236 -0.2594  0.6185
 8052TIP3    H145647  -0.013   1.179  12.734  1.0174 -4.1841 -1.4264
 8052TIP3    H245648   0.109   1.268  12.719 -1.2143 -0.9666 -0.9608
 8053TIP3   OH245649   2.065   2.892   2.356  0.1756 -0.6307 -0.4526
 8053TIP3    H145650   2.079   2.805   2.392  1.8475 -1.2900 -2.5566
 8053TIP3    H245651   1.980   2.919   2.390  1.3176 -1.5004  3.2468
 8054TIP3   OH245652   5.490   0.786   5.736  0.3431  0.1653  0.3466
 8054TIP3    H145653   5.538   0.789   5.819  1.8882 -0.8127 -0.4853
 8054TIP3    H245654   5.473   0.878   5.715  1.9000  0.5326  0.6326
 8055TIP3   OH245655   1.305   6.129  16.139  0.7045  0.0423  0.5278
 8055TIP3    H145656   1.320   6.223  16.130 -0.1163  0.1211 -0.0394
 8055TIP3    H245657   1.390   6.094  16.166  1.2552  0.8201 -0.1812
 8056TIP3   OH245658   3.867   5.252  16.527  0.0349  1.0295 -0.2993
 8056TIP3    H145659   3.908   5.192  16.464 -1.1330 -0.1148  0.0018
 8056TIP3    H245660   3.937   5.312  16.553  0.5711  1.4521 -2.6102
 8057TIP3   OH245661   2.848   4.956   3.148  0.5340  0.3285 -0.6520
 8057TIP3    H145662   2.767   4.909   3.166  0.9953 -0.7646 -1.3754
 8057TIP3    H245663   2.835   5.042   3.187 -0.5599 -0.1951  0.1580
 8058TIP3   OH245664   3.374   4.345   5.334  0.0520 -0.4455  0.3850
 8058TIP3    H145665   3.395   4.305   5.249 -0.4045 -0.4256  0.2604
 8058TIP3    H245666   3.457   4.346   5.381 -0.0853 -2.2672  0.6895
 8059TIP3   OH245667   3.582   2.516   3.783 -0.1493  0.4242 -0.0604
 8059TIP3    H145668   3.620   2.437   3.742  0.6590  0.0719  1.3410
 8059TIP3    H245669   3.646   2.584   3.764 -0.2269  0.4674 -0.1697
 8060TIP3   OH245670   3.477   4.651  12.760 -0.2018  0.2259 -0.8496
 8060TIP3    H145671   3.528   4.714  12.811  1.1017 -1.0813 -0.5317
 8060TIP3    H245672   3.417   4.612  12.824  0.9326 -0.8877 -0.4520
 8061TIP3   OH245673   0.208   3.661   4.220 -0.0326 -0.1362 -0.0822
 8061TIP3    H145674   0.148   3.624   4.155 -0.5121 -1.0071  0.8291
 8061TIP3    H245675   0.160   3.734   4.258  0.9331  1.4851 -1.9184
 8062TIP3   OH245676   1.625   0.907   5.707  0.0332 -0.0207 -0.6670
 8062TIP3    H145677   1.574   0.973   5.754  2.1798  0.8923  0.4399
 8062TIP3    H245678   1.659   0.850   5.776  0.2087 -0.8437 -1.4235
 8063TIP3   OH245679   3.072   5.018  15.698 -0.3632 -0.4939 -0.0049
 8063TIP3    H145680   3.127   4.972  15.761  0.4029  0.4231  0.0136
 8063TIP3    H245681   3.103   4.989  15.612  0.7893  0.7326 -0.0119
 8064TIP3   OH245682   4.186   3.374  12.561 -0.0225 -0.1916 -0.0443
 8064TIP3    H145683   4.177   3.368  12.656 -0.6781  0.8882 -0.0308
 8064TIP3    H245684   4.164   3.465  12.541  1.6260 -0.0055 -1.0694
 8065TIP3   OH245685   0.341   0.308   3.945  0.2707 -0.3828  0.1649
 8065TIP3    H145686   0.254   0.339   3.920  0.5206 -1.0755 -1.6997
 8065TIP3    H245687   0.401   0.366   3.900  0.7489 -1.1683 -0.2328
 8066TIP3   OH245688   4.751   4.145  15.658 -0.2844  0.4286  0.7395
 8066TIP3    H145689   4.661   4.119  15.675 -0.1754  0.0673  0.7572
 8066TIP3    H245690   4.757   4.235  15.691 -0.8673  0.7501 -0.0137
 8067TIP3   OH245691   4.530   2.806   0.663  0.2019  0.6252 -0.1008
 8067TIP3    H145692   4.578   2.786   0.743 -0.7448 -1.4058 -0.0159
 8067TIP3    H245693   4.598   2.812   0.596  1.0493  2.7866  0.8878
 8068TIP3   OH245694   3.241   5.270  12.846  0.1054  0.0263  0.0651
 8068TIP3    H145695   3.186   5.339  12.884 -0.7295 -0.6236  0.0647
 8068TIP3    H245696   3.268   5.305  12.761  2.0371  1.5171  1.2558
 8069TIP3   OH245697   1.849   5.922   6.022  0.7448  0.1422 -0.5454
 8069TIP3    H145698   1.936   5.956   6.004  0.9826 -0.4740 -0.5801
 8069TIP3    H245699   1.847   5.837   5.977 -0.4579  0.9042 -1.9966
 8070TIP3   OH245700   3.550   3.422  12.783 -0.3476  0.4192 -0.1325
 8070TIP3    H145701   3.536   3.498  12.727  0.0739 -0.7285 -1.8266
 8070TIP3    H245702   3.499   3.352  12.742 -0.3873 -0.3238  1.1641
 8071TIP3   OH245703   4.188   0.087  11.405 -0.2393  0.0805 -0.0488
 8071TIP3    H145704   4.281   0.074  11.427 -0.2862  0.5417  0.4187
 8071TIP3    H245705   4.184   0.069  11.311  0.2046 -0.5715  0.0503
 8072TIP3   OH245706   5.503   4.352  14.650  0.5863  0.5214  0.1399
 8072TIP3    H145707   5.462   4.287  14.708  1.5052  1.0082  1.3592
 8072TIP3    H245708   5.524   4.425  14.708  0.0348  1.6914 -1.1330
 8073TIP3   OH245709   6.415   5.965  14.295  0.5929  0.3016  0.2186
 8073TIP3    H145710   6.362   5.906  14.348  1.2734  1.6897  2.5000
 8073TIP3    H245711   6.378   6.052  14.311  1.3809  0.8548 -0.8785
 8074TIP3   OH245712   5.504   5.252   1.046  0.2506 -0.3685 -0.0265
 8074TIP3    H145713   5.558   5.326   1.018  1.8810 -1.0888  1.1094
 8074TIP3    H245714   5.416   5.287   1.052  0.6237  0.9284 -1.6512
 8075TIP3   OH245715   1.253   3.369  12.297 -0.5969  0.0835  0.1917
 8075TIP3    H145716   1.337   3.328  12.318 -0.5460  0.7241  1.2453
 8075TIP3    H245717   1.271   3.462  12.291 -0.9615  0.0893 -0.9901
 8076TIP3   OH245718   1.365   5.275   1.150  0.0064 -0.4248 -0.2125
 8076TIP3    H145719   1.307   5.284   1.074  0.6168 -1.3846 -0.8140
 8076TIP3    H245720   1.371   5.363   1.187  0.6790  0.3182 -2.0135
 8077TIP3   OH245721   6.501   4.187  13.600  0.4578 -0.1745 -0.0795
 8077TIP3    H145722   6.550   4.161  13.678  0.3876  0.7195  0.2673
 8077TIP3    H245723   6.538   4.133  13.530 -0.3283 -1.8841  0.7978
 8078TIP3   OH245724   2.839   4.265  13.206 -0.2437  0.1783  0.5058
 8078TIP3    H145725   2.880   4.347  13.175  1.3869 -0.4338  0.9592
 8078TIP3    H245726   2.850   4.204  13.133  1.0332 -0.4267  1.1808
 8079TIP3   OH245727   1.349   3.636   5.478  0.2822 -0.2834 -0.1023
 8079TIP3    H145728   1.314   3.678   5.399  1.0089 -1.7135 -1.2148
 8079TIP3    H245729   1.362   3.708   5.540 -3.1045  0.4766 -0.2068
 8080TIP3   OH245730   1.631   0.969  12.250 -0.1561  0.0999 -0.5177
 8080TIP3    H145731   1.539   0.947  12.237 -0.4078  0.5141  0.4914
 8080TIP3    H245732   1.674   0.947  12.167 -1.2023  0.1097 -1.0613
 8081TIP3   OH245733   5.163   4.570  11.859 -0.0464  0.2203 -0.2419
 8081TIP3    H145734   5.080   4.608  11.830 -0.1135  0.2322 -0.0429
 8081TIP3    H245735   5.142   4.531  11.944  0.0047 -0.3138 -0.4729
 8082TIP3   OH245736   3.191   0.638  15.389 -0.1337 -0.0341 -0.0469
 8082TIP3    H145737   3.269   0.615  15.440  0.0736  0.2597 -0.2295
 8082TIP3    H245738   3.224   0.655  15.301 -0.6943 -2.0437 -0.6610
 8083TIP3   OH245739   2.288   3.322  15.480 -0.1680 -0.1872 -0.7293
 8083TIP3    H145740   2.284   3.244  15.535 -0.0272  1.1114  1.1774
 8083TIP3    H245741   2.203   3.365  15.494  0.8867  1.5181  0.5464
 8084TIP3   OH245742   3.496   6.430   4.548  0.1194 -0.2557  0.3475
 8084TIP3    H145743   3.408   6.393   4.540 -0.7645  1.8055  0.0962
 8084TIP3    H245744   3.513   6.468   4.462  1.0810 -0.2617  0.5337
 8085TIP3   OH245745   1.154   5.115  16.878 -0.0316 -0.4697  1.1525
 8085TIP3    H145746   1.199   5.031  16.878  0.7951 -0.0570 -1.1375
 8085TIP3    H245747   1.109   5.118  16.794 -0.6394  1.0776  1.5163
 8086TIP3   OH245748   5.012   6.421   3.333  0.2277  0.4042  0.3570
 8086TIP3    H145749   4.974   6.365   3.265  1.8659 -0.6500  0.3011
 8086TIP3    H245750   4.955   6.498   3.334 -1.4246 -0.7756 -0.3053
 8087TIP3   OH245751   5.189   3.445   3.003  0.1013  0.1061  0.6404
 8087TIP3    H145752   5.165   3.528   2.961  1.6622  1.0872  1.6378
 8087TIP3    H245753   5.141   3.445   3.086 -1.5079 -0.9637 -0.2634
 8088TIP3   OH245754   5.061   3.649   0.042  0.1166  0.4584  0.1110
 8088TIP3    H145755   5.018   3.638  -0.043 -0.3883  1.1953  0.2592
 8088TIP3    H245756   4.998   3.617   0.106  0.1543  0.6786  0.2630
 8089TIP3   OH245757   0.214   0.801  13.453 -0.6663 -0.7310  0.6312
 8089TIP3    H145758   0.140   0.745  13.473 -1.7712 -0.4204 -2.3778
 8089TIP3    H245759   0.177   0.873  13.402  1.3406  0.7007  1.1274
 8090TIP3   OH245760   1.244   3.409  13.606  0.1447  0.3530 -1.1605
 8090TIP3    H145761   1.320   3.375  13.653 -1.6500 -1.5653  0.4451
 8090TIP3    H245762   1.258   3.383  13.516  2.1539  1.4162 -1.1871
 8091TIP3   OH245763   0.690   4.725   3.401 -0.1617  0.5512 -0.4874
 8091TIP3    H145764   0.597   4.744   3.418 -0.5467  0.6905 -2.5177
 8091TIP3    H245765   0.697   4.630   3.409 -0.4655  0.5552 -0.1913
 8092TIP3   OH245766   5.166   0.213   6.665 -0.3298 -0.5074 -0.4158
 8092TIP3    H145767   5.122   0.287   6.623 -0.6494 -0.6134 -0.2693
 8092TIP3    H245768   5.259   0.232   6.655 -0.3977  0.7354  1.0571
 8093TIP3   OH245769   2.172   2.830  16.476 -0.2821 -0.2126 -0.4835
 8093TIP3    H145770   2.164   2.776  16.555 -1.1152  1.7301  0.8059
 8093TIP3    H245771   2.233   2.782  16.420  0.0982 -1.7740  1.2099
 8094TIP3   OH245772   6.738   6.003   1.697  0.4961 -0.4768 -0.2186
 8094TIP3    H145773   6.700   6.091   1.700  0.7487 -0.4125  1.4818
 8094TIP3    H245774   6.664   5.945   1.680 -0.2118 -0.2415  1.9569
 8095TIP3   OH245775   0.932   3.929  15.301 -0.0880 -0.0364  0.0695
 8095TIP3    H145776   1.016   3.886  15.316 -0.0531 -0.0084 -0.0454
 8095TIP3    H245777   0.950   4.022  15.311 -0.2749 -0.0744  0.8541
 8096TIP3   OH245778   2.995   0.499   4.826 -0.1505 -0.3362  0.5777
 8096TIP3    H145779   2.933   0.428   4.811 -0.6267  0.0094  0.9036
 8096TIP3    H245780   3.080   0.456   4.834 -0.5984 -0.9880  2.0287
 8097TIP3   OH245781   3.211   6.712   2.542 -0.1419  0.2172  0.3620
 8097TIP3    H145782   3.190   6.689   2.632 -0.6457 -1.0140 -0.0676
 8097TIP3    H245783   3.285   6.656   2.519  0.4625  1.0529  0.2454
 8098TIP3   OH245784   6.717   2.833  15.187  0.3675  0.2667  0.0102
 8098TIP3    H145785   6.727   2.859  15.095 -1.6673 -1.2763 -0.7059
 8098TIP3    H245786   6.685   2.911  15.231  1.1654  0.9673 -0.6425
 8099TIP3   OH245787   4.921   0.479   3.194 -0.0370 -0.4419 -0.6981
 8099TIP3    H145788   4.987   0.410   3.195  2.6786  2.0445 -1.3688
 8099TIP3    H245789   4.908   0.499   3.102  1.0131  1.5586 -0.4436
 8100TIP3   OH245790   3.296   5.394  14.918 -0.0422 -0.2481 -0.2408
 8100TIP3    H145791   3.202   5.397  14.936 -0.2237  1.6719 -1.2437
 8100TIP3    H245792   3.302   5.402  14.822  1.1393 -0.2509 -0.1764
 8101TIP3   OH245793   0.685   6.000  15.265  0.5959  0.4839  0.1306
 8101TIP3    H145794   0.744   6.049  15.208  1.4899 -0.5437  0.1589
 8101TIP3    H245795   0.683   6.050  15.346  1.1801  0.6944  0.0217
 8102TIP3   OH245796   6.211   0.063  15.494  0.7370  0.2370 -0.1622
 8102TIP3    H145797   6.277   0.014  15.444  1.6629  0.9586  0.3228
 8102TIP3    H245798   6.128   0.040  15.453  1.3525 -0.1754 -1.2166
 8103TIP3   OH245799   0.846   1.605   6.405 -0.1773 -0.1801  0.7794
 8103TIP3    H145800   0.814   1.685   6.363  0.7036  0.3669  1.1352
 8103TIP3    H245801   0.941   1.607   6.389 -0.1770 -1.2426  0.6391
 8104TIP3   OH245802   4.927   5.674   2.562 -0.1798 -0.2226  0.0825
 8104TIP3    H145803   4.860   5.689   2.495 -0.8759 -2.1387  0.3301
 8104TIP3    H245804   4.976   5.599   2.531 -0.8268 -1.4452  1.9510
 8105TIP3   OH245805   1.981   5.541  12.200 -0.5757  0.3777 -0.3574
 8105TIP3    H145806   1.900   5.523  12.152 -0.5018  0.1811 -0.4064
 8105TIP3    H245807   2.033   5.595  12.141 -1.5528  2.2870  0.4866
 8106TIP3   OH245808   3.457   5.258   0.956  0.4157  0.4345  0.8019
 8106TIP3    H145809   3.475   5.345   0.919 -0.2314  0.3598  0.2940
 8106TIP3    H245810   3.364   5.244   0.939  0.4690 -0.2749  1.0753
 8107TIP3   OH245811   5.639   6.501  12.620 -0.2299 -0.5364  0.4846
 8107TIP3    H145812   5.611   6.416  12.656 -1.4208  0.4456  1.9421
 8107TIP3    H245813   5.691   6.540  12.691  0.0778  0.0748 -0.0784
 8108TIP3   OH245814   1.329   5.505  14.360  0.0792 -0.1926 -0.1115
 8108TIP3    H145815   1.406   5.465  14.402  0.7806 -0.5107 -1.6515
 8108TIP3    H245816   1.285   5.552  14.431  1.0691 -0.9488  1.0385
 8109TIP3   OH245817   0.402   5.301   5.390  0.1307 -0.2315 -0.6730
 8109TIP3    H145818   0.494   5.278   5.403  0.0385 -1.2276 -1.7955
 8109TIP3    H245819   0.402   5.353   5.309 -0.2129  0.2901 -0.3398
 8110TIP3   OH245820   5.084   1.001   5.023  0.2165 -0.0815  0.0587
 8110TIP3    H145821   5.003   1.052   5.014  0.7434  0.7024 -0.3548
 8110TIP3    H245822   5.070   0.948   5.101 -1.6315 -1.6936 -1.3147
 8111TIP3   OH245823   2.845   5.019   1.795 -0.6917 -0.0203 -0.2334
 8111TIP3    H145824   2.778   5.037   1.861  0.2633 -0.8446  0.9572
 8111TIP3    H245825   2.814   4.941   1.749  0.6442 -1.8786  1.9503
 8112TIP3   OH245826   0.090   5.589  15.992 -0.8311 -0.0214 -0.1351
 8112TIP3    H145827   0.071   5.681  15.970 -1.5713 -0.2174 -0.3214
 8112TIP3    H245828   0.159   5.564  15.931 -1.5063  0.0353 -0.9415
 8113TIP3   OH245829   5.570   1.293   3.908  0.2276 -0.3792  0.6436
 8113TIP3    H145830   5.528   1.283   3.993 -2.3607 -1.1154 -0.6725
 8113TIP3    H245831   5.499   1.318   3.848  2.1968  1.3268 -1.0820
 8114TIP3   OH245832   5.610   5.007   3.979  0.2199  0.0920  0.1319
 8114TIP3    H145833   5.698   5.044   3.973 -0.1526  0.9359 -0.2096
 8114TIP3    H245834   5.580   5.030   4.067  0.3974 -0.3404  0.3092
 8115TIP3   OH245835   0.434   0.665  13.924 -0.1375 -0.3816 -0.0780
 8115TIP3    H145836   0.381   0.745  13.933  0.9727  0.2230  1.2758
 8115TIP3    H245837   0.371   0.594  13.937 -0.7091  0.3180  1.0929
 8116TIP3   OH245838   3.267   0.928  14.912 -0.1402 -0.1448  0.5239
 8116TIP3    H145839   3.175   0.944  14.930 -0.5594  0.2060 -1.7946
 8116TIP3    H245840   3.269   0.838  14.879  0.3684 -0.1879  0.6689
 8117TIP3   OH245841   6.488   6.162  14.044 -0.0289  0.1564  0.4402
 8117TIP3    H145842   6.479   6.093  14.109 -0.2557  0.3741  0.6443
 8117TIP3    H245843   6.559   6.217  14.077 -0.1503  0.2723  0.5069
 8118TIP3   OH245844   6.241   0.835   0.605 -0.3435  0.0884 -0.0314
 8118TIP3    H145845   6.258   0.813   0.513 -0.2608  1.9345 -0.4972
 8118TIP3    H245846   6.314   0.893   0.629 -0.5930 -0.0431  1.0685
 8119TIP3   OH245847   4.214   5.533  11.012 -0.0182  0.2226  0.4221
 8119TIP3    H145848   4.230   5.582  10.931 -1.2956  1.1307  0.7163
 8119TIP3    H245849   4.194   5.444  10.983  0.8165  0.2309 -0.1869
 8120TIP3   OH245850   1.756   4.796   0.108 -0.3761  0.0818 -0.0331
 8120TIP3    H145851   1.701   4.861   0.065 -0.1910  0.6161  0.5338
 8120TIP3    H245852   1.808   4.846   0.171 -1.2331 -0.7961  1.3880
 8121TIP3   OH245853   6.081   6.251  11.313 -0.2171 -0.0223  0.0978
 8121TIP3    H145854   6.099   6.246  11.219 -1.1941 -0.6365 -0.0680
 8121TIP3    H245855   6.112   6.338  11.338  0.0474  0.1542 -0.7979
 8122TIP3   OH245856   4.061   1.575   0.361 -0.3193  0.3940 -0.2439
 8122TIP3    H145857   4.095   1.644   0.419  3.2426 -0.7516 -0.8812
 8122TIP3    H245858   4.040   1.502   0.419  1.5143 -0.0886 -0.1645
 8123TIP3   OH245859   3.769   5.971  12.019 -0.4997 -0.0523  0.2105
 8123TIP3    H145860   3.823   6.043  11.987 -0.7534  0.3046  0.5901
 8123TIP3    H245861   3.787   5.899  11.958  1.6726 -0.4527  1.2864
 8124TIP3   OH245862   0.198   5.953   5.773  0.3122 -0.8041 -0.4427
 8124TIP3    H145863   0.206   5.896   5.849 -2.4117 -0.2531  0.3153
 8124TIP3    H245864   0.200   6.041   5.808 -0.1629 -0.5295 -1.0942
 8125TIP3   OH245865   0.796   1.298  16.095  0.4741  0.3255 -0.0418
 8125TIP3    H145866   0.878   1.254  16.074  0.6108 -0.1531  1.4081
 8125TIP3    H245867   0.759   1.322  16.011  2.2245  0.7626 -0.7067
 8126TIP3   OH245868   4.483   3.243  14.119  0.9208  0.0053  0.1687
 8126TIP3    H145869   4.412   3.302  14.144  0.7216 -0.6083  1.0692
 8126TIP3    H245870   4.535   3.294  14.057 -0.0229  0.6370 -0.1196
 8127TIP3   OH245871   4.662   6.146  13.288  0.0096  0.3497 -0.3479
 8127TIP3    H145872   4.588   6.134  13.228 -0.5790 -0.2549  0.4815
 8127TIP3    H245873   4.623   6.183  13.367  0.6777  0.5118 -0.0893
 8128TIP3   OH245874   5.192   3.262   0.351 -0.3468  0.0851  0.6506
 8128TIP3    H145875   5.257   3.289   0.286 -0.4402  0.9434  0.8992
 8128TIP3    H245876   5.136   3.339   0.360 -1.6151 -0.7686  0.1676
 8129TIP3   OH245877   1.161   1.068   2.586 -0.3914  0.2560  0.1649
 8129TIP3    H145878   1.118   1.122   2.520  0.3567 -0.6270 -1.0620
 8129TIP3    H245879   1.207   1.131   2.641 -0.7182  0.9790 -0.3804
 8130TIP3   OH245880   1.835   1.329  11.372  0.0880  0.0738  0.2459
 8130TIP3    H145881   1.912   1.292  11.329 -0.3039 -0.5640  0.0764
 8130TIP3    H245882   1.859   1.420  11.391  0.3740  0.2612 -1.0160
 8131TIP3   OH245883   4.600   4.225   1.435  0.2533  0.1102 -0.3768
 8131TIP3    H145884   4.536   4.164   1.400 -1.0919 -0.5870  3.0770
 8131TIP3    H245885   4.554   4.308   1.442 -0.2591 -0.3285  1.8686
 8132TIP3   OH245886   4.326   1.903   3.317  0.2471 -0.0038  0.4147
 8132TIP3    H145887   4.283   1.987   3.332 -1.3542 -0.6907 -0.1752
 8132TIP3    H245888   4.319   1.856   3.400  0.1167  0.0040  0.4083
 8133TIP3   OH245889   0.074   4.182  11.837  0.1505 -0.2760 -0.5887
 8133TIP3    H145890  -0.020   4.198  11.840  0.2186  0.1387 -0.6191
 8133TIP3    H245891   0.087   4.123  11.763 -0.0240  0.0815 -0.9009
 8134TIP3   OH245892   3.655   2.067   3.477  0.5836 -0.7746 -0.1869
 8134TIP3    H145893   3.748   2.054   3.460  0.4272 -4.3052  1.3348
 8134TIP3    H245894   3.641   2.033   3.565 -1.7007  2.0789  0.6119
 8135TIP3   OH245895   3.510   0.983  15.389  0.1661 -0.2896  0.4879
 8135TIP3    H145896   3.595   0.953  15.356 -0.2033 -0.7693 -0.0250
 8135TIP3    H245897   3.451   0.975  15.314 -0.0459  1.2882  0.4714
 8136TIP3   OH245898   0.730   5.536  11.774 -0.0978 -0.0377  0.9050
 8136TIP3    H145899   0.793   5.569  11.838 -0.8076  1.1240  1.0385
 8136TIP3    H245900   0.777   5.539  11.691  0.4708 -0.4932  1.2095
 8137TIP3   OH245901   5.047   4.107   5.742 -0.2898  0.2369 -0.1908
 8137TIP3    H145902   5.025   4.168   5.671  0.3429  1.8750  0.9835
 8137TIP3    H245903   5.091   4.162   5.807 -0.6116 -1.2928  1.3399
 8138TIP3   OH245904   5.463   5.137  13.801 -0.0982 -0.1496 -0.4313
 8138TIP3    H145905   5.388   5.187  13.769 -0.2254  1.2860  1.9748
 8138TIP3    H245906   5.427   5.053  13.829 -0.6169  0.1161 -0.3040
 8139TIP3   OH245907   6.160   1.192  13.137 -0.5433  0.0691 -0.3357
 8139TIP3    H145908   6.119   1.227  13.059  1.7107  0.5675 -1.3155
 8139TIP3    H245909   6.214   1.263  13.171  2.3544 -1.6590 -1.1180
 8140TIP3   OH245910   5.874   5.236  16.913 -0.2864  0.3514  0.1562
 8140TIP3    H145911   5.970   5.240  16.917 -0.2663 -0.3114  0.4058
 8140TIP3    H245912   5.846   5.327  16.918  0.3688  0.6275 -0.8675
 8141TIP3   OH245913   0.915   3.322  14.184 -0.4013  0.0850 -0.0497
 8141TIP3    H145914   0.881   3.314  14.273  0.0393  0.5586  0.1668
 8141TIP3    H245915   0.849   3.375  14.139 -0.4068  0.2226  0.1171
 8142TIP3   OH245916   0.924   1.922  13.563  0.3627  0.0069 -0.3940
 8142TIP3    H145917   0.919   1.858  13.493  1.2093  0.3840 -0.8053
 8142TIP3    H245918   0.991   1.889  13.622 -0.3330 -0.2992  0.2407
 8143TIP3   OH245919   1.152   3.876  14.765  0.3452  0.9246  0.2206
 8143TIP3    H145920   1.128   3.958  14.807  1.1009  1.4657 -0.3797
 8143TIP3    H245921   1.224   3.900  14.706  1.4845 -0.4105  1.0449
 8144TIP3   OH245922   6.370   6.741  13.879 -0.1529 -0.0361  0.0936
 8144TIP3    H145923   6.438   6.743  13.812  0.3193  0.0849  0.5692
 8144TIP3    H245924   6.391   6.664  13.932  0.3557  0.7206  1.0025
 8145TIP3   OH245925   3.384   2.231  14.002  0.5458  0.5473 -0.7598
 8145TIP3    H145926   3.357   2.162  14.063  2.3073  0.9479  0.5209
 8145TIP3    H245927   3.356   2.313  14.044  1.8982  0.8369 -0.3907
 8146TIP3   OH245928   0.759   3.673  12.452 -0.2312 -0.2982 -0.4725
 8146TIP3    H145929   0.670   3.705  12.436 -0.4311 -0.2811  0.6771
 8146TIP3    H245930   0.758   3.584  12.418 -0.5375 -0.1325 -0.9175
 8147TIP3   OH245931   0.185   1.193   0.025 -0.3291 -0.2182  0.2833
 8147TIP3    H145932   0.226   1.264   0.074  0.8378 -0.8599  0.2751
 8147TIP3    H245933   0.176   1.228  -0.064  1.8920 -0.6589 -0.1648
 8148TIP3   OH245934   4.083   5.872  17.275 -0.2801 -0.5286  0.8096
 8148TIP3    H145935   4.008   5.816  17.294 -1.4592  0.7696  0.0527
 8148TIP3    H245936   4.099   5.920  17.356 -0.4141 -0.6329  0.8975
 8149TIP3   OH245937   4.046   5.779   1.213 -0.2220 -0.0795  0.3884
 8149TIP3    H145938   4.025   5.690   1.186  4.0457 -1.3750  0.9191
 8149TIP3    H245939   4.068   5.772   1.306  1.3910  1.2548  0.1365
 8150TIP3   OH245940   6.085   4.424   4.289 -0.3187 -0.0307  0.3903
 8150TIP3    H145941   6.138   4.391   4.217 -1.1428  0.9704 -0.6954
 8150TIP3    H245942   6.121   4.381   4.367  0.4519 -1.2697 -0.6318
 8151TIP3   OH245943   1.077   0.508  14.873  0.3276  0.0302 -0.0240
 8151TIP3    H145944   1.140   0.458  14.821  1.5457  1.4343  0.0693
 8151TIP3    H245945   1.024   0.441  14.917  2.5506 -1.1936  0.8849
 8152TIP3   OH245946   5.555   4.537  15.632 -0.3634  0.0086 -0.0800
 8152TIP3    H145947   5.530   4.464  15.576  0.7107 -0.1053 -0.4093
 8152TIP3    H245948   5.475   4.557  15.681 -1.7186  1.0366 -2.6291
 8153TIP3   OH245949   0.030   0.954  13.362 -0.4071 -0.0132  0.0596
 8153TIP3    H145950  -0.042   0.991  13.310 -0.9775 -1.3761 -0.1414
 8153TIP3    H245951   0.021   0.994  13.448  0.2524  1.9055 -0.7479
 8154TIP3   OH245952   3.444   4.474  13.790  0.1427 -0.2094  0.0481
 8154TIP3    H145953   3.530   4.450  13.756 -0.1315 -0.8050 -0.2369
 8154TIP3    H245954   3.395   4.503  13.713  0.3379  0.8936  0.3286
 8155TIP3   OH245955   0.298   6.707   2.428  0.3152 -0.4273 -0.0844
 8155TIP3    H145956   0.393   6.711   2.433  0.3525 -1.0977 -0.3056
 8155TIP3    H245957   0.274   6.629   2.477 -0.0040 -1.2462 -1.5202
 8156TIP3   OH245958   3.053   6.009   1.782  0.3935  0.0521 -0.7620
 8156TIP3    H145959   2.990   5.970   1.843  1.5453 -0.4661  0.1288
 8156TIP3    H245960   3.000   6.062   1.723 -0.8968 -0.5508 -0.1687
 8157TIP3   OH245961   5.119   5.957   5.129  0.1328  0.0194  0.1194
 8157TIP3    H145962   5.075   5.873   5.121 -0.6167  0.6330 -2.9644
 8157TIP3    H245963   5.197   5.939   5.181 -0.5089 -2.3600  0.3013
 8158TIP3   OH245964   6.044   0.175  14.027 -0.0014  0.0652 -0.5515
 8158TIP3    H145965   6.126   0.146  13.985  1.7575  2.9537  0.7349
 8158TIP3    H245966   6.036   0.118  14.104  1.7436  0.8279  0.2381
 8159TIP3   OH245967   2.571   4.145  15.850 -0.2550  0.5033 -0.2083
 8159TIP3    H145968   2.555   4.177  15.761  2.2598  0.8680 -0.5680
 8159TIP3    H245969   2.633   4.073  15.839  1.1029  1.3975  1.3398
 8160TIP3   OH245970   1.121   1.569  13.982 -0.2255 -0.5233 -0.0529
 8160TIP3    H145971   1.097   1.624  14.057  2.0097  1.3116 -0.6401
 8160TIP3    H245972   1.139   1.483  14.019 -0.7086 -0.0550  1.2866
 8161TIP3   OH245973   0.790   0.110   0.499  0.3293 -0.4333 -0.3769
 8161TIP3    H145974   0.695   0.096   0.502  0.3556 -1.0414 -1.8163
 8161TIP3    H245975   0.801   0.204   0.516 -0.6501 -0.0622 -1.6619
 8162TIP3   OH245976   5.986   4.676  14.700  0.0309  0.1627  0.6390
 8162TIP3    H145977   5.969   4.743  14.766 -1.5936  1.0219 -0.6238
 8162TIP3    H245978   5.907   4.623  14.699 -0.1640  0.4611 -0.9706
 8163TIP3   OH245979   1.907   5.162   1.835 -0.2604  0.5002 -0.1676
 8163TIP3    H145980   1.917   5.105   1.759  0.0039  0.1218  0.1517
 8163TIP3    H245981   1.910   5.251   1.799  0.8664  0.3393 -0.4756
 8164TIP3   OH245982   6.011   4.763   1.530 -0.2681 -0.3485 -0.3690
 8164TIP3    H145983   6.091   4.741   1.483 -1.5716 -1.4070 -2.1681
 8164TIP3    H245984   5.975   4.678   1.557 -0.7908  0.1179  0.4353
 8165TIP3   OH245985   5.996   0.355  16.328  0.3149  0.2537  0.0569
 8165TIP3    H145986   5.961   0.305  16.402 -1.1679  2.0423  0.6077
 8165TIP3    H245987   5.944   0.326  16.254  0.0200  0.3625  0.2169
 8166TIP3   OH245988   2.161   3.279  12.194  0.4172 -0.1179  0.0244
 8166TIP3    H145989   2.213   3.286  12.114  1.7473 -1.6283  0.7248
 8166TIP3    H245990   2.213   3.325  12.260 -0.6884  1.1443  0.0459
 8167TIP3   OH245991   3.152   5.610   1.512  0.0341  0.0071  0.3078
 8167TIP3    H145992   3.188   5.598   1.599  0.8334  2.7787  0.3891
 8167TIP3    H245993   3.085   5.677   1.522 -0.3195 -0.1115 -1.1021
 8168TIP3   OH245994   3.769   6.775   5.863  0.0627  0.5312  0.1210
 8168TIP3    H145995   3.841   6.773   5.927  0.3982 -0.1662 -0.2753
 8168TIP3    H245996   3.808   6.741   5.782 -0.4735  1.0094 -0.3490
 8169TIP3   OH245997   4.182   4.543   5.698 -0.4399 -0.1479  0.0558
 8169TIP3    H145998   4.163   4.635   5.714  1.4127  0.2898 -0.1479
 8169TIP3    H245999   4.142   4.524   5.614  0.1320  0.7944 -0.4351
 8170TIP3   OH246000   5.922   3.779   2.249 -0.8662 -0.3980  0.1619
 8170TIP3    H146001   5.981   3.850   2.276 -1.1030 -0.0729 -0.1696
 8170TIP3    H246002   5.920   3.720   2.324 -0.7800  0.0204  0.4966
 8171TIP3   OH246003   2.162   0.001   2.516  0.0651 -0.0174 -0.6923
 8171TIP3    H146004   2.237   0.060   2.509 -0.0090  0.2240  0.5297
 8171TIP3    H246005   2.086   0.060   2.520 -0.1259 -0.2383 -1.1073
 8172TIP3   OH246006   6.024   0.794   2.837  0.7012 -0.5926 -0.0160
 8172TIP3    H146007   6.001   0.787   2.744  2.0437  0.4357 -0.4417
 8172TIP3    H246008   5.974   0.869   2.869  0.8328 -0.4721 -0.0944
 8173TIP3   OH246009   2.997   5.699  12.325  0.1817  0.6781 -0.5597
 8173TIP3    H146010   3.049   5.656  12.257  0.2061 -1.0652  0.5488
 8173TIP3    H246011   3.038   5.673  12.407 -2.7864 -1.2688  0.3816
 8174TIP3   OH246012   2.137   4.737  12.385 -0.1325  0.2465 -0.4015
 8174TIP3    H146013   2.045   4.711  12.391 -0.3730  0.4026 -2.6670
 8174TIP3    H246014   2.135   4.827  12.353  0.7903  1.0043  1.6155
 8175TIP3   OH246015   2.868   1.745   3.652 -0.1408  0.6944  0.1536
 8175TIP3    H146016   2.896   1.689   3.725 -0.6780 -1.0783 -0.9680
 8175TIP3    H246017   2.806   1.806   3.691 -1.6615 -1.2777  0.8931
 8176TIP3   OH246018   4.904   4.448   4.339 -0.1842 -0.2086 -0.7250
 8176TIP3    H146019   4.984   4.496   4.315 -0.8216  2.6063  2.4465
 8176TIP3    H246020   4.839   4.477   4.275  0.4305  0.2958 -1.1322
 8177TIP3   OH246021   2.668   0.702   1.183  0.0425  0.4232  0.1064
 8177TIP3    H146022   2.727   0.767   1.145 -2.3114  3.5752  1.5837
 8177TIP3    H246023   2.674   0.716   1.278 -1.2657 -0.8366  0.4083
 8178TIP3   OH246024   2.363   3.644   3.427 -0.1549 -0.1698 -0.0075
 8178TIP3    H146025   2.439   3.692   3.396  0.0422 -1.3059 -1.3264
 8178TIP3    H246026   2.394   3.554   3.437 -1.3769 -0.6930 -0.8120
 8179TIP3   OH246027   3.150   3.928  12.421 -0.2409  0.0078 -0.2735
 8179TIP3    H146028   3.237   3.891  12.407  0.1031  1.0766 -1.0328
 8179TIP3    H246029   3.153   3.962  12.511 -0.2150 -0.8459  0.0558
 8180TIP3   OH246030   4.181   5.573   2.149 -0.0397 -0.8728  0.6655
 8180TIP3    H146031   4.199   5.589   2.056  0.9598  1.0215  1.1472
 8180TIP3    H246032   4.214   5.485   2.165  2.1285 -0.2607 -0.2003
 8181TIP3   OH246033   4.603   5.311  17.262  0.1678  0.2281 -0.2749
 8181TIP3    H146034   4.543   5.272  17.198 -1.2136  0.5676  0.7781
 8181TIP3    H246035   4.609   5.403  17.237 -0.8437  0.4939  0.4019
 8182TIP3   OH246036   5.660   5.210   3.524 -0.1152 -0.0706  0.8242
 8182TIP3    H146037   5.587   5.272   3.521 -1.6886 -1.8727  0.3163
 8182TIP3    H246038   5.623   5.132   3.566  1.0806 -1.5446 -0.7605
 8183TIP3   OH246039   0.415   6.275  14.222  0.1690  0.1052 -0.0007
 8183TIP3    H146040   0.408   6.260  14.316  0.4669  0.0360  0.0113
 8183TIP3    H246041   0.493   6.227  14.195 -0.2293 -0.3375 -0.3829
 8184TIP3   OH246042   2.394   5.513   1.605  0.0718 -0.1183  0.4113
 8184TIP3    H146043   2.430   5.490   1.691 -2.0356 -0.7469  1.1371
 8184TIP3    H246044   2.343   5.437   1.579  0.2606  0.2781 -1.1854
 8185TIP3   OH246045   5.578   2.121  10.801 -0.4602 -0.3990 -0.5703
 8185TIP3    H146046   5.631   2.146  10.877 -1.0523 -0.5453 -0.0993
 8185TIP3    H246047   5.487   2.137  10.829 -0.7185 -1.0345 -1.0271
 8186TIP3   OH246048   0.848   2.414  17.275  0.5588 -0.0882 -0.8235
 8186TIP3    H146049   0.897   2.346  17.230 -0.4444 -1.1229 -0.3750
 8186TIP3    H246050   0.768   2.423  17.224  0.8847  1.0801 -1.1377
 8187TIP3   OH246051   4.184   0.833  16.173 -0.0207  0.2832  0.4777
 8187TIP3    H146052   4.100   0.849  16.131  0.1508 -0.2187 -0.0589
 8187TIP3    H246053   4.248   0.874  16.114  0.0281  1.6742  1.4585
 8188TIP3   OH246054   3.005   0.378  10.636  0.0080 -0.0781  0.8994
 8188TIP3    H146055   2.955   0.351  10.559  0.5439 -1.1131  0.9123
 8188TIP3    H246056   2.941   0.424  10.691 -0.5396  0.0533  0.1609
 8189TIP3   OH246057   6.729   5.780  11.978 -0.0950 -0.1411 -0.3343
 8189TIP3    H146058   6.639   5.793  12.008  0.4831  2.1084  0.5001
 8189TIP3    H246059   6.722   5.776  11.882 -1.0045  0.6710 -0.3036
 8190TIP3   OH246060   5.155   0.083   1.686  0.3945 -0.0735  0.2578
 8190TIP3    H146061   5.102   0.015   1.645  1.0439 -0.3593 -0.1074
 8190TIP3    H246062   5.102   0.163   1.677  0.0429 -0.3498 -0.1385
 8191TIP3   OH246063   2.314   5.875  13.309 -0.3309  0.0133  0.0953
 8191TIP3    H146064   2.245   5.825  13.264 -0.3446 -0.8951  1.1080
 8191TIP3    H246065   2.395   5.833  13.281 -0.4938 -2.7903  3.5459
 8192TIP3   OH246066   0.441   3.870  17.171 -0.0094  0.1191 -0.2975
 8192TIP3    H146067   0.536   3.880  17.171  0.1645 -0.9614  2.8441
 8192TIP3    H246068   0.427   3.776  17.179 -1.3757  0.2529 -0.9626
 8193TIP3   OH246069   6.048   2.727  14.716  0.2960 -0.0174  0.3486
 8193TIP3    H146070   6.060   2.640  14.756  1.8158  0.1213  0.2359
 8193TIP3    H246071   5.954   2.744  14.724  0.0063 -1.5906  0.5444
 8194TIP3   OH246072   0.788   5.671  14.271 -0.8693  0.2653  0.4525
 8194TIP3    H146073   0.817   5.759  14.294 -1.6947  0.4824  0.6990
 8194TIP3    H246074   0.760   5.632  14.354 -0.7685 -0.1300  0.3031
 8195TIP3   OH246075   1.600   3.805   4.469 -0.7681 -0.6121 -0.6172
 8195TIP3    H146076   1.633   3.736   4.527 -0.3649 -0.3031 -0.4814
 8195TIP3    H246077   1.642   3.787   4.385  1.3080  0.9639  0.0705
 8196TIP3   OH246078   6.722   2.370  12.762 -0.0709  0.3473  0.0153
 8196TIP3    H146079   6.773   2.392  12.684 -0.6626  1.1715 -0.1399
 8196TIP3    H246080   6.666   2.446  12.777  0.8393  0.6846  1.9115
 8197TIP3   OH246081   0.870   0.733   6.016  0.2305  0.0744 -0.2442
 8197TIP3    H146082   0.933   0.759   6.084  0.3756 -1.4612  0.2189
 8197TIP3    H246083   0.833   0.816   5.985  0.2626  0.8157  1.6137
 8198TIP3   OH246084   3.159   5.204  16.817  0.1062  0.3132 -0.1290
 8198TIP3    H146085   3.182   5.148  16.891  0.0943 -0.1401 -0.4682
 8198TIP3    H246086   3.238   5.209  16.764  0.1349  0.6922 -0.0559
 8199TIP3   OH246087   4.404   2.512  11.191  0.5784  0.1351  0.3224
 8199TIP3    H146088   4.314   2.483  11.207  0.7908 -0.8811 -0.2233
 8199TIP3    H246089   4.401   2.607  11.197 -0.8153  0.1888 -1.0620
 8200TIP3   OH246090   1.990   0.623   1.837 -0.0090 -0.4297  0.5191
 8200TIP3    H146091   2.060   0.583   1.785 -0.1658  0.8728 -0.7293
 8200TIP3    H246092   2.022   0.619   1.927  1.0937 -1.0293  0.1080
 8201TIP3   OH246093   0.213   0.413  16.962  0.7095  0.4341 -0.0327
 8201TIP3    H146094   0.147   0.350  16.933  0.8747 -0.2579  1.0685
 8201TIP3    H246095   0.213   0.406  17.058  1.7904  1.0239  0.0247
 8202TIP3   OH246096   3.109   1.944  10.846  0.9286  0.7843  0.0982
 8202TIP3    H146097   3.113   2.008  10.775 -0.8766 -0.7402 -1.4668
 8202TIP3    H246098   3.016   1.941  10.870  0.7950 -1.8782 -0.5280
 8203TIP3   OH246099   2.025   2.325  15.698 -0.0438  0.1934  0.5342
 8203TIP3    H146100   2.047   2.413  15.668  0.3082 -0.3956 -1.0168
 8203TIP3    H246101   1.930   2.323  15.701 -0.1581 -0.1305 -1.9406
 8204TIP3   OH246102   3.768   3.712   0.625  0.2811  0.0000  0.8177
 8204TIP3    H146103   3.773   3.798   0.585 -0.2181 -0.9967 -1.4684
 8204TIP3    H246104   3.858   3.691   0.648  0.4543  0.9535  1.0299
 8205TIP3   OH246105   0.391   6.089   4.929  0.4169  0.7035  0.0008
 8205TIP3    H146106   0.381   6.183   4.937 -2.0160  0.4852 -0.0066
 8205TIP3    H246107   0.317   6.062   4.874 -0.9845 -1.6115  2.8578
 8206TIP3   OH246108   6.783   0.962   6.284  0.0190  0.6907 -0.2323
 8206TIP3    H146109   6.691   0.955   6.260  0.3335 -0.2126 -1.2029
 8206TIP3    H246110   6.783   1.018   6.362 -1.1831  2.2077 -1.2698
 8207TIP3   OH246111   0.918   3.123   2.658  0.1357  0.0791  0.0782
 8207TIP3    H146112   0.839   3.079   2.688  0.0339 -0.5456 -1.0797
 8207TIP3    H246113   0.949   3.172   2.734 -2.2880  1.6850  0.0671
 8208TIP3   OH246114   4.835   3.181   0.138 -0.2774 -0.1463  0.6157
 8208TIP3    H146115   4.909   3.202   0.080  0.2401  0.3865  1.4707
 8208TIP3    H246116   4.788   3.111   0.091 -1.0999  1.7441 -1.4704
 8209TIP3   OH246117   3.696   3.380  10.902 -0.3289  0.0264 -0.1268
 8209TIP3    H146118   3.656   3.401  10.817 -1.4302  0.0557  0.3949
 8209TIP3    H246119   3.640   3.423  10.966 -0.0134 -0.7476  0.6697
 8210TIP3   OH246120   2.351   2.488  12.451  0.7452 -0.5343  0.3192
 8210TIP3    H146121   2.349   2.427  12.378  1.2275 -0.2534  0.0633
 8210TIP3    H246122   2.308   2.567  12.417  0.4238 -0.6166  0.5377
 8211TIP3   OH246123   4.127   1.513  16.741 -0.1339  0.8646 -0.5190
 8211TIP3    H146124   4.180   1.462  16.802 -0.7730  1.9584  0.9772
 8211TIP3    H246125   4.058   1.551  16.795 -1.8842  0.2455 -2.2694
 8212TIP3   OH246126   3.597   4.008  11.190  0.6222 -0.4480 -0.0321
 8212TIP3    H146127   3.549   3.993  11.109 -1.3453 -0.5061  1.0841
 8212TIP3    H246128   3.679   3.960  11.180 -0.2235 -1.6335 -1.4132
 8213TIP3   OH246129   2.023   5.841   3.939  0.3384 -0.1138  0.2076
 8213TIP3    H146130   2.039   5.754   3.978  1.0054  0.0865  0.3915
 8213TIP3    H246131   2.083   5.899   3.986 -1.9714  0.9521  1.9349
 8214TIP3   OH246132   2.211   0.519  13.322 -0.0856 -0.1045  0.1735
 8214TIP3    H146133   2.263   0.455  13.274  1.2916  1.8232 -0.9972
 8214TIP3    H246134   2.263   0.599  13.319 -2.2584  1.3788  0.6176
 8215TIP3   OH246135   2.054   2.654  16.210 -0.1336 -0.0341 -0.1522
 8215TIP3    H146136   2.119   2.722  16.190 -0.1450  0.1595  0.4535
 8215TIP3    H246137   2.106   2.578  16.235 -0.1306  0.3114  0.9533
 8216TIP3   OH246138   4.468   1.614   2.994 -0.2753  0.3879  0.1690
 8216TIP3    H146139   4.524   1.573   2.928 -1.5360  0.0730 -0.7418
 8216TIP3    H246140   4.528   1.654   3.056  0.9522 -0.6570 -0.3353
 8217TIP3   OH246141   0.232   2.821  12.795 -0.3815 -0.1618  0.1450
 8217TIP3    H146142   0.302   2.791  12.737 -1.1936 -3.4473  0.7593
 8217TIP3    H246143   0.204   2.742  12.841 -2.1692  1.7344  2.4239
 8218TIP3   OH246144   0.016   3.526  14.977 -0.5910  0.4405  0.1240
 8218TIP3    H146145   0.046   3.596  15.035 -2.6823  0.5957  1.0532
 8218TIP3    H246146   0.089   3.512  14.917  1.4141  0.6320  2.4383
 8219TIP3   OH246147   3.561   1.285  15.091  0.4357  0.4689  0.0687
 8219TIP3    H146148   3.518   1.265  15.008  1.0176  1.1504 -0.4122
 8219TIP3    H246149   3.508   1.355  15.129  0.6659  0.7749 -0.1608
 8220TIP3   OH246150   1.849   1.953  15.246 -0.2174  0.0169  0.1448
 8220TIP3    H146151   1.902   1.973  15.169  0.8037 -1.3374  0.4720
 8220TIP3    H246152   1.885   2.008  15.315  1.2629 -1.4371  0.5478
 8221TIP3   OH246153   2.195   0.797   4.098  0.0696  0.8341 -0.0676
 8221TIP3    H146154   2.211   0.887   4.070 -0.2024  0.4748 -1.3872
 8221TIP3    H246155   2.279   0.767   4.134  1.0891  0.5105 -2.6627
 8222TIP3   OH246156   4.409   4.554  15.925  0.4731 -0.1987 -0.2454
 8222TIP3    H146157   4.318   4.551  15.954  0.2202  0.6213 -0.9397
 8222TIP3    H246158   4.422   4.644  15.896  1.3937 -0.4157 -0.5159
 8223TIP3   OH246159   4.151   0.556  10.772 -0.1899 -0.2055  0.1411
 8223TIP3    H146160   4.082   0.490  10.773 -0.1254 -0.2784 -0.0505
 8223TIP3    H246161   4.179   0.563  10.863  0.2258 -0.8912  0.0726
 8224TIP3   OH246162   6.462   4.413  16.593  0.4995  0.4486  0.5008
 8224TIP3    H146163   6.520   4.337  16.586  1.1382  0.6018  3.3990
 8224TIP3    H246164   6.375   4.378  16.575  0.9860 -0.6829  0.3074
 8225TIP3   OH246165   0.880   0.792   3.139  0.2378 -0.3448 -0.4712
 8225TIP3    H146166   0.881   0.886   3.157  0.6833 -0.2704 -0.8833
 8225TIP3    H246167   0.834   0.784   3.056  2.2303 -0.2765 -1.6166
 8226TIP3   OH246168   2.701   5.716   1.799 -0.3105 -0.5315 -0.3027
 8226TIP3    H146169   2.710   5.659   1.876  0.4375 -0.8395 -0.6173
 8226TIP3    H246170   2.611   5.702   1.770 -0.2640 -1.2386 -0.1242
 8227TIP3   OH246171   0.776   5.637   3.906 -0.5113 -0.1957 -0.2531
 8227TIP3    H146172   0.695   5.589   3.891 -0.4649 -0.5113  0.4999
 8227TIP3    H246173   0.750   5.729   3.898 -1.2300 -0.2457  1.3207
 8228TIP3   OH246174   0.386   3.873  12.909  0.3366 -0.0462 -0.1754
 8228TIP3    H146175   0.398   3.822  12.829 -1.5277  1.4407 -1.4302
 8228TIP3    H246176   0.302   3.845  12.944  1.9209 -1.9756  2.2875
 8229TIP3   OH246177   3.385   0.678  14.503 -0.6733 -0.1251  0.1400
 8229TIP3    H146178   3.428   0.691  14.418  1.1305 -0.5723  0.9563
 8229TIP3    H246179   3.302   0.726  14.496 -0.5459 -0.1583 -1.8615
 8230TIP3   OH246180   5.328   5.671  15.503 -0.3166  0.1228 -0.0507
 8230TIP3    H146181   5.373   5.699  15.423 -0.8236 -1.0406 -0.7588
 8230TIP3    H246182   5.242   5.642  15.474 -1.0620  1.0834  1.1323
 8231TIP3   OH246183   0.603   1.991  14.280 -0.0725 -0.7104  0.6336
 8231TIP3    H146184   0.530   1.956  14.332 -0.8670 -0.6733 -0.4370
 8231TIP3    H246185   0.615   1.927  14.210 -0.3181  0.2260 -0.2728
 8232TIP3   OH246186   0.786   2.712   6.166 -0.1855 -0.3347 -0.2438
 8232TIP3    H146187   0.743   2.779   6.114  0.8238 -0.5362 -1.3834
 8232TIP3    H246188   0.873   2.748   6.183 -0.5084 -0.2791  1.3083
 8233TIP3   OH246189   0.098   6.606  13.087  0.4865 -0.6871 -0.1721
 8233TIP3    H146190   0.170   6.597  13.025  0.7409  1.7384 -0.2972
 8233TIP3    H246191   0.138   6.593  13.173  0.8438 -0.4625 -0.3059
 8234TIP3   OH246192   5.585   5.609   4.482  0.3885 -0.5976  0.3891
 8234TIP3    H146193   5.551   5.686   4.528  1.4817 -1.0403  1.9827
 8234TIP3    H246194   5.534   5.536   4.516  0.9641 -0.8794  0.6695
 8235TIP3   OH246195   1.644   1.478   0.798 -0.1069 -0.4735 -0.3035
 8235TIP3    H146196   1.727   1.464   0.843 -0.3047 -1.6586 -0.3001
 8235TIP3    H246197   1.593   1.531   0.859  0.0448 -1.1209  0.3992
 8236TIP3   OH246198   3.165   4.604   1.474 -0.5857 -0.6855  0.2996
 8236TIP3    H146199   3.231   4.652   1.424 -0.9158  0.8707  1.3469
 8236TIP3    H246200   3.160   4.649   1.558 -1.4489 -2.0924  1.0350
 8237TIP3   OH246201   1.469   0.608   1.540 -0.7841  0.2747  0.6781
 8237TIP3    H146202   1.405   0.606   1.611 -0.1514 -0.7794  1.2354
 8237TIP3    H246203   1.547   0.568   1.578 -0.2296  0.3142 -0.4118
 8238TIP3   OH246204   2.597   0.186   6.106  0.3813 -0.0933  0.2551
 8238TIP3    H146205   2.528   0.197   6.170  0.7111  1.2161  0.3969
 8238TIP3    H246206   2.593   0.265   6.052  2.1108  0.2755  0.6219
 8239TIP3   OH246207   3.330   0.228  13.193 -0.2021 -0.5580  0.1832
 8239TIP3    H146208   3.310   0.250  13.284  0.9052  0.6564  0.1593
 8239TIP3    H246209   3.280   0.292  13.142  0.7720  0.0735  0.0109
 8240TIP3   OH246210   1.197   6.611   2.964  0.1036  0.4400  0.0625
 8240TIP3    H146211   1.133   6.542   2.946  1.9575 -1.2405 -0.3070
 8240TIP3    H246212   1.154   6.667   3.028 -0.3546 -2.7081  2.6457
 8241TIP3   OH246213   4.657   5.632   3.163 -0.0704 -0.4640  0.0949
 8241TIP3    H146214   4.590   5.658   3.099 -0.1419 -0.0630  0.3343
 8241TIP3    H246215   4.680   5.542   3.138  1.3324  0.3705 -1.7312
 8242TIP3   OH246216   4.060   1.685  10.793 -0.2602  0.1572 -0.3340
 8242TIP3    H146217   4.027   1.631  10.721  0.5185  1.5953 -1.7965
 8242TIP3    H246218   4.074   1.771  10.754 -0.8388  1.2567  1.8072
 8243TIP3   OH246219   5.543   6.464   4.288  0.1294 -0.0528  0.0367
 8243TIP3    H146220   5.638   6.453   4.288  0.0716 -1.1058  3.2263
 8243TIP3    H246221   5.530   6.556   4.268  1.8648  0.2386  0.1264
 8244TIP3   OH246222   6.007   2.021   6.386 -0.1365 -0.2725  0.2490
 8244TIP3    H146223   6.004   1.963   6.462 -1.7780 -2.0478 -1.1136
 8244TIP3    H246224   6.100   2.041   6.374  0.1173  0.3184  2.9064
 8245TIP3   OH246225   4.554   4.253  16.357 -0.3092 -0.3642  0.5656
 8245TIP3    H146226   4.486   4.241  16.424 -1.0429  2.2401  0.3514
 8245TIP3    H246227   4.584   4.344  16.370  0.9781 -0.4976 -1.3262
 8246TIP3   OH246228   5.378   2.932   1.378  0.0269  0.1225 -0.0980
 8246TIP3    H146229   5.388   2.953   1.285  0.9853 -1.3296 -0.3401
 8246TIP3    H246230   5.452   2.874   1.398  0.0583  0.7351  1.6683
 8247TIP3   OH246231   5.887   6.332   5.289 -0.1002  0.1785  0.3139
 8247TIP3    H146232   5.964   6.280   5.265 -0.5283 -0.5358  0.4798
 8247TIP3    H246233   5.814   6.271   5.283 -0.6828  0.9048 -0.0254
 8248TIP3   OH246234   1.873   3.074  13.032  0.1950 -0.0836 -0.2031
 8248TIP3    H146235   1.859   3.147  12.971  0.2312  0.7554  0.7851
 8248TIP3    H246236   1.894   2.999  12.975  1.0276  0.8742 -1.1733
 8249TIP3   OH246237   3.415   1.543   1.070 -0.1429 -0.5715  0.0917
 8249TIP3    H146238   3.409   1.550   1.165  1.6400  1.3894  0.1026
 8249TIP3    H246239   3.481   1.475   1.056 -0.7012 -1.1518  0.2317
 8250TIP3   OH246240   3.403   0.666   1.063  0.5064  0.6178  0.3683
 8250TIP3    H146241   3.496   0.679   1.081  0.4337  1.1345  0.3698
 8250TIP3    H246242   3.400   0.589   1.005  0.9631  0.8533  0.0292
 8251TIP3   OH246243   0.913   1.542   2.303  0.3214  0.3954  0.5394
 8251TIP3    H146244   0.891   1.537   2.210 -1.2789 -2.4107  1.0134
 8251TIP3    H246245   0.937   1.634   2.317  0.4950  0.8842 -2.6008
 8252TIP3   OH246246   5.907   6.209  16.347  0.0995 -0.0575  0.6533
 8252TIP3    H146247   5.867   6.281  16.395 -2.8804 -0.9547 -0.3744
 8252TIP3    H246248   5.869   6.130  16.386 -0.7469 -0.8645 -1.7557
 8253TIP3   OH246249   6.511   1.419  12.995 -0.0331  0.7300  0.1845
 8253TIP3    H146250   6.577   1.488  12.984  0.0022  0.5966 -0.4366
 8253TIP3    H246251   6.449   1.433  12.923 -0.3154  0.4371  0.3697
 8254TIP3   OH246252   6.391   4.277   0.063  0.6901  0.2337 -0.6829
 8254TIP3    H146253   6.381   4.187   0.093  0.1269  0.6469  0.4189
 8254TIP3    H246254   6.484   4.286   0.044  1.0400 -0.0962  0.8188
 8255TIP3   OH246255   1.826   0.298   1.082  0.1629 -0.0268 -0.2947
 8255TIP3    H146256   1.755   0.353   1.116  0.1828 -0.9036  1.2015
 8255TIP3    H246257   1.887   0.289   1.155  1.4912  0.1673 -1.3693
 8256TIP3   OH246258   4.288   2.950  13.819 -0.1799  0.3601 -0.0587
 8256TIP3    H146259   4.243   2.967  13.902 -0.8655 -1.6410  0.0134
 8256TIP3    H246260   4.345   3.025  13.807 -0.9931  1.2781  1.6086
 8257TIP3   OH246261   4.490   5.030   5.209  0.8298  0.0321 -0.4658
 8257TIP3    H146262   4.435   4.954   5.222  1.8606 -0.5335  0.7067
 8257TIP3    H246263   4.517   5.056   5.297  1.6427  0.8820 -0.9534
 8258TIP3   OH246264   2.470   1.773  13.362 -0.2980  0.1734 -0.3705
 8258TIP3    H146265   2.544   1.831  13.347  0.8858 -1.4010 -0.7784
 8258TIP3    H246266   2.485   1.699  13.304 -3.0888  0.5931 -1.7163
 8259TIP3   OH246267   3.141   1.901  15.273  0.2352 -0.2333 -0.2065
 8259TIP3    H146268   3.210   1.967  15.277 -0.9813  1.0863 -0.4808
 8259TIP3    H246269   3.148   1.854  15.356  1.4585 -0.1099 -0.2395
 8260TIP3   OH246270   1.572   3.760  13.597  0.3369  0.4307  0.4407
 8260TIP3    H146271   1.561   3.837  13.652  0.1671  1.1991 -0.6417
 8260TIP3    H246272   1.507   3.697  13.629 -3.1649  2.6623 -1.9730
 8261TIP3   OH246273   5.473   5.453  10.807  0.0664  1.0959  0.1651
 8261TIP3    H146274   5.418   5.512  10.756  0.0416  0.6386 -0.3467
 8261TIP3    H246275   5.412   5.405  10.862 -0.1346  0.1542 -0.8425
 8262TIP3   OH246276   0.345   4.227   5.468  0.0972  0.1157 -0.1888
 8262TIP3    H146277   0.313   4.317   5.466  1.3613  0.5961  0.7406
 8262TIP3    H246278   0.272   4.177   5.505  0.1691  1.1081  1.3468
 8263TIP3   OH246279   3.183   2.687   0.695 -0.1604 -0.8538 -0.1307
 8263TIP3    H146280   3.159   2.687   0.602 -0.0913  1.9209 -0.2061
 8263TIP3    H246281   3.267   2.733   0.697 -1.0207  0.7019  1.4570
 8264TIP3   OH246282   6.649   5.598   5.531  0.3073 -0.3308 -0.1510
 8264TIP3    H146283   6.643   5.678   5.583 -1.5141  1.0694 -2.3950
 8264TIP3    H246284   6.740   5.571   5.539  1.1971  2.5151 -0.0758
 8265TIP3   OH246285   2.190   5.741  13.779 -0.1343 -0.1940 -0.1299
 8265TIP3    H146286   2.281   5.769  13.773  0.1953 -1.3999 -0.8031
 8265TIP3    H246287   2.152   5.762  13.693 -0.5012  0.3443  0.1624
 8266TIP3   OH246288   0.886   3.346  14.486 -0.1332  0.2954 -0.3857
 8266TIP3    H146289   0.939   3.316  14.559  0.2515 -0.6070 -1.0280
 8266TIP3    H246290   0.859   3.435  14.511 -0.1590 -0.0618  0.9234
 8267TIP3   OH246291   2.029   6.091  13.557 -0.3375  0.3045 -0.8950
 8267TIP3    H146292   1.966   6.117  13.624  0.7039  2.0284 -0.5668
 8267TIP3    H246293   2.065   6.008  13.589 -1.9103 -0.3345 -0.7411
 8268TIP3   OH246294   0.624   5.110  17.284  0.1511  0.0461  0.2585
 8268TIP3    H146295   0.631   5.020  17.253 -0.3849 -0.1979  0.8555
 8268TIP3    H246296   0.666   5.110  17.369 -0.6163  0.1668  0.6448
 8269TIP3   OH246297   3.679   3.803   1.727 -0.4187  0.4209 -0.2904
 8269TIP3    H146298   3.598   3.853   1.729 -0.2945  0.6477 -0.7341
 8269TIP3    H246299   3.717   3.823   1.641 -0.7170 -0.9877 -0.7766
 8270TIP3   OH246300   5.972   6.237   4.987  0.4816  0.3652  0.1980
 8270TIP3    H146301   5.995   6.185   5.064 -2.1856 -0.9579  0.1533
 8270TIP3    H246302   5.914   6.306   5.021  1.3713  1.3608 -0.2536
 8271TIP3   OH246303   1.170   0.787   0.329  0.3588 -0.0210 -0.4914
 8271TIP3    H146304   1.153   0.804   0.422  0.8981  0.3891 -0.4694
 8271TIP3    H246305   1.084   0.798   0.288  0.1474 -0.0414 -0.0673
 8272TIP3   OH246306   5.342   6.603  11.337 -0.2846  0.0659 -0.4658
 8272TIP3    H146307   5.347   6.568  11.426  1.3457  0.4134 -0.4062
 8272TIP3    H246308   5.387   6.688  11.343 -2.5133  1.3174 -1.0251
 8273TIP3   OH246309   1.710   4.109   0.487 -0.4761 -0.0258 -0.0153
 8273TIP3    H146310   1.797   4.115   0.447  0.5467  0.2567  2.2136
 8273TIP3    H246311   1.668   4.193   0.466 -1.1705 -1.0519 -3.1293
 8274TIP3   OH246312   5.801   2.456   4.185 -0.2618 -0.0635 -0.1779
 8274TIP3    H146313   5.872   2.396   4.164  0.2317  0.3975  0.1771
 8274TIP3    H246314   5.775   2.493   4.100  1.8201  1.8973  0.0034
 8275TIP3   OH246315   0.656   4.428   0.237  0.1046  0.6105  0.3175
 8275TIP3    H146316   0.686   4.383   0.158 -1.7132 -1.2321  0.6057
 8275TIP3    H246317   0.584   4.484   0.206 -0.7174 -0.2382  0.6614
 8276TIP3   OH246318   3.682   3.596   6.206  0.2369 -0.0784  0.4081
 8276TIP3    H146319   3.729   3.572   6.286  0.4905 -1.8029 -0.2397
 8276TIP3    H246320   3.699   3.690   6.196  2.9451 -0.5147  0.5806
 8277TIP3   OH246321   5.052   3.250  12.410  0.0840  0.3316 -0.1675
 8277TIP3    H146322   5.069   3.207  12.326  1.6232 -1.3798  1.0152
 8277TIP3    H246323   5.074   3.342  12.394 -0.0141  0.0906 -1.7540
 8278TIP3   OH246324   0.078   6.504  11.824 -0.1711 -0.1900  0.2925
 8278TIP3    H146325   0.066   6.599  11.815  1.2970 -0.1592 -1.5186
 8278TIP3    H246326   0.072   6.470  11.735  1.6256 -1.5239  0.6458
 8279TIP3   OH246327   4.365   5.308  16.906 -0.0912  0.3494 -0.0643
 8279TIP3    H146328   4.444   5.273  16.865 -0.4421 -0.2324 -0.2558
 8279TIP3    H246329   4.356   5.259  16.987 -0.2778  0.3909 -0.0597
 8280TIP3   OH246330   2.885   4.207   3.976 -0.5260  0.4354  0.1753
 8280TIP3    H146331   2.925   4.206   3.889 -0.1560  1.3968  0.3277
 8280TIP3    H246332   2.955   4.237   4.034 -1.1638  1.1141  0.6036
 8281TIP3   OH246333   3.622   0.316   6.067  0.4529  0.3814 -0.0771
 8281TIP3    H146334   3.617   0.373   6.144  0.9541 -0.6115  0.6961
 8281TIP3    H246335   3.716   0.300   6.056  0.4669  1.4325 -1.5725
 8282TIP3   OH246336   6.658   2.531   0.826 -0.0120  0.1727 -0.0911
 8282TIP3    H146337   6.747   2.517   0.793  0.0101  0.7651 -0.2845
 8282TIP3    H246338   6.616   2.587   0.761 -0.3628  0.3265  0.2615
 8283TIP3   OH246339   6.088   3.910  16.597  0.4203 -0.5636  0.1274
 8283TIP3    H146340   6.115   3.993  16.558 -0.6037  0.4285  1.4403
 8283TIP3    H246341   6.166   3.855  16.596  0.6750 -0.1686 -2.2568
 8284TIP3   OH246342   0.975   2.356  11.032 -0.2878 -0.2676  0.2301
 8284TIP3    H146343   1.021   2.398  10.959  1.0237  0.3526  1.3763
 8284TIP3    H246344   0.966   2.265  11.006  0.8763 -0.2208 -0.3700
 8285TIP3   OH246345   6.190   1.007   2.685 -0.3343  0.1432  0.0909
 8285TIP3    H146346   6.207   0.973   2.773  1.4824 -0.3828 -0.4310
 8285TIP3    H246347   6.213   0.934   2.627  1.1033  1.3716 -0.9259
 8286TIP3   OH246348   2.425   6.401   5.515 -0.3240 -0.0713  0.0742
 8286TIP3    H146349   2.379   6.337   5.569 -2.2993  1.6254  0.4996
 8286TIP3    H246350   2.375   6.403   5.433 -0.5212  1.1586  0.2093
 8287TIP3   OH246351   6.240   4.026   6.237 -0.6379 -0.9870  0.4028
 8287TIP3    H146352   6.208   4.102   6.285 -1.7967 -1.0789 -0.2123
 8287TIP3    H246353   6.328   4.052   6.209 -1.1235  0.2423 -0.0418
 8288TIP3   OH246354   1.442   3.975   2.444  0.3035  0.7528  0.6392
 8288TIP3    H146355   1.421   3.994   2.536 -0.0765 -0.5730  0.8251
 8288TIP3    H246356   1.369   4.012   2.394 -0.2491  0.1188  0.9759
 8289TIP3   OH246357   2.676   1.022  10.953 -0.3111 -0.3667 -0.3043
 8289TIP3    H146358   2.588   1.052  10.934 -0.8814 -0.6799  1.6766
 8289TIP3    H246359   2.677   0.930  10.929 -0.1984 -0.0981 -1.3271
 8290TIP3   OH246360   0.728   6.610  12.821 -0.5848  0.3340  0.2166
 8290TIP3    H146361   0.802   6.578  12.872 -1.0554 -2.1418 -0.5345
 8290TIP3    H246362   0.766   6.666  12.753  0.4163  0.5084  0.9287
 8291TIP3   OH246363   3.542   0.316   2.111  0.2627  0.4069  0.6737
 8291TIP3    H146364   3.634   0.306   2.136  0.2666  1.2447  0.9974
 8291TIP3    H246365   3.513   0.395   2.156 -1.6135 -1.7729  3.4816
 8292TIP3   OH246366   0.435   2.972   3.325  0.7683 -0.0671 -0.1261
 8292TIP3    H146367   0.365   2.917   3.361  1.2145  0.0649  0.9513
 8292TIP3    H246368   0.415   2.977   3.231  0.2015 -1.2994 -0.0813
 8293TIP3   OH246369   5.003   4.469   4.653 -0.5845 -0.2635 -0.0472
 8293TIP3    H146370   5.063   4.536   4.686 -0.7458 -0.4863  0.7127
 8293TIP3    H246371   5.025   4.460   4.560 -0.2223  0.4759 -0.0319
 8294TIP3   OH246372   2.619   2.472  13.964 -0.1306  0.1251  0.8642
 8294TIP3    H146373   2.525   2.456  13.964  0.1299 -1.5778  0.2594
 8294TIP3    H246374   2.630   2.552  13.913 -1.0662 -1.1721 -1.4780
 8295TIP3   OH246375   6.008   0.032   1.687 -0.2323 -0.3086  0.3969
 8295TIP3    H146376   5.919   0.009   1.659 -0.0257  0.8718 -1.3196
 8295TIP3    H246377   6.024  -0.023   1.763 -3.5131  1.4429  2.4675
 8296TIP3   OH246378   2.777   0.838  13.778  0.1360  0.7374 -0.0039
 8296TIP3    H146379   2.835   0.831  13.853  0.4195 -1.3217 -0.3652
 8296TIP3    H246380   2.693   0.866  13.814  0.3294 -0.0334  1.0704
 8297TIP3   OH246381   1.239   2.721  13.644 -0.1605 -0.0494  0.0371
 8297TIP3    H146382   1.235   2.809  13.608 -1.9999 -0.1211  0.0123
 8297TIP3    H246383   1.170   2.718  13.710  0.8292 -1.0329  1.0611
 8298TIP3   OH246384   1.666   2.008  13.023  0.3290  0.0134  0.0426
 8298TIP3    H146385   1.704   2.041  13.104 -1.6548 -0.1189  1.0517
 8298TIP3    H246386   1.576   2.040  13.024 -0.1654 -1.2683 -1.3707
 8299TIP3   OH246387   3.015   2.991   4.794 -0.0519 -0.2917 -0.0260
 8299TIP3    H146388   3.002   3.082   4.767 -1.0953 -0.5837 -0.5659
 8299TIP3    H246389   3.095   2.964   4.749 -0.3505  0.0203 -0.7694
 8300TIP3   OH246390   5.596   2.334  11.321 -0.0777 -0.2091 -0.4795
 8300TIP3    H146391   5.687   2.363  11.331  0.2455 -0.7728 -1.5949
 8300TIP3    H246392   5.552   2.408  11.280 -0.4141  0.5123  1.1543
 8301TIP3   OH246393   3.485   1.067  12.732 -0.2396  0.3615  0.0313
 8301TIP3    H146394   3.401   1.086  12.691  0.4546 -0.6075 -1.9067
 8301TIP3    H246395   3.536   1.147  12.721 -0.6705  0.7129  0.5932
 8302TIP3   OH246396   4.640   4.301   5.952 -0.1255 -0.3612  0.0137
 8302TIP3    H146397   4.720   4.324   5.998 -0.0331  1.3600 -0.9680
 8302TIP3    H246398   4.668   4.247   5.878  0.1549  0.4695 -0.4855
 8303TIP3   OH246399   3.565   3.822  11.535  0.2220  0.4930  0.3769
 8303TIP3    H146400   3.619   3.808  11.613 -1.1205 -0.1757  1.1909
 8303TIP3    H246401   3.543   3.915  11.538  1.3449  0.7842  0.0158
 8304TIP3   OH246402   2.947   5.930   2.340 -0.0967 -0.3282 -0.1673
 8304TIP3    H146403   2.892   5.869   2.290 -1.0682  1.0727 -0.8389
 8304TIP3    H246404   3.005   5.873   2.391 -0.5715 -1.8037 -1.2357
 8305TIP3   OH246405   6.004   0.957  15.287  0.2916  0.5778  0.1600
 8305TIP3    H146406   6.061   0.900  15.235  0.5968 -0.0002  1.0978
 8305TIP3    H246407   6.057   0.979  15.364 -0.3435  0.9823  0.4863
 8306TIP3   OH246408   3.262   1.849   5.006 -0.0179  0.3651  0.0307
 8306TIP3    H146409   3.200   1.819   5.073 -0.5761 -0.3906 -0.8333
 8306TIP3    H246410   3.287   1.770   4.959 -1.1704  1.1640 -1.9666
 8307TIP3   OH246411   1.332   4.167  12.363 -0.1594  0.3343 -0.1178
 8307TIP3    H146412   1.342   4.261  12.379  0.7621  0.3603 -0.7926
 8307TIP3    H246413   1.318   4.129  12.449  0.3277  0.9925  0.2520
 8308TIP3   OH246414   4.868   3.895  16.824 -0.4042 -0.4761  0.0541
 8308TIP3    H146415   4.808   3.821  16.817 -0.2075 -0.7963  1.4684
 8308TIP3    H246416   4.822   3.958  16.880 -1.1039  1.0362 -2.1782
 8309TIP3   OH246417   0.180   6.582   4.519 -0.2879 -0.0453  0.1077
 8309TIP3    H146418   0.099   6.576   4.469  0.4416  0.5366 -1.1665
 8309TIP3    H246419   0.154   6.622   4.602 -1.5220 -1.1013  0.2401
 8310TIP3   OH246420   4.974   1.680  16.545 -0.4044 -0.1228  0.8009
 8310TIP3    H146421   4.978   1.731  16.465  1.7693  0.2469  1.1139
 8310TIP3    H246422   4.921   1.732  16.605  0.2188  0.8810  0.4899
 8311TIP3   OH246423   2.967   0.630   3.241 -0.4010 -0.1376  0.6879
 8311TIP3    H146424   2.934   0.553   3.288 -2.1136 -0.2438 -0.6259
 8311TIP3    H246425   2.891   0.689   3.236  0.8102  1.5314  1.4201
 8312TIP3   OH246426   5.024   1.383  12.091 -0.5232  0.0641  0.5511
 8312TIP3    H146427   4.938   1.362  12.055 -0.1561  0.4621 -0.5798
 8312TIP3    H246428   5.074   1.417  12.017  0.8104 -0.7296  1.0592
 8313TIP3   OH246429   1.665   3.157  16.015  0.2941 -0.3621 -0.1767
 8313TIP3    H146430   1.725   3.090  16.048 -0.7398 -1.8270 -1.1396
 8313TIP3    H246431   1.708   3.191  15.936  0.5332 -0.3638 -0.0463
 8314TIP3   OH246432   2.585   3.764  13.303  0.3183  0.3875  0.6202
 8314TIP3    H146433   2.587   3.855  13.332 -0.3152  1.3471 -2.1849
 8314TIP3    H246434   2.493   3.745  13.290  0.4433 -0.7040  1.2367
 8315TIP3   OH246435   1.952   5.264  12.572  0.3408 -0.1510 -0.2893
 8315TIP3    H146436   1.925   5.185  12.524  0.3181  0.5213 -1.4097
 8315TIP3    H246437   2.023   5.300  12.519  0.1861  0.7063  0.0830
 8316TIP3   OH246438   6.300   4.395  12.204  0.3305 -0.5959 -0.3230
 8316TIP3    H146439   6.367   4.463  12.199 -0.1537 -0.2472 -2.4179
 8316TIP3    H246440   6.347   4.315  12.225  1.0180  0.2026  1.2463
 8317TIP3   OH246441   1.196   4.688   4.070 -0.4683 -0.2197  0.5445
 8317TIP3    H146442   1.183   4.781   4.088 -0.5470 -0.0220 -0.4979
 8317TIP3    H246443   1.215   4.650   4.155 -2.6270  0.3939  1.3365
 8318TIP3   OH246444   5.657   6.568  17.224 -0.0564  0.2096  0.2627
 8318TIP3    H146445   5.743   6.553  17.186 -0.5277 -0.2388 -0.6288
 8318TIP3    H246446   5.596   6.522  17.167 -1.0865  2.0108 -0.1522
 8319TIP3   OH246447   0.074   2.221   1.965  0.3825 -0.0403  0.0548
 8319TIP3    H146448   0.124   2.151   2.007  1.4964  0.4628 -0.4043
 8319TIP3    H246449   0.124   2.241   1.885 -1.0123 -0.1085 -0.8522
 8320TIP3   OH246450   3.949   3.981   0.279 -0.3268 -0.2213 -0.3286
 8320TIP3    H146451   3.861   3.947   0.263  0.6307 -1.9767 -2.0094
 8320TIP3    H246452   3.952   4.064   0.231 -0.7155 -0.6639 -1.1165
 8321TIP3   OH246453   0.082   3.089   1.335 -0.9115  0.2736  0.3695
 8321TIP3    H146454   0.164   3.101   1.288 -1.9158 -0.1041 -1.5666
 8321TIP3    H246455   0.074   2.994   1.346 -0.8387  0.3407  1.0171
 8322TIP3   OH246456   2.258   6.770  13.131 -0.7828 -0.1773  0.1550
 8322TIP3    H146457   2.315   6.696  13.110  1.2646  0.8904  1.6959
 8322TIP3    H246458   2.192   6.734  13.190  0.0199 -0.8574  0.6473
 8323TIP3   OH246459   2.309   4.217  15.165 -0.0409  0.4086  0.5420
 8323TIP3    H146460   2.360   4.291  15.129  1.8027 -0.9625  0.2508
 8323TIP3    H246461   2.280   4.169  15.088  1.1602 -0.7255  0.7771
 8324TIP3   OH246462   4.220   5.306  11.233  0.3846 -0.3097  0.9483
 8324TIP3    H146463   4.280   5.376  11.257  1.2113 -0.4915 -0.5307
 8324TIP3    H246464   4.230   5.297  11.138 -2.4584  0.0876  0.5722
 8325TIP3   OH246465   0.784   0.309  13.307  0.4967  0.1749 -0.3389
 8325TIP3    H146466   0.861   0.363  13.291  2.1824 -1.3286  2.2716
 8325TIP3    H246467   0.760   0.329  13.397  0.0437 -2.0486  0.0529
 8326TIP3   OH246468   2.715   1.234  16.037 -0.0614  0.5759 -0.1284
 8326TIP3    H146469   2.757   1.275  15.961 -1.6653 -1.0220 -1.9394
 8326TIP3    H246470   2.623   1.259  16.030 -0.7674 -1.9302 -0.3807
 8327TIP3   OH246471   6.818   0.687   6.294 -0.6907 -0.0507  0.1528
 8327TIP3    H146472   6.911   0.691   6.316 -0.0286  0.0550 -2.4409
 8327TIP3    H246473   6.797   0.776   6.263 -1.0924 -0.6434 -1.3115
 8328TIP3   OH246474   3.365   6.145  12.315 -0.4922  0.1175  1.3845
 8328TIP3    H146475   3.356   6.168  12.408 -0.9076 -2.6454  2.0714
 8328TIP3    H246476   3.458   6.122  12.305 -0.9114 -1.7056  1.6359
 8329TIP3   OH246477   6.065   4.556  14.016  0.1819 -0.7080 -0.3049
 8329TIP3    H146478   6.075   4.501  14.094  0.5339  1.6079  1.3234
 8329TIP3    H246479   5.979   4.595  14.025  0.5887  0.2754 -0.6191
 8330TIP3   OH246480   5.238   0.378   1.789 -0.0869 -0.4556 -0.4660
 8330TIP3    H146481   5.243   0.364   1.694 -2.2177  1.4374 -0.9006
 8330TIP3    H246482   5.181   0.454   1.799 -0.2195 -0.8802  2.3731
 8331TIP3   OH246483   6.003   3.550  15.259 -0.1210  0.5337  0.7860
 8331TIP3    H146484   5.955   3.473  15.288  1.0802 -0.1771  0.8892
 8331TIP3    H246485   6.088   3.517  15.231 -0.1331  1.6161 -0.5975
 8332TIP3   OH246486   2.811   0.728  13.167  0.6204 -0.3029  0.0304
 8332TIP3    H146487   2.777   0.784  13.097  0.9155  0.6586  0.6408
 8332TIP3    H246488   2.747   0.737  13.237  0.0208 -1.7304 -0.3268
 8333TIP3   OH246489   3.234   6.650   0.424  0.4658  0.3556 -0.2634
 8333TIP3    H146490   3.277   6.735   0.435  0.3602  0.3711  0.0193
 8333TIP3    H246491   3.154   6.670   0.376  0.0202  0.5258  0.5574
 8334TIP3   OH246492   1.558   1.535  16.851 -0.7562 -0.0451  0.2425
 8334TIP3    H146493   1.494   1.491  16.907 -2.1538 -1.6880 -2.5617
 8334TIP3    H246494   1.509   1.560  16.773  1.6463  0.2201 -1.2203
 8335TIP3   OH246495   4.093   5.213  17.126 -0.4617  1.0399 -0.6291
 8335TIP3    H146496   4.046   5.134  17.152 -1.8061  2.0413  0.0010
 8335TIP3    H246497   4.185   5.186  17.126 -0.8823 -0.4737 -0.2623
 8336TIP3   OH246498   4.277   0.573   4.535 -0.4252 -0.1911  0.3286
 8336TIP3    H146499   4.331   0.497   4.556  2.1763  1.5947  0.2722
 8336TIP3    H246500   4.282   0.581   4.440 -2.1218 -0.9386  0.1510
 8337TIP3   OH246501   0.706   3.607  14.514 -0.1899  0.2569  0.2838
 8337TIP3    H146502   0.695   3.673  14.446 -1.2538 -0.9051 -0.6963
 8337TIP3    H246503   0.632   3.621  14.573  0.1765  0.6191  0.6595
 8338TIP3   OH246504   6.621   3.271  11.903  0.0776 -0.0440  0.1603
 8338TIP3    H146505   6.696   3.272  11.962 -0.2094 -1.1144  0.5735
 8338TIP3    H246506   6.568   3.197  11.935 -0.1232 -0.5773 -1.3926
 8339TIP3   OH246507   5.301   4.419  12.909  0.8783  0.3941 -0.3873
 8339TIP3    H146508   5.209   4.446  12.914  0.5035 -1.0656  1.0411
 8339TIP3    H246509   5.316   4.370  12.990  2.7403  0.0534 -0.9157
 8340TIP3   OH246510   3.204   6.285   4.229 -0.3008 -0.6350  0.7640
 8340TIP3    H146511   3.135   6.248   4.174  1.5641 -1.5207 -1.0670
 8340TIP3    H246512   3.266   6.213   4.240 -0.0536 -0.0987  3.0569
 8341TIP3   OH246513   3.074   6.804   2.114 -0.4550 -0.1729  0.0590
 8341TIP3    H146514   3.119   6.882   2.147 -2.2270  1.5273 -1.4312
 8341TIP3    H246515   3.125   6.779   2.037  0.4643 -0.8698  0.8763
 8342TIP3   OH246516   2.310   3.873  13.976  0.3663  0.1421  1.1195
 8342TIP3    H146517   2.243   3.874  13.908  0.5510  0.2447  0.9382
 8342TIP3    H246518   2.384   3.827  13.936 -0.0148 -1.0053  1.7204
 8343TIP3   OH246519   2.145   1.499   5.532 -0.8188 -0.0888  0.1000
 8343TIP3    H146520   2.104   1.585   5.524 -1.2817 -0.0978  2.0100
 8343TIP3    H246521   2.237   1.514   5.511 -0.3127  1.4805  3.1606
 8344TIP3   OH246522   5.669   6.735   6.440 -0.2501 -0.0651 -0.0435
 8344TIP3    H146523   5.710   6.816   6.409 -3.1174  0.8662 -1.6266
 8344TIP3    H246524   5.591   6.726   6.385  0.2769 -4.2070 -0.2518
 8345TIP3   OH246525   6.284   6.004  16.397 -0.0671  0.2688  0.3320
 8345TIP3    H146526   6.282   6.044  16.310  0.4697 -0.8512 -0.2085
 8345TIP3    H246527   6.231   5.925  16.387 -2.4627  1.6371  1.8032
 8346TIP3   OH246528   3.785   3.957   4.067 -0.3898 -0.2066  0.1958
 8346TIP3    H146529   3.799   4.052   4.070  0.1892 -0.2578 -0.8079
 8346TIP3    H246530   3.736   3.942   3.987  1.3371 -0.9707 -0.7524
 8347TIP3   OH246531   5.681   0.802  10.764 -0.1687 -0.0566 -0.0487
 8347TIP3    H146532   5.614   0.796  10.696 -0.3820  0.5615  0.1061
 8347TIP3    H246533   5.761   0.826  10.718  0.5833 -3.4237 -0.6079
 8348TIP3   OH246534   6.191   4.165  16.429  0.0683 -0.2006 -0.6521
 8348TIP3    H146535   6.147   4.218  16.363 -0.2631 -1.2468 -1.2744
 8348TIP3    H246536   6.166   4.205  16.512 -1.1491 -0.0962 -1.0559
 8349TIP3   OH246537   6.563   6.470   3.443 -0.1186  0.1909 -0.3386
 8349TIP3    H146538   6.631   6.453   3.378 -0.5228 -1.6460 -0.3056
 8349TIP3    H246539   6.602   6.535   3.501  1.2156 -0.0385 -0.9469
 8350TIP3   OH246540   0.786   5.641   0.825  0.0366  0.1071  0.4584
 8350TIP3    H146541   0.839   5.573   0.784 -2.0358 -0.2991 -1.6451
 8350TIP3    H246542   0.844   5.680   0.891  2.1346 -1.8742 -0.1484
 8351TIP3   OH246543   1.270   2.866  15.140  0.3279 -0.0112  0.1646
 8351TIP3    H146544   1.284   2.804  15.212 -0.5095 -0.1069  0.2454
 8351TIP3    H246545   1.326   2.834  15.069  0.6254 -0.3105  0.5354
 8352TIP3   OH246546   1.094   3.055   5.365  0.0544  0.3981  0.1702
 8352TIP3    H146547   1.045   3.099   5.296 -1.1816 -1.9679 -0.5162
 8352TIP3    H246548   1.173   3.023   5.322 -0.5908 -0.8447 -0.1289
 8353TIP3   OH246549   3.481   1.467   1.380 -0.3420  0.0064 -0.0131
 8353TIP3    H146550   3.481   1.390   1.325 -2.6332  0.6499 -1.0050
 8353TIP3    H246551   3.572   1.478   1.407  0.2147 -2.3292 -0.8090
 8354TIP3   OH246552   4.495   3.806   4.417 -0.1585  0.1404  0.4343
 8354TIP3    H146553   4.550   3.743   4.371 -1.1241 -1.3876  1.3426
 8354TIP3    H246554   4.407   3.790   4.382 -0.6907 -0.1803  1.9083
 8355TIP3   OH246555   1.345   4.016  15.852 -0.0249 -0.0228  0.2097
 8355TIP3    H146556   1.331   4.111  15.858  0.2619  0.0740 -0.5935
 8355TIP3    H246557   1.258   3.981  15.833 -0.1982  0.0394  0.8621
 8356TIP3   OH246558   0.215   3.904  13.599  0.1368  0.4488  0.0674
 8356TIP3    H146559   0.245   3.994  13.613 -1.3754  0.6993  1.7743
 8356TIP3    H246560   0.272   3.851  13.654 -0.7076  0.6370  1.1262
 8357TIP3   OH246561   5.194   3.938   4.046  0.4071 -0.0791 -0.1022
 8357TIP3    H146562   5.114   3.975   4.084  1.2381  1.0970  0.4878
 8357TIP3    H246563   5.264   3.997   4.072  1.8011 -2.1483  1.0311
 8358TIP3   OH246564   1.807   2.238  11.771  0.6414  0.2002  0.0104
 8358TIP3    H146565   1.850   2.274  11.694  2.8207 -0.9855  0.6284
 8358TIP3    H246566   1.722   2.207  11.740  0.6547  1.6034 -1.4605
 8359TIP3   OH246567   4.319   1.286  15.754 -0.4151 -0.2487 -0.3609
 8359TIP3    H146568   4.404   1.313  15.788 -1.2961 -0.3861  2.0233
 8359TIP3    H246569   4.257   1.345  15.797 -1.7154 -1.5583 -0.4251
 8360TIP3   OH246570   0.680   1.385  11.633  0.0728  0.1905  0.0533
 8360TIP3    H146571   0.594   1.400  11.593 -0.5326 -0.8921  0.9181
 8360TIP3    H246572   0.715   1.310  11.585  1.0509  1.3257 -1.0675
 8361TIP3   OH246573   5.871   6.056   2.843  0.2853  0.5450 -0.1344
 8361TIP3    H146574   5.839   6.144   2.862  0.8984  1.2403 -2.1352
 8361TIP3    H246575   5.827   6.033   2.761 -0.7405 -1.4892  0.9567
 8362TIP3   OH246576   0.044   6.755  15.941  0.0746 -0.7516 -0.0968
 8362TIP3    H146577  -0.027   6.724  15.997 -0.7964 -0.3446 -0.9670
 8362TIP3    H246578   0.072   6.838  15.980 -0.7565 -0.3016 -0.4450
 8363TIP3   OH246579   5.489   0.754  15.330 -0.2695  0.6920 -0.3150
 8363TIP3    H146580   5.517   0.673  15.287 -1.4555 -1.6391  3.1526
 8363TIP3    H246581   5.403   0.773  15.292  0.0838  0.4220 -1.2606
 8364TIP3   OH246582   5.395   5.926  12.437 -0.1624 -0.0823 -0.4646
 8364TIP3    H146583   5.374   5.847  12.486  1.5230 -0.8261 -0.9283
 8364TIP3    H246584   5.446   5.980  12.497 -1.6983  0.9012  0.0128
 8365TIP3   OH246585   1.105   5.082   2.850  0.2032 -0.4787 -0.0166
 8365TIP3    H146586   1.157   5.006   2.823  1.9897  0.8154 -0.3113
 8365TIP3    H246587   1.101   5.074   2.946 -0.9688 -1.7852 -0.1612
 8366TIP3   OH246588   0.450   2.561   5.172 -0.1163  0.7226 -0.3703
 8366TIP3    H146589   0.364   2.579   5.210 -0.5107  0.1131 -0.9593
 8366TIP3    H246590   0.485   2.489   5.224 -0.8967 -0.4895 -1.5081
 8367TIP3   OH246591   1.169   5.030  12.825 -0.2784  0.9117 -0.0272
 8367TIP3    H146592   1.140   5.083  12.899  0.6464 -0.4408  1.3191
 8367TIP3    H246593   1.215   5.092  12.768 -0.5782  1.8558  0.7396
 8368TIP3   OH246594   0.739   0.133  15.721 -0.1396 -0.2581  0.4915
 8368TIP3    H146595   0.751   0.070  15.650  2.7857  1.1377 -0.3289
 8368TIP3    H246596   0.644   0.136  15.735 -0.7557 -0.8812 -3.0835
 8369TIP3   OH246597   0.781   1.909  12.378 -0.3835 -0.5552  0.3161
 8369TIP3    H146598   0.782   1.986  12.435  0.9537  0.8426 -1.5139
 8369TIP3    H246599   0.845   1.849  12.417 -0.2787 -0.0646  0.8930
 8370TIP3   OH246600   2.112   0.685  15.849 -0.8496  0.0240  0.2732
 8370TIP3    H146601   2.030   0.734  15.844 -1.5854 -1.1295  0.8523
 8370TIP3    H246602   2.088   0.595  15.827  0.7237  0.1361 -2.0302
 8371TIP3   OH246603   3.377   5.828  13.078  0.1520 -0.3370  0.4152
 8371TIP3    H146604   3.304   5.779  13.115 -0.0550  0.7489  1.4835
 8371TIP3    H246605   3.348   5.853  12.990 -0.3012 -0.8890  0.4082
 8372TIP3   OH246606   4.239   2.593   0.989  0.0481 -0.3696  0.4175
 8372TIP3    H146607   4.216   2.536   0.916 -1.1541 -1.6587  1.7394
 8372TIP3    H246608   4.304   2.542   1.039  2.2348  1.2412 -0.6778
 8373TIP3   OH246609   0.191   2.337   1.087  0.2504  0.4596 -0.2112
 8373TIP3    H146610   0.237   2.274   1.032 -0.9878 -1.2252  0.6541
 8373TIP3    H246611   0.189   2.417   1.034 -0.6049 -1.0289 -2.5141
 8374TIP3   OH246612   2.461   1.589  12.013 -0.7922 -0.5331  0.7723
 8374TIP3    H146613   2.544   1.624  11.981 -0.8846 -0.6974  0.3434
 8374TIP3    H246614   2.438   1.521  11.949 -0.5308 -1.4887  1.6873
 8375TIP3   OH246615   3.884   0.783  11.657  0.3636 -0.1770 -0.0011
 8375TIP3    H146616   3.903   0.827  11.574  0.3554  0.9094  0.5599
 8375TIP3    H246617   3.814   0.721  11.637  0.6345 -0.2087 -0.8815
 8376TIP3   OH246618   5.325   4.600  15.761 -0.3443  0.2752 -0.4027
 8376TIP3    H146619   5.278   4.577  15.841 -0.1585 -1.8884 -0.8680
 8376TIP3    H246620   5.292   4.686  15.737 -0.7550  0.7315  1.7299
 8377TIP3   OH246621   0.149   3.259   5.952 -0.2722  0.4220  0.6164
 8377TIP3    H146622   0.187   3.213   5.878 -2.4346 -0.0463 -0.2388
 8377TIP3    H246623   0.116   3.190   6.010 -1.1959  0.8200  0.5875
 8378TIP3   OH246624   1.585   4.634   4.145 -0.8301  0.6017 -0.2943
 8378TIP3    H146625   1.506   4.656   4.194 -1.6116 -0.3608 -1.0942
 8378TIP3    H246626   1.580   4.539   4.133 -0.3261  0.7350 -1.6683
 8379TIP3   OH246627   5.139   3.105   1.882 -0.0035  0.1468 -0.4485
 8379TIP3    H146628   5.081   3.176   1.912  2.3082  1.2494  1.5868
 8379TIP3    H246629   5.225   3.146   1.874  1.4656 -2.4894  1.1624
 8380TIP3   OH246630   5.311   4.075   0.391 -0.8066 -0.4398  0.8040
 8380TIP3    H146631   5.237   4.039   0.342  0.7018  0.1834 -2.0388
 8380TIP3    H246632   5.362   3.998   0.416 -0.5154 -0.6339 -0.3787
 8381TIP3   OH246633   3.597   4.697   1.814 -0.4996  0.1760  0.2355
 8381TIP3    H146634   3.677   4.657   1.848 -0.0936  0.2663 -0.5845
 8381TIP3    H246635   3.580   4.772   1.871  0.6182  0.8053 -0.2560
 8382TIP3   OH246636   1.450   3.227   3.440 -0.4206 -0.3628 -0.0400
 8382TIP3    H146637   1.504   3.253   3.515  2.7607 -3.1222 -1.2355
 8382TIP3    H246638   1.475   3.288   3.370 -0.1110 -0.5551 -0.0988
 8383TIP3   OH246639   5.347   2.595   6.419  0.3512  0.0532 -0.4797
 8383TIP3    H146640   5.442   2.586   6.428  0.4296 -0.2994 -1.5222
 8383TIP3    H246641   5.320   2.645   6.496  0.7035 -4.0791  2.5148
 8384TIP3   OH246642   0.726   4.768   1.500  0.0522  0.3097 -0.2277
 8384TIP3    H146643   0.770   4.781   1.416 -0.3613 -2.1240 -0.8584
 8384TIP3    H246644   0.797   4.746   1.561  0.0922 -0.0689 -0.4158
 8385TIP3   OH246645   0.906   3.002  13.292 -0.2425 -0.7378  0.7929
 8385TIP3    H146646   0.832   3.050  13.255 -0.7750  0.0968  2.8717
 8385TIP3    H246647   0.905   2.918  13.245 -0.6869  0.3796 -1.2588
 8386TIP3   OH246648   0.231   0.308  14.802 -0.1743 -0.0956 -0.1742
 8386TIP3    H146649   0.170   0.249  14.759 -0.5548  1.1007 -1.2908
 8386TIP3    H246650   0.263   0.258  14.877 -1.6214 -1.1652 -0.2422
 8387TIP3   OH246651   4.566   0.964   1.411  0.9231  0.6678  0.1477
 8387TIP3    H146652   4.629   0.997   1.346  0.3372  1.8138  0.1405
 8387TIP3    H246653   4.549   0.874   1.385  3.9848 -0.2873  1.2288
 8388TIP3   OH246654   1.418   3.563  15.588 -0.4700  0.1555  0.1600
 8388TIP3    H146655   1.400   3.514  15.508 -1.3377 -0.7820  0.9181
 8388TIP3    H246656   1.473   3.504  15.640 -1.4416  0.0052  1.0370
 8389TIP3   OH246657   1.095   6.190  13.324  0.2690  0.1634 -0.2650
 8389TIP3    H146658   1.154   6.117  13.306 -1.4999 -1.3107 -0.2239
 8389TIP3    H246659   1.152   6.258  13.360  2.1341 -0.7475 -1.3862
 8390TIP3   OH246660   0.768   2.718   5.715 -0.0802  0.2339 -0.1337
 8390TIP3    H146661   0.795   2.655   5.782 -1.7779 -0.6234 -0.2364
 8390TIP3    H246662   0.842   2.778   5.709 -0.6155  1.4824  3.9084
 8391TIP3   OH246663   5.118   4.029  10.989  0.3997  0.2875  0.3667
 8391TIP3    H146664   5.208   4.002  10.974 -0.1769 -1.2539 -0.5420
 8391TIP3    H246665   5.070   3.991  10.915 -0.9494  1.2882  0.7134
 8392TIP3   OH246666   1.306   0.907   1.443  0.0850  0.6062  0.3901
 8392TIP3    H146667   1.213   0.907   1.464  0.3919  0.3966  1.7919
 8392TIP3    H246668   1.322   0.993   1.404 -0.7090  0.6023  0.0502
 8393TIP3   OH246669   0.974   0.519   0.088 -0.1475 -0.4801 -0.1603
 8393TIP3    H146670   0.927   0.579   0.147  0.5950  0.7547 -0.8191
 8393TIP3    H246671   1.060   0.509   0.128  0.2546  0.1215 -0.8686
 8394TIP3   OH246672   2.340   4.632  17.205  0.3477  0.2660  0.2984
 8394TIP3    H146673   2.397   4.555  17.206 -2.5491 -1.9717  1.9569
 8394TIP3    H246674   2.308   4.637  17.114 -0.6572 -1.4839  0.5299
 8395TIP3   OH246675   3.171   0.846   0.061  0.5170 -0.0084  0.1433
 8395TIP3    H146676   3.182   0.751   0.065  1.5011  0.0701 -0.5259
 8395TIP3    H246677   3.102   0.859  -0.005  0.8429 -0.2299 -0.2452
 8396TIP3   OH246678   4.647   6.341  14.634 -0.0791  0.2633  0.2143
 8396TIP3    H146679   4.627   6.424  14.591  0.6774  1.0216  1.2971
 8396TIP3    H246680   4.620   6.353  14.725 -2.0245 -1.4610 -0.0925
 8397TIP3   OH246681   2.638   4.206   6.141 -0.1964  0.1942 -0.7328
 8397TIP3    H146682   2.604   4.137   6.197  0.4130 -0.3135 -0.9801
 8397TIP3    H246683   2.627   4.286   6.192  1.4040 -0.4046  0.5840
 8398TIP3   OH246684   0.948   0.879  14.865 -0.3720 -0.2029  0.0889
 8398TIP3    H146685   0.889   0.848  14.934  0.9199 -0.7366  0.9724
 8398TIP3    H246686   1.012   0.933  14.910  1.4130 -1.8127 -0.4190
 8399TIP3   OH246687   2.549   2.986   0.279 -0.4614  0.6416 -0.0317
 8399TIP3    H146688   2.558   2.914   0.216 -0.9711  2.3690 -2.1338
 8399TIP3    H246689   2.639   3.013   0.297 -0.1795 -1.4682  1.9451
 8400TIP3   OH246690   6.489   3.364  16.046 -0.5622  0.2161 -0.2298
 8400TIP3    H146691   6.416   3.349  15.986 -0.5690  0.2234 -0.2232
 8400TIP3    H246692   6.513   3.277  16.077 -2.3990  0.4458  1.9707
 8401TIP3   OH246693   0.655   0.574   3.990  0.1619  0.2087 -0.6940
 8401TIP3    H146694   0.714   0.600   4.061 -2.4384  0.0668  1.6168
 8401TIP3    H246695   0.686   0.488   3.963  2.0148  0.8533 -0.7019
 8402TIP3   OH246696   5.245   4.347   4.006 -0.2166 -0.3776 -0.0864
 8402TIP3    H146697   5.279   4.433   3.979  1.0251 -0.8779 -0.1406
 8402TIP3    H246698   5.291   4.284   3.950 -0.0742 -1.1794  0.9254
 8403TIP3   OH246699   3.562   3.105   2.795 -0.6569 -0.2303 -0.2005
 8403TIP3    H146700   3.512   3.184   2.776 -0.6714 -0.1031  0.3615
 8403TIP3    H246701   3.644   3.116   2.748  0.1548  1.0205  1.4964
 8404TIP3   OH246702   2.733   0.366  14.541  0.7793  0.1918  0.6999
 8404TIP3    H146703   2.804   0.315  14.503  1.2367  0.8855  0.6017
 8404TIP3    H246704   2.771   0.404  14.620  0.4187  0.3010  0.8174
 8405TIP3   OH246705   1.100   2.332  14.395  0.0129 -0.3627 -0.1556
 8405TIP3    H146706   1.048   2.305  14.471 -0.2050  0.1750 -0.1145
 8405TIP3    H246707   1.190   2.306  14.418 -0.1240 -0.6353  0.0804
 8406TIP3   OH246708   6.693   3.211   5.628  0.3248  0.2306 -0.4185
 8406TIP3    H146709   6.711   3.281   5.691  0.3378 -1.1266  1.1134
 8406TIP3    H246710   6.748   3.138   5.657 -0.6770 -0.8562 -1.2310
 8407TIP3   OH246711   1.020   1.796   5.342  0.2872 -0.0378  0.6176
 8407TIP3    H146712   0.936   1.758   5.368 -0.1221  1.5314  1.6913
 8407TIP3    H246713   1.005   1.891   5.347  1.5879  0.2678 -0.9491
 8408TIP3   OH246714   1.986   3.109   1.144  0.5792  0.3141 -0.2664
 8408TIP3    H146715   2.063   3.073   1.099 -0.5283  0.6310 -2.4814
 8408TIP3    H246716   1.968   3.046   1.214  1.5830 -0.8555 -1.0370
 8409TIP3   OH246717   3.925   5.271   2.175 -0.0799 -0.4097  0.0641
 8409TIP3    H146718   3.924   5.204   2.107  0.7966 -1.9511  1.5433
 8409TIP3    H246719   3.860   5.242   2.239 -0.3620  0.6322  0.2586
 8410TIP3   OH246720   4.684   2.107   4.733 -0.0705  0.2408  1.0690
 8410TIP3    H146721   4.635   2.032   4.766  0.2128 -0.4208  0.0297
 8410TIP3    H246722   4.773   2.095   4.766  0.0744 -0.1114  0.5575
 8411TIP3   OH246723   1.314   0.716  17.132  0.3061  0.0511  0.3379
 8411TIP3    H146724   1.231   0.711  17.086  0.0827 -0.6278  0.8065
 8411TIP3    H246725   1.338   0.808  17.129  0.7980 -0.1311 -2.0186
 8412TIP3   OH246726   3.645   0.475  14.358 -0.1383 -0.2995  0.0902
 8412TIP3    H146727   3.649   0.501  14.450 -3.2028  1.3311 -0.1573
 8412TIP3    H246728   3.671   0.383  14.358 -1.0939 -0.6313  2.7395
 8413TIP3   OH246729   1.396   0.664  13.669 -0.6569  0.3009 -0.5254
 8413TIP3    H146730   1.311   0.635  13.637 -2.2120  2.4895  1.4720
 8413TIP3    H246731   1.456   0.651  13.595 -3.2341  1.1838 -2.8238
 8414TIP3   OH246732   4.543   1.983  13.238  0.2297  0.0025 -0.3581
 8414TIP3    H146733   4.638   1.982  13.249  0.3437 -0.2698 -1.3222
 8414TIP3    H246734   4.527   2.046  13.168 -0.3486  0.5378  0.2566
 8415TIP3   OH246735   0.553   1.986  15.994  0.3652 -0.0875 -0.1464
 8415TIP3    H146736   0.579   2.033  15.916 -0.5100 -1.4926 -1.3135
 8415TIP3    H246737   0.561   1.893  15.971 -2.7980 -0.5613  0.3770
 8416TIP3   OH246738   5.410   3.127  16.819  0.0734 -0.1538 -0.7919
 8416TIP3    H146739   5.338   3.081  16.777  0.0212 -0.8699  0.0713
 8416TIP3    H246740   5.455   3.172  16.748 -1.8434  1.1636 -1.2153
 8417TIP3   OH246741   2.500   4.927  15.639  0.6348  0.3630  0.1778
 8417TIP3    H146742   2.544   4.843  15.648  1.0909  0.4871 -0.8057
 8417TIP3    H246743   2.424   4.909  15.584  0.4784  0.5045  0.3459
 8418TIP3   OH246744   4.996   4.771   5.093  0.5491 -0.0765  0.0256
 8418TIP3    H146745   5.017   4.693   5.042  0.2849 -0.7462  0.9295
 8418TIP3    H246746   5.074   4.786   5.146 -0.7003 -1.8154  2.4440
 8419TIP3   OH246747   6.213   5.835   4.246 -0.2958  0.3524 -1.0851
 8419TIP3    H146748   6.275   5.882   4.189  1.3499 -0.2338  0.1943
 8419TIP3    H246749   6.246   5.849   4.334 -2.3590  0.5328 -0.3340
 8420TIP3   OH246750   6.288   2.977   4.173  0.1277  0.2072 -0.2967
 8420TIP3    H146751   6.369   2.930   4.154  1.3679  1.5529  1.3990
 8420TIP3    H246752   6.271   2.959   4.266 -1.1173  0.5501 -0.4435
 8421TIP3   OH246753   3.975   4.516   5.197  0.9970  0.3741  0.1838
 8421TIP3    H146754   3.943   4.606   5.200 -0.7634 -0.2433  0.8321
 8421TIP3    H246755   3.944   4.483   5.113  0.1627 -0.1365  0.6832
 8422TIP3   OH246756   2.602   0.428   3.279  0.1721  0.2536  0.1034
 8422TIP3    H146757   2.687   0.447   3.319 -0.1115 -1.3374  1.5507
 8422TIP3    H246758   2.587   0.335   3.299 -1.3414  0.2029 -1.1919
 8423TIP3   OH246759   2.933   5.421  11.273  0.1007 -0.4536 -0.1491
 8423TIP3    H146760   2.944   5.499  11.218  1.6262 -0.4404  0.1675
 8423TIP3    H246761   3.021   5.399  11.302 -0.3425 -2.2094 -0.0982
 8424TIP3   OH246762   4.538   1.973  15.906 -0.5864  0.2785  0.2655
 8424TIP3    H146763   4.537   2.049  15.847 -2.0801  1.0775  1.3007
 8424TIP3    H246764   4.563   2.009  15.991  0.5815 -0.7144  0.3582
 8425TIP3   OH246765   2.946   5.560  11.012 -0.0167 -0.5432 -0.9125
 8425TIP3    H146766   2.990   5.623  10.955  0.3269 -0.7312 -0.8562
 8425TIP3    H246767   2.853   5.577  10.998  0.0732  1.1101  0.3591
 8426TIP3   OH246768   1.917   2.624  13.777 -0.1431 -0.4546 -0.0208
 8426TIP3    H146769   1.901   2.717  13.763 -0.0035 -0.2819  0.9155
 8426TIP3    H246770   1.960   2.594  13.697 -0.1546  0.2943 -0.3069
 8427TIP3   OH246771   3.106   0.267   2.141 -0.5707  0.0679  0.4109
 8427TIP3    H146772   3.137   0.347   2.184  0.4127  0.1945 -0.4856
 8427TIP3    H246773   3.089   0.295   2.050  1.1680 -1.0563 -0.2729
 8428TIP3   OH246774   4.317   3.974  12.268 -0.5438 -0.3874 -0.1997
 8428TIP3    H146775   4.250   3.952  12.333 -0.0868 -0.9869  0.0714
 8428TIP3    H246776   4.381   4.026  12.317 -0.6490 -0.0876 -0.3826
 8429TIP3   OH246777   4.108   0.397  16.203  0.5754  0.0648  0.2088
 8429TIP3    H146778   4.113   0.347  16.121 -0.5138  1.0372 -0.4673
 8429TIP3    H246779   4.016   0.389  16.230  0.6922  0.6383  0.7771
 8430TIP3   OH246780   4.540   6.278   2.499  0.3498  0.0172  0.5910
 8430TIP3    H146781   4.591   6.278   2.418 -0.3621  0.9703  0.1443
 8430TIP3    H246782   4.577   6.350   2.550  0.1960 -0.0077  0.7368
 8431TIP3   OH246783   1.588   6.797   1.668 -0.2555 -0.1758 -0.3433
 8431TIP3    H146784   1.548   6.781   1.583 -1.3490  1.3101 -0.1302
 8431TIP3    H246785   1.682   6.784   1.654 -0.4065  0.2777 -1.8279
 8432TIP3   OH246786   4.355   4.580  15.440 -0.4818 -0.3945 -0.4247
 8432TIP3    H146787   4.311   4.646  15.386  0.8320  0.3515 -0.6005
 8432TIP3    H246788   4.445   4.580  15.409 -0.2182 -1.4999  0.3238
 8433TIP3   OH246789   0.960   2.847  15.465 -0.0263 -0.1708  0.1965
 8433TIP3    H146790   0.909   2.770  15.439 -0.3120  0.3325 -0.7444
 8433TIP3    H246791   0.957   2.904  15.389  1.3293  0.1882  0.4053
 8434TIP3   OH246792   4.413   1.223  16.484  0.3484  0.5306  0.2881
 8434TIP3    H146793   4.472   1.150  16.499  0.9232  1.0255  0.4568
 8434TIP3    H246794   4.330   1.196  16.524  1.2075  0.9038  2.4201
 8435TIP3   OH246795   0.053   1.876   5.720 -0.2327 -0.1000 -0.1392
 8435TIP3    H146796   0.057   1.967   5.750 -1.4931 -0.0897  0.0016
 8435TIP3    H246797  -0.021   1.839   5.767 -0.3479 -0.9254 -0.9719
 8436TIP3   OH246798   5.406   3.176  14.622  0.2417  0.8576  0.6350
 8436TIP3    H146799   5.354   3.245  14.662 -0.2830 -0.6464  2.5862
 8436TIP3    H246800   5.378   3.095  14.666  0.0018 -0.7918 -2.3762
 8437TIP3   OH246801   0.513   2.769  15.401  0.0935 -0.0408 -0.4050
 8437TIP3    H146802   0.470   2.852  15.380 -1.0949 -0.2181  1.2795
 8437TIP3    H246803   0.450   2.702  15.376  0.8641 -0.4424 -1.3171
 8438TIP3   OH246804   5.552   0.571   5.570  0.0429  0.0705  0.3051
 8438TIP3    H146805   5.542   0.649   5.624 -0.7491 -0.2572  0.6342
 8438TIP3    H246806   5.463   0.538   5.557  0.5458 -2.1555  2.2263
 8439TIP3   OH246807   3.886   4.816  15.658  0.6248 -0.3775 -0.2282
 8439TIP3    H146808   3.830   4.769  15.720 -0.8731  1.6384  0.0023
 8439TIP3    H246809   3.907   4.752  15.591 -0.0303 -1.8215  0.9258
 8440TIP3   OH246810   4.833   3.347  11.051  0.0826  0.4245 -0.3274
 8440TIP3    H146811   4.923   3.354  11.019  0.5100  0.4472  0.8684
 8440TIP3    H246812   4.810   3.255  11.038  0.6940  0.1549  0.4359
 8441TIP3   OH246813   4.853   4.822   5.944  0.0610  0.2141 -0.7578
 8441TIP3    H146814   4.806   4.767   5.881 -0.9477 -0.1180  0.2790
 8441TIP3    H246815   4.943   4.789   5.942  0.3216  0.9605 -2.8756
 8442TIP3   OH246816   2.685   0.968  16.127 -0.3760  0.0261  0.2548
 8442TIP3    H146817   2.689   1.027  16.052  2.4180 -0.6363 -0.1337
 8442TIP3    H246818   2.654   0.885  16.091  0.8006 -0.2438 -0.1361
 8443TIP3   OH246819   6.648   1.734  12.911  0.0440  0.0071  0.3186
 8443TIP3    H146820   6.643   1.813  12.856 -0.8234 -0.3076 -0.0518
 8443TIP3    H246821   6.619   1.663  12.854  1.2501 -0.6647  0.5072
 8444TIP3   OH246822   0.444   4.065  16.962 -0.2090 -0.0005 -0.2742
 8444TIP3    H146823   0.444   4.150  17.006 -1.2466 -0.1601  0.0383
 8444TIP3    H246824   0.428   4.001  17.032 -0.6095 -0.3588 -0.6911
 8445TIP3   OH246825   2.679   5.860   2.111  0.0131 -0.2487  0.3597
 8445TIP3    H146826   2.767   5.891   2.087  0.4174 -1.1287  0.6728
 8445TIP3    H246827   2.620   5.920   2.066  0.7716  1.0071  1.0010
 8446TIP3   OH246828   4.353   0.369   4.716  0.4209  0.2990 -0.3305
 8446TIP3    H146829   4.344   0.439   4.781  0.1150 -1.3922  1.4926
 8446TIP3    H246830   4.438   0.329   4.735 -0.8286 -1.8952  0.7450
 8447TIP3   OH246831   0.598   1.496  14.678  0.4334  0.4222  0.6009
 8447TIP3    H146832   0.655   1.533  14.746  0.7799 -1.8143  1.5774
 8447TIP3    H246833   0.527   1.454  14.727  0.4669 -0.8642 -0.4403
 8448TIP3   OH246834   1.786   0.095  15.985  0.0772  0.4558 -0.0084
 8448TIP3    H146835   1.725   0.116  16.056 -0.1933 -0.2258 -0.0305
 8448TIP3    H246836   1.852   0.040  16.025  0.2589  0.5664 -0.1543
 8449TIP3   OH246837   3.203   3.371   0.215  0.1523 -0.7010 -0.8382
 8449TIP3    H146838   3.157   3.419   0.284  2.6726 -1.9238  1.7789
 8449TIP3    H246839   3.192   3.425   0.137 -2.6017  0.8085  0.5264
 8450TIP3   OH246840   4.506   0.517  13.536 -0.6319  0.1796 -0.0853
 8450TIP3    H146841   4.547   0.598  13.566 -0.1607 -0.1355  0.1184
 8450TIP3    H246842   4.559   0.490  13.462 -0.2050 -0.4749  0.4644
 8451TIP3   OH246843   2.194   6.115  16.089  0.3530 -0.2603 -0.1618
 8451TIP3    H146844   2.109   6.113  16.045 -0.2631 -3.2250  1.0304
 8451TIP3    H246845   2.251   6.062  16.033  1.2005  1.0175 -0.5205
 8452TIP3   OH246846   2.035   4.232  11.733  0.5570  0.0507  0.0622
 8452TIP3    H146847   2.020   4.152  11.783 -0.0314  0.6670  0.8909
 8452TIP3    H246848   2.124   4.223  11.699  0.0432 -1.5193 -0.9243
 8453TIP3   OH246849   4.699   6.669  13.542  0.2913 -0.1934  0.2064
 8453TIP3    H146850   4.708   6.756  13.582 -0.8958 -0.5124  1.1879
 8453TIP3    H246851   4.634   6.681  13.473  1.1496 -0.0064 -0.5869
 8454TIP3   OH246852   3.974   5.790   0.817 -0.4423  0.5732 -0.0515
 8454TIP3    H146853   4.058   5.757   0.849 -0.4336  1.8331  1.3085
 8454TIP3    H246854   3.992   5.881   0.793 -0.8595  0.1298 -2.1073
 8455TIP3   OH246855   4.330   6.278   4.520  0.0078  0.0975  0.1792
 8455TIP3    H146856   4.377   6.196   4.506 -0.2764 -0.2115  1.0405
 8455TIP3    H246857   4.238   6.257   4.503 -0.2003 -0.0161  1.3934
 8456TIP3   OH246858   5.177   5.478   4.646  0.2324  0.0665  0.1906
 8456TIP3    H146859   5.143   5.436   4.567 -1.2382 -0.6530  1.1981
 8456TIP3    H246860   5.162   5.414   4.716  1.0362  0.9198  1.1636
 8457TIP3   OH246861   6.197   5.797  15.895  0.1118  0.3942 -0.1033
 8457TIP3    H146862   6.269   5.812  15.834  1.4163  0.9061  1.5139
 8457TIP3    H246863   6.149   5.880  15.896  0.3572  0.5372 -0.0853
 8458TIP3   OH246864   2.735   1.141   4.710  0.0691 -0.0967  0.4050
 8458TIP3    H146865   2.736   1.233   4.685  0.0745 -0.8790 -2.8000
 8458TIP3    H246866   2.651   1.128   4.752 -0.3835  1.1490 -0.0861
 8459TIP3   OH246867   6.669   0.120  11.988 -0.3350  0.2781  0.6640
 8459TIP3    H146868   6.611   0.183  12.032 -0.8964  0.3942 -0.2250
 8459TIP3    H246869   6.694   0.164  11.907 -0.8857 -0.7353 -0.0579
 8460TIP3   OH246870   4.075   3.390   2.645  0.4739  0.0321 -0.1416
 8460TIP3    H146871   4.012   3.375   2.574 -0.7598  0.8676  0.7728
 8460TIP3    H246872   4.022   3.391   2.725  1.9180 -1.4021  0.8618
 8461TIP3   OH246873   5.561   1.305   2.575 -0.2712  0.5529  0.6910
 8461TIP3    H146874   5.638   1.361   2.563  0.0451  0.1195  0.7107
 8461TIP3    H246875   5.512   1.314   2.493 -0.4653  1.2350  0.8784
 8462TIP3   OH246876   1.113   3.452   5.887  0.1315  0.3848  0.3140
 8462TIP3    H146877   1.193   3.504   5.886 -0.3276  1.1229 -2.5205
 8462TIP3    H246878   1.143   3.362   5.875  0.5119  0.8190 -2.4138
 8463TIP3   OH246879   5.663   5.066   2.814  0.1708  0.3560  0.2209
 8463TIP3    H146880   5.717   5.144   2.807  2.0026 -0.9883 -1.5588
 8463TIP3    H246881   5.698   5.007   2.747 -1.1946 -1.9614  1.4630
 8464TIP3   OH246882   6.025   3.780  14.455 -0.5567 -0.2395 -0.4210
 8464TIP3    H146883   5.981   3.838  14.516 -0.9450  1.4938 -2.3015
 8464TIP3    H246884   6.058   3.708  14.509 -0.9377  1.2178  1.7817
 8465TIP3   OH246885   6.267   4.566  12.498 -0.1721  0.0051  0.0353
 8465TIP3    H146886   6.198   4.559  12.433 -1.3779 -0.6396  1.3515
 8465TIP3    H246887   6.280   4.477  12.530  1.1170  0.1545 -0.0369
 8466TIP3   OH246888   6.178   5.847   4.604 -0.3248 -0.3124 -0.3550
 8466TIP3    H146889   6.154   5.933   4.569  0.0524 -0.1518 -0.2107
 8466TIP3    H246890   6.271   5.838   4.586 -0.1920 -0.3561  0.3537
 8467TIP3   OH246891   5.250   2.105  15.744 -0.0341 -0.2331 -0.3116
 8467TIP3    H146892   5.301   2.027  15.722 -0.6507 -0.3646 -1.3055
 8467TIP3    H246893   5.164   2.071  15.767  0.4517 -0.0502  1.8712
 8468TIP3   OH246894   5.318   0.946   5.540 -0.0633 -0.2558  0.4774
 8468TIP3    H146895   5.370   1.006   5.593 -0.5514  0.3347  0.2848
 8468TIP3    H246896   5.357   0.951   5.453 -0.1851 -0.1156  0.4298
 8469TIP3   OH246897   5.850   0.325   0.197  0.2180  0.2853  0.4640
 8469TIP3    H146898   5.936   0.353   0.229 -0.0895  2.2212 -0.3062
 8469TIP3    H246899   5.869   0.254   0.136  1.2709  0.6159  0.3931
 8470TIP3   OH246900   5.936   4.354   1.838 -0.4206 -0.6426 -0.4834
 8470TIP3    H146901   5.918   4.327   1.928  1.0329 -0.3889 -0.1020
 8470TIP3    H246902   5.887   4.436   1.827  0.5534  0.0857  0.5464
 8471TIP3   OH246903   4.778   0.844   3.922  0.1107 -0.0956 -0.0770
 8471TIP3    H146904   4.711   0.804   3.977  0.0204  0.3595  0.1464
 8471TIP3    H246905   4.796   0.928   3.964 -1.6283  1.2926 -2.0262
 8472TIP3   OH246906   1.165   0.839  13.457 -0.4772 -0.1767  0.1610
 8472TIP3    H146907   1.159   0.749  13.489  0.5058 -0.3479 -0.1193
 8472TIP3    H246908   1.191   0.890  13.533 -1.6343 -0.0204  0.4700
 8473TIP3   OH246909   1.398   0.230   3.311  0.1849 -0.1958  0.2597
 8473TIP3    H146910   1.428   0.306   3.260  3.1027 -1.8049 -0.5267
 8473TIP3    H246911   1.426   0.249   3.401  0.6980 -0.2196  0.1061
 8474TIP3   OH246912   3.540   4.418  11.841  0.1952  0.0993 -0.0673
 8474TIP3    H146913   3.565   4.449  11.754 -0.4433  0.8932  0.0231
 8474TIP3    H246914   3.564   4.325  11.842  1.0954  0.3266 -0.7432
 8475TIP3   OH246915   2.600   1.156   5.263 -0.1373  0.1192 -0.1409
 8475TIP3    H146916   2.558   1.155   5.349  2.5556 -1.4155  1.2349
 8475TIP3    H246917   2.681   1.205   5.276 -0.2534  0.8937 -2.1146
 8476TIP3   OH246918   6.344   5.544  16.771 -0.0596  0.4643 -0.2655
 8476TIP3    H146919   6.331   5.636  16.794 -1.1717  0.9184 -2.5007
 8476TIP3    H246920   6.256   5.511  16.752  0.1510 -1.4753  1.8581
 8477TIP3   OH246921   0.859   2.404   3.953  0.6300 -0.2397  0.6856
 8477TIP3    H146922   0.879   2.453   4.033  0.3715 -2.1090  1.9293
 8477TIP3    H246923   0.842   2.315   3.984 -0.7254 -0.6947 -1.3362
 8478TIP3   OH246924   4.776   4.200  14.588 -0.5722 -0.8822 -0.0253
 8478TIP3    H146925   4.795   4.107  14.582 -0.2113 -0.9984  2.3722
 8478TIP3    H246926   4.790   4.222  14.681 -0.1718  1.6421 -0.6328
 8479TIP3   OH246927   1.936   0.064  11.655  0.1175 -0.0435  0.0294
 8479TIP3    H146928   1.898   0.002  11.592 -0.2479 -2.8819  2.9041
 8479TIP3    H246929   1.862   0.118  11.684 -0.3498 -0.8491  0.3504
 8480TIP3   OH246930   4.877   4.160   6.450 -0.8587  0.0651 -0.6925
 8480TIP3    H146931   4.945   4.227   6.449 -1.7830  1.0693  0.9562
 8480TIP3    H246932   4.799   4.204   6.417 -1.6297  0.0292  1.0028
 8481TIP3   OH246933   4.132   6.362  13.621  0.2846  0.2722 -0.1086
 8481TIP3    H146934   4.166   6.370  13.711 -0.5716  1.7340  0.0984
 8481TIP3    H246935   4.042   6.332  13.632  0.7462 -1.2993 -0.5632
 8482TIP3   OH246936   6.144   3.599  14.081 -0.2894 -0.2251  0.0102
 8482TIP3    H146937   6.227   3.598  14.129 -0.2710  0.5586 -0.0093
 8482TIP3    H246938   6.159   3.657  14.007 -0.9424  0.1376  0.1590
 8483TIP3   OH246939   1.470   5.599   5.888 -0.4457  0.7530 -0.0156
 8483TIP3    H146940   1.540   5.554   5.934 -0.8838  1.7555  1.6724
 8483TIP3    H246941   1.401   5.610   5.953 -1.1976  1.9488 -0.9703
 8484TIP3   OH246942   5.489   4.868  13.619 -0.1796 -0.2823 -0.3683
 8484TIP3    H146943   5.538   4.808  13.675 -2.0517 -0.9377  0.6014
 8484TIP3    H246944   5.556   4.924  13.580  1.4560 -1.9806 -0.0753
 8485TIP3   OH246945   6.202   0.289   1.924  0.0267 -0.1117  0.5407
 8485TIP3    H146946   6.173   0.215   1.978  0.8661  0.3737  1.6861
 8485TIP3    H246947   6.295   0.272   1.908 -0.2794 -0.3833 -0.9875
 8486TIP3   OH246948   1.610   1.596   5.053 -0.0021 -0.0890  0.0181
 8486TIP3    H146949   1.537   1.601   4.991  0.7962 -0.2115 -0.9497
 8486TIP3    H246950   1.682   1.641   5.009  0.2667  0.7688  1.3193
 8487TIP3   OH246951   3.191   4.735  11.356 -0.5828 -0.1142 -0.1022
 8487TIP3    H146952   3.103   4.769  11.373 -1.2398 -2.2880  0.9952
 8487TIP3    H246953   3.184   4.641  11.370  1.6707 -0.4717 -1.1057
 8488TIP3   OH246954   4.304   3.253   1.091 -0.4789 -0.7058 -0.4030
 8488TIP3    H146955   4.327   3.319   1.157 -0.0246 -0.2750 -0.9893
 8488TIP3    H246956   4.229   3.208   1.128  1.1648 -2.0064  1.4678
 8489TIP3   OH246957   1.673   5.730  10.863  0.3151  0.4765  0.0137
 8489TIP3    H146958   1.753   5.695  10.900 -0.4195  0.5767  1.7285
 8489TIP3    H246959   1.611   5.656  10.866 -0.4550  1.1599  1.2176
 8490TIP3   OH246960   4.424   0.190   0.927  0.6252 -0.8623 -0.5613
 8490TIP3    H146961   4.374   0.248   0.984  0.6921 -0.4014 -0.9756
 8490TIP3    H246962   4.399   0.102   0.955  1.0098 -0.6514  0.5094
 8491TIP3   OH246963   6.780   1.643  15.341 -0.2771 -0.3054  0.5144
 8491TIP3    H146964   6.871   1.662  15.321 -0.9370  2.4426 -0.1563
 8491TIP3    H246965   6.745   1.602  15.262  0.6060 -2.2321  1.1178
 8492TIP3   OH246966   3.908   0.024  11.365 -0.1740  0.4347 -0.3123
 8492TIP3    H146967   3.833   0.055  11.417 -0.1315 -1.1936  0.7583
 8492TIP3    H246968   3.979   0.084  11.388 -0.1657 -0.2349  1.5039
 8493TIP3   OH246969   5.943   2.325  15.703 -0.1287  0.0547  0.6035
 8493TIP3    H146970   5.933   2.318  15.608  1.0260 -1.2697  0.5737
 8493TIP3    H246971   5.992   2.406  15.717  1.0859 -0.5766 -0.0147
 8494TIP3   OH246972   6.415   1.701  13.168 -0.1958  0.2940  0.2922
 8494TIP3    H146973   6.441   1.790  13.146 -0.5409  0.4381  0.4628
 8494TIP3    H246974   6.352   1.677  13.099  0.3762 -0.0488 -0.1168
 8495TIP3   OH246975   4.234   4.412   2.642  0.2829 -0.3765 -0.3065
 8495TIP3    H146976   4.293   4.411   2.566 -1.3175  0.5909 -1.5718
 8495TIP3    H246977   4.184   4.331   2.635  0.3448 -0.4323 -0.1083
 8496TIP3   OH246978   0.623   5.706  15.395 -0.6600  0.2255  0.5330
 8496TIP3    H146979   0.655   5.794  15.376 -0.0698  0.0028  0.4691
 8496TIP3    H246980   0.550   5.693  15.334  1.1186 -0.4124 -1.5270
 8497TIP3   OH246981   6.455   1.276   4.071  0.7445  0.3541  0.2915
 8497TIP3    H146982   6.426   1.187   4.091  0.0037  0.8663  1.5528
 8497TIP3    H246983   6.535   1.264   4.019  0.0701 -1.0468 -0.4650
 8498TIP3   OH246984   4.495   3.254  14.882  0.4090 -0.4885  0.2022
 8498TIP3    H146985   4.575   3.285  14.840  1.8093  0.2299  3.2224
 8498TIP3    H246986   4.525   3.185  14.942 -1.2940 -0.6087  0.9314
 8499TIP3   OH246987   2.849   4.754   5.187  0.6385 -0.4219  0.5369
 8499TIP3    H146988   2.930   4.746   5.136  1.2890 -2.4332  1.8328
 8499TIP3    H246989   2.781   4.763   5.120  1.9308  1.6724 -0.5629
 8500TIP3   OH246990   4.807   6.454  17.035 -1.0939 -0.3160 -0.5149
 8500TIP3    H146991   4.764   6.464  16.950 -1.9254  0.0548 -0.0594
 8500TIP3    H246992   4.739   6.476  17.099 -0.7706 -1.5917  0.2836
 8501TIP3   OH246993   0.602   5.957   2.936  0.3035  0.8571  0.6911
 8501TIP3    H146994   0.624   5.866   2.915 -0.9273  0.8303 -0.5552
 8501TIP3    H246995   0.617   6.005   2.855  1.7046  1.9257  1.5596
 8502TIP3   OH246996   3.341   5.230  13.652 -0.5119  0.1632 -0.1950
 8502TIP3    H146997   3.261   5.192  13.689 -0.6070  0.2728 -0.2879
 8502TIP3    H246998   3.352   5.184  13.568  0.0268 -0.5073  0.2326
 8503TIP3   OH246999   2.786   4.145  13.753 -0.0458 -0.2579 -0.0090
 8503TIP3    H147000   2.859   4.200  13.782  0.9368 -1.6448  0.1583
 8503TIP3    H247001   2.790   4.148  13.657 -1.7033  2.1975 -0.0582
 8504TIP3   OH247002   0.609   1.995   0.080 -0.0080 -0.2636 -0.3818
 8504TIP3    H147003   0.537   1.946   0.120 -0.0961  0.6226  0.5471
 8504TIP3    H247004   0.664   2.021   0.154  1.0607 -0.5856 -1.0476
 8505TIP3   OH247005   4.961   1.347   4.186 -0.1671  0.1556 -0.0033
 8505TIP3    H147006   4.942   1.320   4.275  2.6933 -0.9316  0.3213
 8505TIP3    H247007   5.013   1.276   4.149  1.4383  2.0150 -1.4768
 8506TIP3   OH247008   2.491   5.795  13.777  0.4737  0.0006 -0.1315
 8506TIP3    H147009   2.515   5.855  13.848  2.5148 -0.6360 -0.2327
 8506TIP3    H247010   2.546   5.823  13.703  0.0471 -0.7831 -0.7510
 8507TIP3   OH247011   5.270   3.167  15.616  0.6119  0.3411 -0.2528
 8507TIP3    H147012   5.256   3.073  15.611  4.7538 -0.2615 -2.3350
 8507TIP3    H247013   5.241   3.200  15.531  1.1242  0.6356 -0.3159
 8508TIP3   OH247014   2.134   0.592  16.592  0.7065 -0.0595  0.0270
 8508TIP3    H147015   2.143   0.659  16.659 -1.2931  2.1470 -1.8002
 8508TIP3    H247016   2.219   0.589  16.549  1.5850 -0.5430  1.7488
 8509TIP3   OH247017   5.920   2.805  17.110  0.3637 -0.0864 -0.2728
 8509TIP3    H147018   5.904   2.852  17.029  0.0362  1.5550  0.7386
 8509TIP3    H247019   6.013   2.783  17.107  0.0633 -1.2008 -1.6955
 8510TIP3   OH247020   2.517   4.631   2.763  0.2684 -0.0542 -0.7415
 8510TIP3    H147021   2.537   4.551   2.715  0.5822 -0.6578  0.3731
 8510TIP3    H247022   2.424   4.647   2.746  0.1827 -0.7028 -0.9060
 8511TIP3   OH247023   1.084   4.106   3.219 -0.0881 -0.3417  0.1896
 8511TIP3    H147024   1.153   4.107   3.287 -0.9834  2.0119  1.1322
 8511TIP3    H247025   1.132   4.103   3.137  1.1652  0.7606  0.8528
 8512TIP3   OH247026   2.149   5.112  15.253 -0.2345 -0.1149 -0.5965
 8512TIP3    H147027   2.133   5.048  15.322 -0.4005 -0.7542 -1.2102
 8512TIP3    H247028   2.221   5.073  15.202  0.1240  0.5155 -0.5683
 8513TIP3   OH247029   5.152   6.276   0.299 -0.3081 -0.2307 -0.3998
 8513TIP3    H147030   5.228   6.282   0.356 -0.6446 -0.1351  0.0398
 8513TIP3    H247031   5.079   6.254   0.358 -0.6173 -0.3307 -0.8164
 8514TIP3   OH247032   6.487   4.229  12.295  0.2891 -0.1828  0.0610
 8514TIP3    H147033   6.504   4.149  12.344  0.7185 -0.2687 -0.2180
 8514TIP3    H247034   6.509   4.299  12.355  0.5702 -0.2842  0.0787
 8515TIP3   OH247035   1.911   4.490   1.170 -0.1371  0.2500 -0.6349
 8515TIP3    H147036   1.826   4.535   1.170  0.0037  0.5206  0.4927
 8515TIP3    H247037   1.964   4.540   1.107 -0.4586  0.7482 -0.5098
 8516TIP3   OH247038   5.963   5.805  16.350 -0.0141  0.5385 -0.2440
 8516TIP3    H147039   6.043   5.752  16.351 -1.7059 -2.1714 -0.9400
 8516TIP3    H247040   5.923   5.791  16.436  0.8509  2.8819  0.5697
 8517TIP3   OH247041   0.842   4.145  12.670 -0.4400  0.3353 -0.1211
 8517TIP3    H147042   0.931   4.173  12.691  0.6283 -0.3211 -3.5446
 8517TIP3    H247043   0.786   4.206  12.719  1.8678  2.6150 -0.2069
 8518TIP3   OH247044   2.053   1.385   3.580  0.3283  0.1611  0.2201
 8518TIP3    H147045   2.084   1.372   3.490  0.4537 -1.5065  0.4863
 8518TIP3    H247046   2.107   1.457   3.613  1.1904 -0.0775 -0.6282
 8519TIP3   OH247047   0.502   0.119   3.825  0.1645  0.1150  0.2656
 8519TIP3    H147048   0.462   0.124   3.738  0.4806 -0.0147  0.1108
 8519TIP3    H247049   0.435   0.152   3.884  1.0313  3.0627 -0.3562
 8520TIP3   OH247050   2.782   1.078  11.860 -0.3257  0.9304  0.1250
 8520TIP3    H147051   2.828   1.043  11.937 -0.0436 -1.4535 -1.0942
 8520TIP3    H247052   2.690   1.068  11.881 -0.2533 -1.6802 -0.6775
 8521TIP3   OH247053   6.392   6.466  12.718  0.1818 -0.6643  0.5772
 8521TIP3    H147054   6.463   6.431  12.771  1.5167  2.7148  1.1715
 8521TIP3    H247055   6.325   6.493  12.781  0.6292  0.9085  0.4060
 8522TIP3   OH247056   1.965   3.607  14.345  0.5731  0.0519 -0.4038
 8522TIP3    H147057   1.910   3.686  14.346 -0.9500 -0.9163 -3.1950
 8522TIP3    H247058   2.039   3.630  14.288  0.8189 -0.1121 -0.1543
 8523TIP3   OH247059   1.015   0.486   1.352 -0.8944  0.4601 -0.0184
 8523TIP3    H147060   0.942   0.498   1.291 -0.8707  0.2031 -0.0981
 8523TIP3    H247061   1.086   0.538   1.314 -0.4650 -0.7736 -0.9288
 8524TIP3   OH247062   6.390   1.902  11.643  0.9232  0.3346  0.0942
 8524TIP3    H147063   6.448   1.856  11.582 -0.1885 -1.1241  0.1135
 8524TIP3    H247064   6.326   1.946  11.587 -0.2885 -1.2605  0.1661
 8525TIP3   OH247065   2.093   0.623  14.344 -0.3904 -0.4063  0.4316
 8525TIP3    H147066   2.135   0.694  14.391  1.1686 -1.1224  0.1398
 8525TIP3    H247067   2.062   0.564  14.413  0.5352 -0.6901  0.6142
 8526TIP3   OH247068   2.201   6.564   5.380  0.3778 -0.4924  0.2847
 8526TIP3    H147069   2.251   6.628   5.430 -0.5387  0.6923 -0.2843
 8526TIP3    H247070   2.254   6.546   5.303 -0.5028  1.5139 -0.8097
 8527TIP3   OH247071   4.008   1.721  14.769 -0.3928 -0.4467  0.4559
 8527TIP3    H147072   4.017   1.800  14.716  0.5367 -2.2251 -2.1218
 8527TIP3    H247073   3.916   1.697  14.760 -0.2899 -0.6107 -0.1774
 8528TIP3   OH247074   1.583   0.932  11.590  0.5565 -0.2263  0.0767
 8528TIP3    H147075   1.587   1.022  11.556 -0.4164 -0.9590 -2.0716
 8528TIP3    H247076   1.674   0.907  11.603  0.8194  1.2373  1.1459
 8529TIP3   OH247077   5.407   4.991   3.272 -0.0654  0.3775 -0.4026
 8529TIP3    H147078   5.442   4.963   3.188  1.2183 -0.9558  0.5481
 8529TIP3    H247079   5.442   5.079   3.285  1.2461 -0.1295 -0.4261
 8530TIP3   OH247080   3.239   0.967  15.605 -0.1909 -0.5343  0.2198
 8530TIP3    H147081   3.278   0.930  15.525 -2.0027 -0.9164 -0.5099
 8530TIP3    H247082   3.149   0.934  15.605 -1.3465  2.5098  0.4492
 8531TIP3   OH247083   1.463   0.287  12.269 -0.4106 -0.6310  0.4179
 8531TIP3    H147084   1.452   0.252  12.358 -2.8300 -1.6370 -0.2326
 8531TIP3    H247085   1.426   0.375  12.273 -2.9446 -1.6147 -0.1652
 8532TIP3   OH247086   2.409   3.702  16.396 -0.0120 -0.2598 -0.4812
 8532TIP3    H147087   2.455   3.774  16.352  2.2531 -0.7047  1.0350
 8532TIP3    H247088   2.367   3.743  16.472  2.3619 -0.6627  1.1256
 8533TIP3   OH247089   5.660   6.737   1.373 -0.2388 -0.1146  0.0772
 8533TIP3    H147090   5.587   6.727   1.312 -0.7376 -2.5224  1.0230
 8533TIP3    H247091   5.709   6.812   1.340 -3.1351  1.5296 -0.5757
 8534TIP3   OH247092   2.365   0.515  11.190  0.2919 -0.0726  0.2777
 8534TIP3    H147093   2.365   0.587  11.126  0.5661 -1.8275 -1.7541
 8534TIP3    H247094   2.277   0.477  11.183  1.3529 -2.3102 -1.4680
 8535TIP3   OH247095   3.333   4.521   4.145 -0.4042 -0.1576 -0.0362
 8535TIP3    H147096   3.418   4.478   4.142 -0.7747 -1.0744  1.5436
 8535TIP3    H247097   3.338   4.580   4.221 -0.1932  1.9835 -1.6803
 8536TIP3   OH247098   1.530   4.246   1.320 -0.5415  0.1911 -0.1182
 8536TIP3    H147099   1.580   4.198   1.254  0.0542  2.6047 -1.5119
 8536TIP3    H247100   1.452   4.193   1.334  0.5995 -1.7142 -0.7707
 8537TIP3   OH247101   3.207   3.965   4.418 -0.4308 -0.2025  0.3379
 8537TIP3    H147102   3.279   3.903   4.432 -1.3953 -1.5807 -0.6726
 8537TIP3    H247103   3.205   4.018   4.497  2.1976  0.3636  0.0699
 8538TIP3   OH247104   2.324   5.831   1.314 -0.0869 -0.0105  0.1314
 8538TIP3    H147105   2.379   5.830   1.393 -0.4514  0.0302  0.3833
 8538TIP3    H247106   2.274   5.750   1.320 -1.2268  0.7302  0.7163
 8539TIP3   OH247107   6.101   4.309  16.637  0.7873  0.4219 -0.1389
 8539TIP3    H147108   6.078   4.288  16.727 -0.7294 -1.4071 -0.9054
 8539TIP3    H247109   6.032   4.368  16.608  0.5429 -0.0351 -0.4982
 8540TIP3   OH247110   4.585   2.675  13.338 -0.6419 -0.0128  0.6312
 8540TIP3    H147111   4.640   2.598  13.324 -0.9986 -0.2107  0.2939
 8540TIP3    H247112   4.507   2.658  13.285 -0.0617  1.2664 -0.6776
 8541TIP3   OH247113   1.941   4.315   2.832  0.3203 -0.2084 -0.4737
 8541TIP3    H147114   2.010   4.337   2.895 -0.1100  0.3446 -0.1938
 8541TIP3    H247115   1.859   4.327   2.880  0.0291 -1.0537 -0.7471
 8542TIP3   OH247116   6.374   2.271  15.748 -0.0786 -0.3200  0.5746
 8542TIP3    H147117   6.317   2.345  15.767 -1.7702 -0.9143 -1.8343
 8542TIP3    H247118   6.463   2.306  15.754 -0.8639  2.0842 -1.2224
 8543TIP3   OH247119   3.488   1.061   1.003  0.3076 -0.1240  0.4638
 8543TIP3    H147120   3.518   1.080   0.914 -0.7215  0.9531  0.3305
 8543TIP3    H247121   3.517   0.972   1.020  0.5240 -0.3303 -0.9453
 8544TIP3   OH247122   5.690   5.840  16.715  0.1071  0.9317 -0.5811
 8544TIP3    H147123   5.709   5.933  16.702  1.8309  0.5577 -0.8490
 8544TIP3    H247124   5.610   5.825  16.664 -1.3295  2.6943  1.1011
 8545TIP3   OH247125   0.475   5.198  16.041 -0.1246 -0.0798  0.0575
 8545TIP3    H147126   0.450   5.169  16.128 -1.2353  1.3221  0.2176
 8545TIP3    H247127   0.442   5.288  16.035  2.2999  0.7980 -0.7952
 8546TIP3   OH247128   2.289   5.760   0.663  0.4914 -0.3498 -0.2893
 8546TIP3    H147129   2.229   5.708   0.609 -2.1891  1.7141  0.5988
 8546TIP3    H247130   2.284   5.848   0.625  1.0218  0.4077  1.3589
 8547TIP3   OH247131   5.354   3.753  14.142  0.1822 -0.2146  0.0221
 8547TIP3    H147132   5.383   3.814  14.074  1.0073  1.3024  1.7185
 8547TIP3    H247133   5.271   3.791  14.173 -0.4439 -1.1712 -0.4432
 8548TIP3   OH247134   1.211   4.395   4.188 -0.6542  0.0053 -0.4365
 8548TIP3    H147135   1.243   4.482   4.211  0.3366 -0.6412  0.7054
 8548TIP3    H247136   1.245   4.379   4.100  0.6229  0.0945  0.0247
 8549TIP3   OH247137   3.877   2.879  15.648  0.1873 -0.4502  0.2924
 8549TIP3    H147138   3.895   2.787  15.668 -0.5835 -0.6855 -0.0776
 8549TIP3    H247139   3.782   2.885  15.645  0.2406  0.1650 -0.5789
 8550TIP3   OH247140   0.138   0.085  13.020 -0.4688 -0.2676 -0.2283
 8550TIP3    H147141   0.082   0.012  12.992 -0.7914 -0.5987  1.2170
 8550TIP3    H247142   0.111   0.101  13.110  1.5192 -0.1819  0.3665
 8551TIP3   OH247143   6.218   2.660  16.779 -0.1117  0.0745 -0.0325
 8551TIP3    H147144   6.264   2.744  16.769  0.1689 -0.1171 -0.3503
 8551TIP3    H247145   6.217   2.645  16.873  1.1188 -0.2793 -0.0656
 8552TIP3   OH247146   3.654   6.454  14.606  0.3324  0.1938  0.1481
 8552TIP3    H147147   3.584   6.480  14.547  0.9995  2.5629  0.3493
 8552TIP3    H247148   3.718   6.410  14.550  0.4688  1.4622 -0.6911
 8553TIP3   OH247149   5.797   6.695  15.300  0.2495 -0.1193  0.1252
 8553TIP3    H147150   5.846   6.638  15.241  1.4586  0.8449  0.1791
 8553TIP3    H247151   5.710   6.655  15.306  0.6049 -1.0891 -1.0595
 8554TIP3   OH247152   5.093   3.344   1.535  0.0589 -0.0050 -0.4088
 8554TIP3    H147153   5.067   3.427   1.575 -0.5559  0.1865 -1.1838
 8554TIP3    H247154   5.031   3.280   1.570  0.3636 -0.0898 -0.0213
 8555TIP3   OH247155   6.051   1.508   5.796 -0.3163 -0.4671  0.3451
 8555TIP3    H147156   5.980   1.505   5.860  0.0558  0.2008  0.8017
 8555TIP3    H247157   6.131   1.510   5.850 -0.0203  0.7250 -0.1215
 8556TIP3   OH247158   4.056   3.688   3.353 -0.0416  0.0073  0.7858
 8556TIP3    H147159   4.015   3.721   3.273  0.3898 -0.7727  0.2320
 8556TIP3    H247160   3.990   3.633   3.393  0.4718 -1.3433 -0.1660
 8557TIP3   OH247161   2.844   5.662  12.973  0.4037  0.3792 -0.0513
 8557TIP3    H147162   2.938   5.681  12.966  0.9038 -1.8181  0.2508
 8557TIP3    H247163   2.826   5.665  13.066  0.6778 -1.3328  0.0767
 8558TIP3   OH247164   1.214   0.516  16.696 -0.1922  0.3252  1.0598
 8558TIP3    H147165   1.165   0.518  16.779  1.1497  1.7768  1.8381
 8558TIP3    H247166   1.282   0.583  16.707 -0.0074  0.5273 -1.2273
 8559TIP3   OH247167   4.329   4.775  12.066 -0.3561  0.0513 -0.0028
 8559TIP3    H147168   4.238   4.780  12.037  0.0288 -1.8179 -1.6817
 8559TIP3    H247169   4.373   4.722  11.999  1.6675 -0.2361  1.4837
 8560TIP3   OH247170   6.299   4.360   5.019 -0.0770  0.4103  0.4376
 8560TIP3    H147171   6.326   4.450   5.034  1.1183 -0.2133  2.1041
 8560TIP3    H247172   6.368   4.306   5.058 -0.3512 -1.2466 -1.2536
 8561TIP3   OH247173   5.483   2.689   2.469 -0.5455 -0.3419 -0.2218
 8561TIP3    H147174   5.480   2.756   2.538 -1.1429  0.3180 -0.8705
 8561TIP3    H247175   5.399   2.698   2.424  0.2382 -0.0733 -1.6677
 8562TIP3   OH247176   5.772   1.147  16.985  0.1872 -0.0132  0.1010
 8562TIP3    H147177   5.688   1.190  17.002  0.3055  0.5668 -0.6999
 8562TIP3    H247178   5.782   1.152  16.890  0.6981 -0.9041  0.1016
 8563TIP3   OH247179   5.462   0.937  11.908 -0.1318  0.4021  0.0292
 8563TIP3    H147180   5.426   0.862  11.862 -3.1039  1.9091 -0.2103
 8563TIP3    H247181   5.497   0.993  11.839 -0.0651  0.3502  0.0194
 8564TIP3   OH247182   4.906   3.487  14.479  0.0947 -0.1782 -0.0816
 8564TIP3    H147183   4.934   3.481  14.388  0.6081  0.0264  0.0646
 8564TIP3    H247184   4.855   3.407  14.494 -3.4585  1.6348 -1.7434
 8565TIP3   OH247185   4.607   6.258  12.090  0.5250  0.0286  0.0468
 8565TIP3    H147186   4.653   6.182  12.054 -1.4302 -0.4741 -1.5161
 8565TIP3    H247187   4.581   6.231  12.178  0.6618 -0.7826 -0.1551
 8566TIP3   OH247188   5.934   0.868   6.142  0.3641 -0.2476  0.1887
 8566TIP3    H147189   5.855   0.854   6.194 -0.2971  1.4549 -0.3184
 8566TIP3    H247190   5.981   0.938   6.187 -0.1322  1.1176 -1.3692
 8567TIP3   OH247191   2.551   2.742  12.386  0.0343 -0.2247  0.0495
 8567TIP3    H147192   2.461   2.774  12.386  0.5909  1.3466  1.0221
 8567TIP3    H247193   2.593   2.788  12.313 -0.0557 -1.2803 -0.6756
 8568TIP3   OH247194   5.776   4.584  12.134 -0.0923  0.0123 -0.5316
 8568TIP3    H147195   5.680   4.589  12.142 -0.1589 -0.2302 -1.1636
 8568TIP3    H247196   5.806   4.573  12.225 -0.5100  2.3208 -0.0998
 8569TIP3   OH247197   5.446   2.658  15.013 -0.3631  0.0019 -0.5800
 8569TIP3    H147198   5.518   2.598  15.033 -0.7390 -0.0547  0.6361
 8569TIP3    H247199   5.485   2.745  15.021 -0.2698 -0.0412 -0.5656
 8570TIP3   OH247200   3.876   5.391  15.039  0.5200 -0.2889  0.1362
 8570TIP3    H147201   3.959   5.426  15.007  0.0554 -0.3806 -1.1692
 8570TIP3    H247202   3.878   5.410  15.133  1.1955  1.3591 -0.1910
 8571TIP3   OH247203   3.804   3.338   5.905 -0.0799 -0.6903 -0.1592
 8571TIP3    H147204   3.836   3.276   5.971  1.2722  1.6569  1.4603
 8571TIP3    H247205   3.712   3.351   5.927  0.0756 -0.7953  0.5744
 8572TIP3   OH247206   3.502   4.642  17.074  0.0255  0.3890  0.3144
 8572TIP3    H147207   3.486   4.721  17.021 -2.3022 -0.9497 -1.0708
 8572TIP3    H247208   3.425   4.587  17.058  1.0162 -1.6246  2.2690
 8573TIP3   OH247209   3.454   1.804  12.086  0.2447 -0.7734  0.5282
 8573TIP3    H147210   3.477   1.894  12.108 -0.2281 -0.1216 -1.5298
 8573TIP3    H247211   3.538   1.764  12.060  0.1575 -0.3398 -0.4573
 8574TIP3   OH247212   4.910   6.130  15.396 -0.1875  0.3241 -0.0643
 8574TIP3    H147213   4.936   6.209  15.443  3.7089  0.7784 -2.7381
 8574TIP3    H247214   4.914   6.060  15.461  0.4841  1.6408  1.3282
 8575TIP3   OH247215   4.081   2.413  15.017  0.1990  0.0690 -0.0597
 8575TIP3    H147216   4.148   2.346  15.032 -2.1501 -2.1368  1.0805
 8575TIP3    H247217   4.092   2.437  14.925  1.4196 -1.5311 -0.3558
 8576TIP3   OH247218   1.268   6.406  13.354  0.5143 -0.1719 -0.0884
 8576TIP3    H147219   1.213   6.483  13.369  0.5496 -0.1782  0.0738
 8576TIP3    H247220   1.336   6.412  13.422  1.8425  0.8829 -1.4548
 8577TIP3   OH247221   0.935   3.460  12.969  0.2315 -0.1876 -0.3716
 8577TIP3    H147222   0.995   3.437  12.898  1.0182  0.4192  0.0984
 8577TIP3    H247223   0.983   3.439  13.049 -0.4247 -0.2950  0.0007
 8578TIP3   OH247224   2.521   2.068   0.806 -0.6684 -0.1734 -0.7863
 8578TIP3    H147225   2.573   2.081   0.726  0.0919 -0.9024 -0.4260
 8578TIP3    H247226   2.550   1.982   0.839 -0.6828  0.3023  0.4835
 8579TIP3   OH247227   2.914   2.943  15.124  0.0070  0.1485 -0.5205
 8579TIP3    H147228   2.910   2.861  15.076  0.0846 -0.1463 -0.0236
 8579TIP3    H247229   3.008   2.958  15.138  0.0150  0.5220 -0.9505
 8580TIP3   OH247230   0.376   0.364  11.851  0.1739 -0.5385 -0.1436
 8580TIP3    H147231   0.382   0.398  11.761  2.7320 -0.4884  0.0110
 8580TIP3    H247232   0.430   0.285  11.851 -1.4928 -1.7104  0.8520
 8581TIP3   OH247233   3.142   6.022  12.474 -0.7965 -0.0227 -0.2131
 8581TIP3    H147234   3.222   6.025  12.420  0.0776  0.9648  1.1143
 8581TIP3    H247235   3.078   6.072  12.424 -0.3150 -0.0089 -0.8350
 8582TIP3   OH247236   6.098   5.307   2.847  0.1535  0.2317 -0.7696
 8582TIP3    H147237   6.124   5.378   2.788 -0.8280  0.6068 -0.7648
 8582TIP3    H247238   6.115   5.341   2.935 -2.1832  1.2500 -0.6847
 8583TIP3   OH247239   4.986   0.227   5.641  0.8130  0.2404  0.1477
 8583TIP3    H147240   4.978   0.319   5.667 -3.6942  0.9125 -2.9501
 8583TIP3    H247241   5.027   0.230   5.555  2.0417 -0.7955  0.6866
 8584TIP3   OH247242   3.098   6.123   3.269 -0.8625 -0.1739  0.3096
 8584TIP3    H147243   3.138   6.054   3.322  1.0205  0.5804 -0.1057
 8584TIP3    H247244   3.125   6.103   3.180 -1.2499  0.4663  0.0468
 8585TIP3   OH247245   1.178   5.259   4.702 -0.2140 -0.1507  0.2737
 8585TIP3    H147246   1.199   5.348   4.732 -1.3131  0.1896  0.0689
 8585TIP3    H247247   1.218   5.201   4.766  2.1074  0.4374 -0.5735
 8586TIP3   OH247248   4.648   0.401  15.439  0.2239 -0.2550  0.1723
 8586TIP3    H147249   4.688   0.373  15.521  0.9555 -1.2671 -0.5148
 8586TIP3    H247250   4.723   0.420  15.381 -0.2861 -1.1187 -0.7776
 8587TIP3   OH247251   6.110   3.977  14.940  0.4185  0.7537  0.6586
 8587TIP3    H147252   6.178   3.932  14.891 -1.0685 -0.2250 -0.5386
 8587TIP3    H247253   6.061   3.907  14.985 -1.2307  1.2251 -0.3559
 8588TIP3   OH247254   0.673   5.301   3.999  0.5669  0.2551 -0.7476
 8588TIP3    H147255   0.591   5.348   3.982  0.9266  0.8817 -0.7639
 8588TIP3    H247256   0.669   5.224   3.942 -0.4107 -0.1860 -0.1000
 8589TIP3   OH247257   6.686   3.466  15.521  0.1875 -0.0557 -0.4626
 8589TIP3    H147258   6.742   3.466  15.598 -0.7255 -1.7557  0.2342
 8589TIP3    H247259   6.659   3.375  15.511 -1.2024  0.4703 -1.6858
 8590TIP3   OH247260   4.031   5.781   4.436  0.3267 -0.5584 -0.1173
 8590TIP3    H147261   3.958   5.720   4.448 -0.5758  0.4366 -0.4097
 8590TIP3    H247262   4.018   5.847   4.504  1.4348 -0.8215  0.3553
 8591TIP3   OH247263   1.772   2.937   2.046 -0.0946  0.2216 -0.0480
 8591TIP3    H147264   1.826   2.859   2.050 -0.0402  0.3286  1.5313
 8591TIP3    H247265   1.710   2.928   2.118 -0.5985  1.2707 -0.3236
 8592TIP3   OH247266   5.078   0.699   2.442 -0.3786 -0.1955 -0.3227
 8592TIP3    H147267   5.140   0.725   2.374 -1.7862  0.3287 -1.4344
 8592TIP3    H247268   5.023   0.776   2.455  0.3329 -0.0341  1.9615
 8593TIP3   OH247269   1.599   2.405   4.152  0.1086  0.0665 -0.2260
 8593TIP3    H147270   1.624   2.442   4.237 -1.9457  0.5759  0.1978
 8593TIP3    H247271   1.623   2.313   4.158  2.0871  0.5840  0.0354
 8594TIP3   OH247272   6.055   2.983   0.388 -0.2067  0.1600 -0.0273
 8594TIP3    H147273   6.079   3.058   0.333 -0.0626 -1.5160 -2.3288
 8594TIP3    H247274   5.961   2.971   0.373 -0.7044  1.1828  2.0378
 8595TIP3   OH247275   3.373   5.893  14.562  0.0976 -0.5054  0.1070
 8595TIP3    H147276   3.398   5.967  14.617 -0.6183  0.1117 -0.3848
 8595TIP3    H247277   3.298   5.925  14.511  0.6036 -1.1473 -1.0556
 8596TIP3   OH247278   0.309   1.646   5.381  0.1242 -0.6445 -0.0731
 8596TIP3    H147279   0.403   1.654   5.364  0.3163 -3.8933 -0.9663
 8596TIP3    H247280   0.267   1.667   5.298  0.1277 -0.4668 -0.0309
 8597TIP3   OH247281   1.115   0.235   5.872  0.3633  0.2947 -0.2588
 8597TIP3    H147282   1.103   0.144   5.843 -0.7018  0.6647 -1.0028
 8597TIP3    H247283   1.164   0.227   5.954 -1.6639 -1.0936  0.8749
 8598TIP3   OH247284   1.075   3.539  11.756 -0.2319 -0.0410  0.1761
 8598TIP3    H147285   1.076   3.552  11.661  0.2437 -0.0310  0.1812
 8598TIP3    H247286   1.137   3.604  11.790 -0.7347  0.2569  0.5330
 8599TIP3   OH247287   5.580   3.244  16.636  0.2321  0.2805  0.2839
 8599TIP3    H147288   5.533   3.276  16.558  0.4057  1.8954  0.8261
 8599TIP3    H247289   5.629   3.320  16.667  1.2499 -0.7352  1.1778
 8600TIP3   OH247290   0.021   5.649   3.242 -0.5282 -0.2437 -0.7745
 8600TIP3    H147291   0.115   5.640   3.225 -0.8246 -3.2208 -1.0821
 8600TIP3    H247292  -0.010   5.710   3.175  1.0588  0.3007 -1.0492
 8601TIP3   OH247293   4.583   3.957   3.255  0.1746  0.0343  0.0016
 8601TIP3    H147294   4.517   4.023   3.277 -0.5527 -0.6871  0.0018
 8601TIP3    H247295   4.559   3.880   3.308  0.8890 -0.3037 -0.1550
 8602TIP3   OH247296   0.122   5.532   2.454 -0.0745  0.1557 -0.1275
 8602TIP3    H147297   0.142   5.438   2.459  1.1256  0.2280 -2.4482
 8602TIP3    H247298   0.076   5.552   2.535 -0.0751 -2.3838  0.5366
 8603TIP3   OH247299   5.297   6.049  11.692  0.3113 -0.0699 -0.2636
 8603TIP3    H147300   5.205   6.046  11.721  0.2319 -0.6478 -0.5826
 8603TIP3    H247301   5.296   6.013  11.604  0.8180  0.1243 -0.3506
 8604TIP3   OH247302   1.061   3.731   4.950  0.2182  0.1772  0.7315
 8604TIP3    H147303   1.024   3.719   5.037 -0.8885 -1.0256  0.1156
 8604TIP3    H247304   1.077   3.642   4.918 -0.2007  0.5792 -0.6353
 8605TIP3   OH247305   3.356   1.347   3.838 -0.3485  0.6175  0.5990
 8605TIP3    H147306   3.320   1.323   3.923 -3.1411  2.2626 -0.0500
 8605TIP3    H247307   3.385   1.437   3.848  0.9404  0.2468  0.2789
 8606TIP3   OH247308   4.686   5.950  15.103  0.9673  0.1883 -0.4042
 8606TIP3    H147309   4.721   6.035  15.078 -2.2374  1.1754 -1.7702
 8606TIP3    H247310   4.623   5.969  15.173  2.6908 -1.4890  1.6816
 8607TIP3   OH247311   3.341   2.875   5.101  0.2061  0.3481  0.4602
 8607TIP3    H147312   3.353   2.804   5.038 -0.7042 -0.5177  1.2332
 8607TIP3    H247313   3.386   2.844   5.180 -0.3647  0.5422  0.8601
 8608TIP3   OH247314   2.750   5.118   5.194  0.0179  0.2888 -0.3430
 8608TIP3    H147315   2.784   5.132   5.105 -1.3571  1.2052 -0.7379
 8608TIP3    H247316   2.785   5.192   5.244  1.0895 -0.4215 -0.0223
 8609TIP3   OH247317   2.081   1.606  14.730  1.0781 -0.0300 -0.6249
 8609TIP3    H147318   2.070   1.512  14.743  0.5451  0.3463  1.8838
 8609TIP3    H247319   2.175   1.621  14.735  1.3845 -0.7531 -3.6042
 8610TIP3   OH247320   3.311   0.964  13.936  0.3114  0.2553  0.7857
 8610TIP3    H147321   3.397   0.974  13.978 -0.8833 -0.5902  3.5292
 8610TIP3    H247322   3.299   1.046  13.888  3.4292 -0.3633 -1.1711
 8611TIP3   OH247323   2.893   0.977  12.462 -0.2222  0.1748 -0.0888
 8611TIP3    H147324   2.832   1.000  12.532 -0.5053  1.9182 -0.8761
 8611TIP3    H247325   2.915   1.061  12.421  2.6171 -0.3998  0.1074
 8612TIP3   OH247326   4.442   4.598   1.201  0.3156 -0.2195 -0.1556
 8612TIP3    H147327   4.496   4.639   1.133  2.1580 -2.1263  0.0988
 8612TIP3    H247328   4.485   4.621   1.283 -0.8145  0.4819  0.2538
 8613TIP3   OH247329   0.356   0.788  15.934 -0.5163  0.1643  0.2186
 8613TIP3    H147330   0.349   0.706  15.886  1.3438 -0.1603  0.4848
 8613TIP3    H247331   0.294   0.779  16.007  0.2894 -1.3427  0.7346
 8614TIP3   OH247332   0.607   4.399   3.955 -0.2944  0.4159  0.0854
 8614TIP3    H147333   0.591   4.345   3.877 -0.0816 -0.2762  0.5189
 8614TIP3    H247334   0.702   4.394   3.967 -0.2078  1.3590 -0.2148
 8615TIP3   OH247335   1.747   0.791  16.828  0.4088 -0.3481  0.3066
 8615TIP3    H147336   1.798   0.769  16.750 -0.9890 -2.2899 -0.1233
 8615TIP3    H247337   1.795   0.750  16.900 -1.1910 -3.4247 -0.2676
 8616TIP3   OH247338   5.605   2.246  16.034 -0.0775 -0.1861 -0.4155
 8616TIP3    H147339   5.699   2.265  16.036  0.1201 -1.0740 -0.7371
 8616TIP3    H247340   5.568   2.298  16.105  1.0257 -1.6955  1.2982
 8617TIP3   OH247341   1.868   2.603  11.288  0.0384 -0.4423  0.4974
 8617TIP3    H147342   1.954   2.578  11.322 -0.3096 -0.8684  1.0744
 8617TIP3    H247343   1.887   2.671  11.223  0.8438 -0.8732  0.2770
 8618TIP3   OH247344   0.692   1.596  10.980 -0.2819 -0.3158  0.3275
 8618TIP3    H147345   0.779   1.563  10.956  0.0023  0.4676  0.2516
 8618TIP3    H247346   0.679   1.566  11.070  0.6286  0.6504  0.7970
 8619TIP3   OH247347   0.040   5.040  14.444  0.1955  1.1258 -0.2456
 8619TIP3    H147348  -0.023   5.111  14.445 -2.1591 -0.8898  1.6187
 8619TIP3    H247349   0.019   4.988  14.522  1.6275 -1.7579 -1.6938
 8620TIP3   OH247350   3.467   2.532  15.939  0.3188 -0.8146  0.5418
 8620TIP3    H147351   3.454   2.495  15.851  0.9839 -2.3023  1.0731
 8620TIP3    H247352   3.385   2.579  15.956  0.6541  0.5634 -1.3810
 8621TIP3   OH247353   0.360   2.231  13.131 -0.3309  0.1553  0.1840
 8621TIP3    H147354   0.383   2.190  13.048 -0.4536 -0.7817  0.6100
 8621TIP3    H247355   0.275   2.193  13.154  0.0732 -0.2070  1.1354
 8622TIP3   OH247356   4.814   2.813   0.761 -0.1452  0.3586 -0.1280
 8622TIP3    H147357   4.805   2.858   0.845  0.4621  1.7032 -0.7665
 8622TIP3    H247358   4.779   2.725   0.777  0.9307  0.2588  1.7952
 8623TIP3   OH247359   5.729   3.879  16.438  0.0553 -0.2641  0.4837
 8623TIP3    H147360   5.717   3.974  16.427  0.5526 -0.4211 -1.7025
 8623TIP3    H247361   5.661   3.853  16.500 -1.5120  1.1793 -0.5854
 8624TIP3   OH247362   4.739   1.581   2.569  1.2265 -0.5224 -0.1365
 8624TIP3    H147363   4.656   1.625   2.586  1.7990  0.2029  0.8846
 8624TIP3    H247364   4.767   1.614   2.484 -0.0372 -1.5831 -0.9800
 8625TIP3   OH247365   1.678   3.867   3.176 -0.0229  0.5829 -0.2662
 8625TIP3    H147366   1.673   3.939   3.113 -0.1231  0.1427 -0.7672
 8625TIP3    H247367   1.762   3.880   3.221 -0.6955  1.8262  0.6456
 8626TIP3   OH247368   2.879   6.203  15.545 -0.6048 -0.3090  0.0711
 8626TIP3    H147369   2.905   6.211  15.453  2.3146 -1.4365  0.7444
 8626TIP3    H247370   2.831   6.284  15.564  0.9022  1.0388 -1.7633
 8627TIP3   OH247371   1.816   3.056  11.854  0.3487  0.2257 -0.0624
 8627TIP3    H147372   1.732   3.009  11.855  1.1337 -1.2918 -2.1757
 8627TIP3    H247373   1.849   3.048  11.943 -1.1733 -0.2174  0.4740
 8628TIP3   OH247374   2.037   4.291   6.689  0.6706 -0.0930 -0.2516
 8628TIP3    H147375   1.965   4.236   6.659  0.0910  0.9705 -0.8685
 8628TIP3    H247376   2.095   4.232   6.738 -1.7389 -0.5535  2.1640
 8629TIP3   OH247377   0.331   4.058  12.551 -0.1798 -0.2727  0.3397
 8629TIP3    H147378   0.345   4.071  12.457  1.0048  1.4790  0.7239
 8629TIP3    H247379   0.302   3.968  12.559  0.1689 -0.5879 -1.6728
 8630TIP3   OH247380   1.733   2.692   4.859  0.1910  0.3876  0.1613
 8630TIP3    H147381   1.656   2.710   4.913  1.0401  1.9086  0.9290
 8630TIP3    H247382   1.789   2.637   4.914  0.2883  0.5015  0.1782
 8631TIP3   OH247383   6.192   2.624   1.254  0.6987 -0.2188 -0.4821
 8631TIP3    H147384   6.141   2.566   1.197  0.0732 -0.6374  0.4836
 8631TIP3    H247385   6.161   2.712   1.233 -2.0982 -0.6067  1.6687
 8632TIP3   OH247386   6.446   5.661   2.163 -0.6418 -0.8793  0.2116
 8632TIP3    H147387   6.506   5.669   2.089  0.1606 -0.4068  0.8961
 8632TIP3    H247388   6.481   5.587   2.213 -0.0603 -0.0097  1.1173
 8633TIP3   OH247389   6.164   3.274   2.982  0.1696  0.1607 -0.1783
 8633TIP3    H147390   6.086   3.224   2.958 -0.0870  0.9692 -1.0450
 8633TIP3    H247391   6.134   3.365   2.982  0.9711  0.4221  0.0571
 8634TIP3   OH247392   0.167   5.363   0.070  0.3050  0.5463  0.8815
 8634TIP3    H147393   0.210   5.433   0.121  0.7850  1.4439 -0.7160
 8634TIP3    H247394   0.240   5.318   0.026 -0.3107  1.5382 -1.1854
 8635TIP3   OH247395   5.924   6.478   2.626  0.6049 -0.7380 -0.2226
 8635TIP3    H147396   5.844   6.429   2.644 -1.2267  2.4422  0.7103
 8635TIP3    H247397   5.967   6.487   2.711 -0.2609  1.2002  0.0352
 8636TIP3   OH247398   0.271   0.098  11.039  0.5667  0.6076 -0.0327
 8636TIP3    H147399   0.362   0.127  11.029  1.6902 -2.4699  0.8029
 8636TIP3    H247400   0.246   0.068  10.952  0.6405  0.6025 -0.0517
 8637TIP3   OH247401   0.301   0.171  11.571 -0.2063  0.4106 -0.4372
 8637TIP3    H147402   0.317   0.080  11.596 -0.4226  0.8603  1.3884
 8637TIP3    H247403   0.324   0.174  11.478  1.0025 -1.2148 -0.2217
 8638TIP3   OH247404   1.806   3.376  14.452  0.6158  0.1771 -0.0217
 8638TIP3    H147405   1.875   3.442  14.462  1.2363 -0.5731  0.7423
 8638TIP3    H247406   1.845   3.309  14.396  1.1791 -1.1283  1.8757
 8639TIP3   OH247407   5.997   1.819  16.390  0.0805 -0.9617  0.4244
 8639TIP3    H147408   5.938   1.820  16.315  0.4723 -2.4461  0.0861
 8639TIP3    H247409   5.980   1.735  16.433 -0.5546  0.1213  2.3338
 8640TIP3   OH247410   4.919   4.779  12.866 -0.2688 -0.7223 -0.1759
 8640TIP3    H147411   4.847   4.757  12.807  0.2020 -2.0425 -0.2845
 8640TIP3    H247412   4.994   4.729  12.832 -0.0646 -1.7409  1.6872
 8641TIP3   OH247413   0.070   3.832   4.776  0.0767  0.0180  0.8360
 8641TIP3    H147414  -0.004   3.880   4.814  0.3651 -0.7533  2.4254
 8641TIP3    H247415   0.119   3.801   4.852  1.1568 -0.8243 -0.1995
 8642TIP3   OH247416   5.575   4.411   3.971 -0.2458  0.0924  0.1716
 8642TIP3    H147417   5.575   4.486   3.912 -0.5741  0.1610  0.2594
 8642TIP3    H247418   5.523   4.439   4.046 -0.5566 -0.3007  0.1050
 8643TIP3   OH247419   0.429   1.014  12.359  0.7111  0.5569  0.1926
 8643TIP3    H147420   0.432   0.933  12.410 -0.7417 -0.6315 -1.5227
 8643TIP3    H247421   0.437   1.084  12.424  3.0814 -0.9584  1.5993
 8644TIP3   OH247422   5.602   1.494   1.667  0.1912 -0.4805 -0.3942
 8644TIP3    H147423   5.681   1.522   1.712  0.9904  0.2199 -2.1730
 8644TIP3    H247424   5.592   1.402   1.688 -0.0995  0.0909  2.1122
 8645TIP3   OH247425   5.286   2.339  15.489 -0.0664  0.4682  0.2814
 8645TIP3    H147426   5.292   2.413  15.428 -1.8804 -0.5291 -1.1499
 8645TIP3    H247427   5.374   2.302  15.491  0.5895  1.9876  0.1431
 8646TIP3   OH247428   6.741   0.701  12.787  0.5247 -0.1536 -0.2881
 8646TIP3    H147429   6.800   0.737  12.853 -1.3462  0.0981  1.2724
 8646TIP3    H247430   6.666   0.761  12.786 -0.7391 -1.7146 -0.6185
 8647TIP3   OH247431   1.874   3.435   4.460 -0.2165 -0.0466  0.4390
 8647TIP3    H147432   1.860   3.350   4.502  1.8144  0.0803  1.4252
 8647TIP3    H247433   1.895   3.494   4.532  0.2702  0.8706 -0.4424
 8648TIP3   OH247434   5.994   2.028   5.204  0.4466 -0.5113 -0.6369
 8648TIP3    H147435   5.983   1.942   5.164 -0.0035  0.5034 -2.7758
 8648TIP3    H247436   6.026   2.084   5.133  1.0627  1.0123  0.8022
 8649TIP3   OH247437   3.836   5.142  14.624  0.1957 -0.2270 -0.4696
 8649TIP3    H147438   3.761   5.107  14.672 -1.2293  0.7935 -1.9248
 8649TIP3    H247439   3.848   5.230  14.660  2.4790 -1.3514  1.7190
 8650TIP3   OH247440   4.189   6.689   3.064 -0.0421 -0.3394 -0.0107
 8650TIP3    H147441   4.132   6.625   3.022 -1.7344  0.8781  0.3828
 8650TIP3    H247442   4.163   6.773   3.026  0.5733  0.3957  1.1642
 8651TIP3   OH247443   1.037   2.450   2.934  0.4966  0.1702 -0.3817
 8651TIP3    H147444   0.950   2.436   2.897  0.8261  0.6451 -1.3516
 8651TIP3    H247445   1.050   2.376   2.994 -0.1414 -0.4681 -1.0274
 8652TIP3   OH247446   2.937   0.034   2.495  0.3031  0.2815  0.1761
 8652TIP3    H147447   3.025   0.071   2.486  0.9857 -1.6064 -1.3469
 8652TIP3    H247448   2.943  -0.023   2.572  0.3816  0.2916  0.1781
 8653TIP3   OH247449   2.182   2.832   2.085  0.3630  0.1172 -0.2029
 8653TIP3    H147450   2.095   2.799   2.106 -0.5492  1.8841 -1.1004
 8653TIP3    H247451   2.180   2.924   2.112  1.2984  0.6968 -2.0385
 8654TIP3   OH247452   4.764   6.104   0.553  0.1980 -0.5001 -0.0397
 8654TIP3    H147453   4.833   6.041   0.532  0.9578  0.6385 -1.0175
 8654TIP3    H247454   4.701   6.094   0.481  0.7493  0.4631 -0.6644
 8655TIP3   OH247455   6.211   5.308  11.781  1.2542 -0.2008  0.0024
 8655TIP3    H147456   6.197   5.397  11.749 -0.0956 -0.2590  0.4161
 8655TIP3    H247457   6.196   5.252  11.705 -1.2748 -0.2911  0.5204
 8656TIP3   OH247458   0.578   4.973   5.780 -0.4508  0.3678  0.0764
 8656TIP3    H147459   0.625   4.997   5.700 -1.9848 -2.5106 -1.7727
 8656TIP3    H247460   0.599   4.881   5.794 -2.6437  0.0080  1.2464
 8657TIP3   OH247461   3.448   1.688   0.047 -0.0622 -0.5632 -0.1061
 8657TIP3    H147462   3.375   1.740   0.080 -0.1714 -0.7923  0.0149
 8657TIP3    H247463   3.502   1.670   0.125  1.1158  1.1823 -0.4950
 8658TIP3   OH247464   2.964   0.811  14.616 -0.3596 -0.8616  0.3296
 8658TIP3    H147465   2.911   0.731  14.610 -0.8488 -0.5913  0.9596
 8658TIP3    H247466   2.910   0.872  14.667 -0.5050  0.2779 -1.1150
 8659TIP3   OH247467   1.165   5.138  11.819 -0.0059 -0.5875 -0.3172
 8659TIP3    H147468   1.089   5.185  11.853 -0.1802 -1.5822  0.6942
 8659TIP3    H247469   1.199   5.090  11.895  1.6727 -0.0880 -0.7333
 8660TIP3   OH247470   5.867   0.746   5.892 -0.5481  0.0195 -0.1650
 8660TIP3    H147471   5.850   0.825   5.840 -1.1745 -0.2732 -0.4026
 8660TIP3    H247472   5.885   0.780   5.980  1.9381  0.6152 -0.8569
 8661TIP3   OH247473   2.969   0.966   4.893  0.3916 -0.4157 -0.3959
 8661TIP3    H147474   3.060   0.938   4.895 -0.0230 -1.8349 -0.5438
 8661TIP3    H247475   2.955   0.997   4.803  0.7946  0.0378 -0.3027
 8662TIP3   OH247476   0.130   0.379  16.365  0.5505 -0.0467 -0.1732
 8662TIP3    H147477   0.185   0.407  16.292  1.9773 -2.1330  0.0603
 8662TIP3    H247478   0.189   0.375  16.439 -0.8334  1.7591  1.0752
 8663TIP3   OH247479   1.200   1.345  11.145 -0.0259  0.3888  0.8852
 8663TIP3    H147480   1.144   1.282  11.191 -1.6305  1.8645  1.0309
 8663TIP3    H247481   1.188   1.325  11.052 -0.9592  0.7921  0.9084
 8664TIP3   OH247482   4.515   2.177   0.263  0.2467  0.2715 -0.0617
 8664TIP3    H147483   4.481   2.092   0.290  0.6299  0.3404  0.6528
 8664TIP3    H247484   4.442   2.218   0.216  0.2495 -0.6771 -0.9135
 8665TIP3   OH247485   1.333   4.422   2.420 -0.5010  0.1096  0.0210
 8665TIP3    H147486   1.287   4.461   2.345  1.2091 -0.1417 -1.1773
 8665TIP3    H247487   1.423   4.412   2.390 -0.8735 -5.0190  0.1208
 8666TIP3   OH247488   1.672   1.388   1.778  0.0769 -0.3222 -0.2392
 8666TIP3    H147489   1.759   1.404   1.814 -0.9078  1.1582  1.5376
 8666TIP3    H247490   1.645   1.472   1.740 -1.8177  0.1207  1.9707
 8667TIP3   OH247491   2.423   4.158  12.806 -0.0219 -0.0838 -0.4864
 8667TIP3    H147492   2.445   4.133  12.716  0.3384 -1.7936  0.0574
 8667TIP3    H247493   2.414   4.254  12.803 -1.6875 -0.2773 -2.6849
 8668TIP3   OH247494   0.794   5.467   2.398  0.9649  0.5350  0.3053
 8668TIP3    H147495   0.855   5.490   2.468  0.6051  0.4856  0.6371
 8668TIP3    H247496   0.708   5.487   2.434  0.8418  1.4177 -0.4831
 8669TIP3   OH247497   0.656   2.667  14.006  0.2798 -0.0387 -0.0647
 8669TIP3    H147498   0.653   2.639  13.914 -0.6858 -1.1198  0.2735
 8669TIP3    H247499   0.598   2.743  14.009 -0.2763 -0.4440 -0.2269
 8670TIP3   OH247500   4.607   4.985   6.112 -0.4779 -0.5742 -0.6712
 8670TIP3    H147501   4.554   4.906   6.099 -2.4729  0.7788 -0.8163
 8670TIP3    H247502   4.652   4.997   6.028 -3.6113  0.9362 -2.2357
 8671TIP3   OH247503   6.223   5.821   5.275 -0.1968  0.2202  0.1376
 8671TIP3    H147504   6.295   5.883   5.264  1.0478 -0.9444  1.4858
 8671TIP3    H247505   6.246   5.747   5.220  0.3608 -0.7584  1.6677
 8672TIP3   OH247506   6.067   5.467   4.383  0.2833 -0.2234 -0.7752
 8672TIP3    H147507   6.076   5.375   4.409  0.9651  0.3935  1.2730
 8672TIP3    H247508   5.982   5.494   4.417 -0.6579 -0.5130 -2.7972
 8673TIP3   OH247509   1.290   2.786   5.014  0.4010 -0.3924  0.0938
 8673TIP3    H147510   1.315   2.874   5.041  1.1800 -0.4276 -0.5035
 8673TIP3    H247511   1.194   2.788   5.011  0.4592  0.9517 -1.5773
 8674TIP3   OH247512   4.723   5.243   2.193  0.2351 -0.6991 -0.4849
 8674TIP3    H147513   4.698   5.184   2.123  1.3911  0.0574 -1.5653
 8674TIP3    H247514   4.794   5.296   2.156 -1.2039  1.8103  0.2223
 8675TIP3   OH247515   1.084   2.196   0.792  0.1725  0.4145 -0.4998
 8675TIP3    H147516   1.180   2.194   0.787  0.3758  3.4723  1.0680
 8675TIP3    H247517   1.060   2.279   0.751 -1.6298  0.8276  1.3468
 8676TIP3   OH247518   6.334   1.106  16.622  0.9042  0.1862  0.0256
 8676TIP3    H147519   6.426   1.090  16.602  0.8540  0.2045 -0.2197
 8676TIP3    H247520   6.291   1.022  16.606  0.8943  0.1526  0.2306
 8677TIP3   OH247521   1.672   4.911   1.211 -0.9288  0.0338  0.0688
 8677TIP3    H147522   1.718   4.845   1.262 -2.4513 -0.9954  0.1552
 8677TIP3    H247523   1.583   4.877   1.203 -1.9893  2.5496  0.9292
 8678TIP3   OH247524   5.274   0.897  16.303  0.0722 -0.2058  0.3587
 8678TIP3    H147525   5.293   0.874  16.212 -0.0884  2.2445 -0.3527
 8678TIP3    H247526   5.306   0.824  16.355  0.1857 -1.6214 -1.6800
 8679TIP3   OH247527   5.362   5.466  17.077  0.0207  0.2093 -0.3203
 8679TIP3    H147528   5.269   5.444  17.086  0.2149 -1.2009 -1.5364
 8679TIP3    H247529   5.404   5.383  17.053  1.5816  0.8606  0.0886
 8680TIP3   OH247530   4.157   2.557  11.213 -0.3696  0.1479  0.3326
 8680TIP3    H147531   4.128   2.619  11.146  0.2772 -0.4830 -0.5374
 8680TIP3    H247532   4.114   2.587  11.293 -1.9772  0.3155 -0.5598
 8681TIP3   OH247533   0.901   1.939  16.009 -0.6957 -0.1757 -0.3692
 8681TIP3    H147534   0.883   1.929  15.915 -1.1156  1.0253 -0.4298
 8681TIP3    H247535   0.869   1.858  16.049  0.1022 -0.9912 -1.3365
 8682TIP3   OH247536   5.386   5.497   6.829  0.0733  0.0004 -0.1118
 8682TIP3    H147537   5.458   5.450   6.786 -1.0214 -1.3621 -0.5038
 8682TIP3    H247538   5.308   5.466   6.784 -0.8226  0.9393  0.7859
 8683TIP3   OH247539   2.137   3.955   3.084  0.1295  0.1128  0.0358
 8683TIP3    H147540   2.159   3.880   3.139 -0.7444 -0.0646  0.1530
 8683TIP3    H247541   2.138   4.030   3.144 -2.0905 -0.2582  0.5986
 8684TIP3   OH247542   2.455   0.300   4.444  0.8509 -0.8397  0.3798
 8684TIP3    H147543   2.550   0.286   4.448  0.9071 -0.6864 -0.4524
 8684TIP3    H247544   2.429   0.311   4.535  1.6279 -0.9257  0.6155
 8685TIP3   OH247545   5.470   0.926  13.808  0.4221 -0.0153 -0.2640
 8685TIP3    H147546   5.487   0.958  13.896 -0.4826 -1.8117  0.6067
 8685TIP3    H247547   5.556   0.906  13.771  0.6671 -1.8127  1.2356
 8686TIP3   OH247548   4.836   2.190  17.022  0.1114 -0.7443 -0.5688
 8686TIP3    H147549   4.790   2.147  17.093 -0.8213  2.1588  0.6772
 8686TIP3    H247550   4.769   2.208  16.956  0.5554 -1.4961 -1.2370
 8687TIP3   OH247551   2.477   2.764   0.417  0.1918 -0.4786  0.2435
 8687TIP3    H147552   2.495   2.823   0.344 -1.7007 -0.3129 -0.1035
 8687TIP3    H247553   2.539   2.791   0.485 -0.5539  1.8246  0.0477
 8688TIP3   OH247554   2.270   3.259   2.363 -0.3384 -0.5330 -0.2400
 8688TIP3    H147555   2.191   3.295   2.324 -0.1016 -0.2476 -0.4537
 8688TIP3    H247556   2.238   3.199   2.431 -0.7260  0.0454  0.0904
 8689TIP3   OH247557   6.391   5.256   4.174 -0.1181  0.1090  0.4237
 8689TIP3    H147558   6.467   5.213   4.135  0.5253 -0.3380  2.1494
 8689TIP3    H247559   6.424   5.341   4.204 -1.1993  1.5295 -2.2511
 8690TIP3   OH247560   4.428   2.332   1.424 -0.2409 -0.2745  0.5991
 8690TIP3    H147561   4.432   2.370   1.337  1.4960  0.3117  0.9155
 8690TIP3    H247562   4.470   2.397   1.481 -0.0535 -1.2803  1.6333
 8691TIP3   OH247563   6.754   0.386  11.525 -0.4608 -0.0922  0.0127
 8691TIP3    H147564   6.818   0.446  11.565  2.1388 -2.0586 -1.0459
 8691TIP3    H247565   6.741   0.421  11.437 -2.3643  1.4136  0.8760
 8692TIP3   OH247566   4.936   1.425   4.615  0.4086  0.6466 -0.1864
 8692TIP3    H147567   5.028   1.412   4.593  0.7511  1.4089  0.7510
 8692TIP3    H247568   4.938   1.475   4.697 -0.8515  1.9699 -0.9480
 8693TIP3   OH247569   4.462   2.676   2.373  0.0621  0.2343 -0.2155
 8693TIP3    H147570   4.545   2.724   2.379  0.6476 -0.8959  0.9900
 8693TIP3    H247571   4.401   2.738   2.333  1.3893  1.2150 -0.7640
 8694TIP3   OH247572   6.604   6.223   1.608 -0.1771  0.1123  0.4365
 8694TIP3    H147573   6.519   6.191   1.639 -0.7099  1.1439  0.0766
 8694TIP3    H247574   6.588   6.248   1.517  0.6134 -0.0415  0.2497
 8695TIP3   OH247575   4.946   4.475  16.987 -0.4565 -0.1301 -0.0777
 8695TIP3    H147576   4.994   4.520  16.917 -1.2351  1.0582  0.1431
 8695TIP3    H247577   4.921   4.391  16.949 -1.5634  0.8356 -1.5013
 8696TIP3   OH247578   1.030   2.706   5.095 -0.6502  0.2343  0.4318
 8696TIP3    H147579   0.964   2.637   5.085 -0.4101 -0.3163  2.4330
 8696TIP3    H247580   1.038   2.718   5.189  0.5808  1.7966  0.1528
 8697TIP3   OH247581   1.855   3.658  10.845  0.8946 -0.6205 -0.2861
 8697TIP3    H147582   1.796   3.588  10.872  0.1921  0.6118  1.5270
 8697TIP3    H247583   1.935   3.614  10.817  0.9668 -2.1167  2.1227
 8698TIP3   OH247584   0.304   2.198  15.301 -0.4926 -0.4600 -0.1752
 8698TIP3    H147585   0.342   2.282  15.277 -1.5958  0.3916  0.9984
 8698TIP3    H247586   0.223   2.194  15.250  0.2780 -1.4978 -1.3617
 8699TIP3   OH247587   5.251   3.479  11.268  0.1382 -0.3361  0.1131
 8699TIP3    H147588   5.276   3.449  11.181 -2.5780 -0.8605 -0.5329
 8699TIP3    H247589   5.224   3.569  11.255  0.3754 -0.2038  0.5410
 8700TIP3   OH247590   3.029   2.870   2.362 -0.2001 -0.4552 -0.4861
 8700TIP3    H147591   2.934   2.857   2.368 -0.1786 -0.8046 -0.8669
 8700TIP3    H247592   3.064   2.831   2.442 -0.5247  1.2058  0.4912
 8701TIP3   OH247593   0.252   2.673  14.376 -0.3983 -0.6268  0.8648
 8701TIP3    H147594   0.330   2.624  14.401  0.6569  0.4315 -0.3184
 8701TIP3    H247595   0.235   2.731  14.450 -1.1770 -2.1652  1.9229
 8702TIP3   OH247596   5.038   6.717  12.474 -0.2565 -0.3230  1.1826
 8702TIP3    H147597   5.046   6.689  12.565 -2.8411 -1.5970  1.0636
 8702TIP3    H247598   5.014   6.810  12.480 -1.0921 -0.5762  1.8164
 8703TIP3   OH247599   6.081   6.810   0.997  0.4209  0.0786 -0.5317
 8703TIP3    H147600   6.057   6.764   1.078  2.5015 -0.0318  0.0422
 8703TIP3    H247601   6.028   6.890   0.999 -1.3214 -1.0418 -0.2695
 8704TIP3   OH247602   4.699   4.590   3.644 -0.5477 -0.1317  0.6142
 8704TIP3    H147603   4.766   4.629   3.588 -0.0368  0.0553  1.3393
 8704TIP3    H247604   4.616   4.620   3.608 -0.3140 -1.6755 -1.2782
 8705TIP3   OH247605   3.352   2.603   3.905  0.2991  0.3731 -0.3734
 8705TIP3    H147606   3.421   2.577   3.845 -0.9701 -1.2568 -1.1647
 8705TIP3    H247607   3.382   2.573   3.991  0.9442  0.4167 -0.5824
 8706TIP3   OH247608   4.468   1.084   5.571  0.5043  0.0015  0.2267
 8706TIP3    H147609   4.546   1.029   5.564 -0.7580 -1.8152  0.4431
 8706TIP3    H247610   4.490   1.148   5.639  2.3022  0.3465 -0.6508
 8707TIP3   OH247611   2.211   6.587   0.250  0.1112  0.2091  0.3524
 8707TIP3    H147612   2.136   6.531   0.272  0.8543 -2.2553 -2.8912
 8707TIP3    H247613   2.280   6.560   0.310 -0.3994 -0.4116  0.6659
 8708TIP3   OH247614   0.902   4.364  17.162 -0.5400  0.3141  0.1205
 8708TIP3    H147615   0.886   4.433  17.097 -1.0558  0.2123  0.1415
 8708TIP3    H247616   0.822   4.360  17.214 -1.0845 -1.2682 -0.7829
 8709TIP3   OH247617   1.763   3.656  14.076 -0.3275  0.2093 -0.0686
 8709TIP3    H147618   1.699   3.627  14.141 -1.6068  0.8821 -1.0068
 8709TIP3    H247619   1.728   3.625  13.993  1.3204 -0.6969 -0.4546
 8710TIP3   OH247620   3.493   4.937  14.493  0.4833  0.4271 -0.1269
 8710TIP3    H147621   3.463   4.846  14.493 -0.2091  0.6552  1.0009
 8710TIP3    H247622   3.562   4.939  14.426 -2.5059  0.0695 -3.3600
 8711TIP3   OH247623   3.897   3.715  14.376 -0.1923  0.3539 -0.5419
 8711TIP3    H147624   3.860   3.628  14.360 -0.9839  0.7506 -0.8609
 8711TIP3    H247625   3.905   3.754  14.289  3.9484 -0.9096 -0.8656
 8712TIP3   OH247626   0.300   3.506   0.478 -0.0560  0.0888 -0.4418
 8712TIP3    H147627   0.388   3.490   0.513 -0.6117  0.2585  1.1010
 8712TIP3    H247628   0.248   3.431   0.507 -0.2630 -0.3657 -1.9547
 8713TIP3   OH247629   2.856   5.720   1.177 -0.0024  0.1428  0.3796
 8713TIP3    H147630   2.853   5.647   1.240  0.0039  0.7030  1.0295
 8713TIP3    H247631   2.928   5.697   1.118  1.0842  0.4262  1.5719
 8714TIP3   OH247632   0.629   5.343   3.563 -0.0982 -0.4418  0.6002
 8714TIP3    H147633   0.542   5.317   3.592 -0.9824  2.3786  0.6295
 8714TIP3    H247634   0.614   5.420   3.509  2.3222 -0.4526 -0.1424
 8715TIP3   OH247635   5.421   2.913  12.354 -0.1651 -0.1220 -0.1927
 8715TIP3    H147636   5.336   2.924  12.312 -1.6111  2.4045  3.1399
 8715TIP3    H247637   5.413   2.833  12.406 -1.2458  1.1459  1.6485
 8716TIP3   OH247638   4.608   3.666   0.507  0.0083 -0.3602  0.6859
 8716TIP3    H147639   4.568   3.708   0.431 -0.4959 -1.0968  0.5327
 8716TIP3    H247640   4.556   3.694   0.582  0.2503  0.0344  0.7060
 8717TIP3   OH247641   1.518   3.936   5.380 -0.2864  0.0604 -0.6019
 8717TIP3    H147642   1.448   3.998   5.357  0.5162  1.7134  1.2423
 8717TIP3    H247643   1.486   3.891   5.458 -0.8350 -1.8678 -1.9002
 8718TIP3   OH247644   4.749   4.762   4.814 -0.5843 -0.6850 -0.0274
 8718TIP3    H147645   4.722   4.839   4.863 -0.6118 -1.2345  0.8392
 8718TIP3    H247646   4.840   4.780   4.789 -0.4487 -0.5531  0.5492
 8719TIP3   OH247647   3.625   1.817   2.308 -0.2718  0.5024  0.4619
 8719TIP3    H147648   3.569   1.828   2.384  0.2834 -0.9332  1.1014
 8719TIP3    H247649   3.619   1.900   2.261 -1.7954  0.8653  1.2747
 8720TIP3   OH247650   4.844   4.125  13.568 -0.6945  0.3595 -0.5784
 8720TIP3    H147651   4.837   4.218  13.547 -1.7421  0.4439  0.1062
 8720TIP3    H247652   4.753   4.095  13.573 -0.3575 -0.9499 -1.8581
 8721TIP3   OH247653   6.340   1.027   4.135 -0.2442 -0.0095 -0.0496
 8721TIP3    H147654   6.416   0.974   4.160 -0.2299 -0.0442 -0.1632
 8721TIP3    H247655   6.264   0.976   4.164 -0.1938  0.8900  1.7509
 8722TIP3   OH247656   0.159   6.025  13.977  0.4836  0.3174 -0.0694
 8722TIP3    H147657   0.232   6.000  13.920 -0.1441  1.6678 -1.5027
 8722TIP3    H247658   0.157   6.121  13.972 -0.1687  0.3969  1.5113
 8723TIP3   OH247659   4.395   2.699  15.300 -0.7656  0.1614  0.5769
 8723TIP3    H147660   4.323   2.704  15.237  0.4949 -1.5597 -1.0809
 8723TIP3    H247661   4.354   2.668  15.381 -1.8723 -0.9490 -0.3784
 8724TIP3   OH247662   5.209   1.490  16.833 -0.4524  0.2931  0.3025
 8724TIP3    H147663   5.183   1.415  16.887  0.1110 -0.6683 -0.7330
 8724TIP3    H247664   5.131   1.509  16.780  0.2306 -1.2385 -1.2922
 8725TIP3   OH247665   4.534   2.546   6.647  0.4741 -0.6674 -0.4317
 8725TIP3    H147666   4.531   2.613   6.716  2.0474  0.1611 -1.1393
 8725TIP3    H247667   4.606   2.489   6.673  0.4983 -0.8689 -0.9377
 8726TIP3   OH247668   4.291   1.037   0.350 -0.6822  0.3158 -0.1198
 8726TIP3    H147669   4.215   1.015   0.296  0.6718 -0.7689 -1.6211
 8726TIP3    H247670   4.302   0.961   0.407  0.0447 -0.0910 -0.7946
 8727TIP3   OH247671   2.910   1.733  11.419 -0.1822  0.0059  0.0069
 8727TIP3    H147672   2.907   1.722  11.324 -0.0453 -0.5931  0.0691
 8727TIP3    H247673   2.981   1.796  11.434 -0.0051 -0.1294 -0.2660
 8728TIP3   OH247674   6.552   4.785  16.107  0.3643 -0.5215  0.2095
 8728TIP3    H147675   6.504   4.861  16.073  1.5779  0.0220 -0.3340
 8728TIP3    H247676   6.505   4.759  16.186 -1.2092 -0.4145 -0.6871
 8729TIP3   OH247677   5.760   6.450  12.380  0.0396  0.1723  0.0205
 8729TIP3    H147678   5.700   6.384  12.347  0.3648 -0.6391  1.0177
 8729TIP3    H247679   5.716   6.485  12.458 -0.7177  2.0482 -1.2118
 8730TIP3   OH247680   5.029   4.063  12.500  0.4860  0.1830  0.3665
 8730TIP3    H147681   5.049   4.116  12.423  0.4185 -2.0859 -1.2636
 8730TIP3    H247682   4.939   4.086  12.522  0.7493  1.3744  0.2074
 8731TIP3   OH247683   6.810   2.462  12.533  0.1886 -0.2959  0.2842
 8731TIP3    H147684   6.815   2.550  12.496  0.7651  0.2552  1.6084
 8731TIP3    H247685   6.901   2.437  12.548 -0.0305 -0.2502  1.8466
 8732TIP3   OH247686   0.406   5.901   4.362  0.4443 -0.0041 -0.3839
 8732TIP3    H147687   0.432   5.899   4.454 -0.2368  2.0194 -0.1241
 8732TIP3    H247688   0.369   5.814   4.345  0.0063 -0.1785  1.4147
 8733TIP3   OH247689   0.894   2.523   2.356 -0.1026 -0.5773 -0.2538
 8733TIP3    H147690   0.863   2.439   2.322  1.4767 -0.8945 -0.9036
 8733TIP3    H247691   0.896   2.511   2.451 -0.0169 -1.2151 -0.3385
 8734TIP3   OH247692   6.566   6.372  12.223  0.2005 -0.1808 -0.1235
 8734TIP3    H147693   6.551   6.278  12.211  1.3934 -0.2844 -0.8858
 8734TIP3    H247694   6.600   6.402  12.139 -1.4994  1.2372 -0.3429
 8735TIP3   OH247695   3.559   6.355   3.054 -0.7699 -0.0350 -0.5148
 8735TIP3    H147696   3.572   6.309   3.136 -2.0321  2.3854  1.1161
 8735TIP3    H247697   3.628   6.323   2.996  0.5999 -1.2107  1.7264
 8736TIP3   OH247698   1.609   4.570   5.872  0.3849 -0.2080  0.4326
 8736TIP3    H147699   1.696   4.579   5.833  0.6229 -0.4976  0.8905
 8736TIP3    H247700   1.563   4.650   5.847  0.9123  0.1234  0.5127
 8737TIP3   OH247701   6.731   4.435   1.509 -0.2050  0.4846 -0.2035
 8737TIP3    H147702   6.739   4.464   1.418 -0.9040 -0.2300 -0.4932
 8737TIP3    H247703   6.775   4.504   1.560  0.8469  0.5188 -1.1370
 8738TIP3   OH247704   1.795   6.372  16.740 -0.4892 -0.2037 -0.1027
 8738TIP3    H147705   1.884   6.403  16.722 -1.2908  1.9652 -0.5134
 8738TIP3    H247706   1.798   6.279  16.720  1.2934  0.1395 -1.5995
 8739TIP3   OH247707   5.457   5.669   2.937  0.6300  0.2771  0.4659
 8739TIP3    H147708   5.443   5.732   3.007  0.9639  1.4816 -0.5401
 8739TIP3    H247709   5.537   5.700   2.892 -0.7202  0.7117 -1.7174
 8740TIP3   OH247710   0.612   2.495  16.137  0.3277 -0.0729  0.1279
 8740TIP3    H147711   0.642   2.583  16.113  1.1330 -0.6942 -1.2539
 8740TIP3    H247712   0.634   2.442  16.061 -0.0074 -1.5043  1.0209
 8741TIP3   OH247713   0.087   5.630   5.087 -0.4019 -0.1677 -0.4984
 8741TIP3    H147714   0.065   5.565   5.020 -2.7370  0.9342 -0.8618
 8741TIP3    H247715   0.022   5.615   5.156 -0.1083  0.8806  0.0047
 8742TIP3   OH247716   6.152   3.622  14.635 -0.0779 -0.3092 -0.5108
 8742TIP3    H147717   6.119   3.534  14.617 -0.0702 -0.2236 -0.9414
 8742TIP3    H247718   6.241   3.622  14.598 -0.9697  0.6662 -2.7106
 8743TIP3   OH247719   1.144   5.374   2.773  0.6243  0.2186  0.3968
 8743TIP3    H147720   1.121   5.282   2.772 -2.2929  0.8862 -2.3194
 8743TIP3    H247721   1.240   5.375   2.777  0.8290 -2.9557 -1.8712
 8744TIP3   OH247722   3.854   0.918   0.441 -0.4369 -0.3410 -0.1208
 8744TIP3    H147723   3.889   0.873   0.518  0.5082 -1.5158 -1.2119
 8744TIP3    H247724   3.762   0.891   0.438 -0.3723 -0.6253  0.3560
 8745TIP3   OH247725   3.724   5.135  12.046 -0.0999 -0.2376 -0.2495
 8745TIP3    H147726   3.789   5.195  12.010 -0.7185  0.3798 -0.3339
 8745TIP3    H247727   3.765   5.049  12.039  0.1184 -0.0243 -1.6560
 8746TIP3   OH247728   4.783   0.485   0.334  0.4492 -0.5310 -0.0421
 8746TIP3    H147729   4.805   0.565   0.382  3.1649 -0.2569 -1.6336
 8746TIP3    H247730   4.829   0.415   0.381  0.5553 -0.7205 -0.4258
 8747TIP3   OH247731   0.917   5.238  13.759  0.5424 -0.2877 -0.2454
 8747TIP3    H147732   0.900   5.144  13.751  1.7430 -0.3957 -1.7910
 8747TIP3    H247733   1.007   5.243  13.792  0.4483  0.3279 -0.0775
 8748TIP3   OH247734   0.542   0.678   3.436 -0.0922  0.3709 -0.5138
 8748TIP3    H147735   0.573   0.767   3.421 -0.3589  0.4490 -0.5971
 8748TIP3    H247736   0.613   0.622   3.405  0.9871  0.5720  1.4784
 8749TIP3   OH247737   4.619   0.316   4.724 -0.3685 -0.2342 -0.1498
 8749TIP3    H147738   4.609   0.329   4.818 -0.7290  2.3405 -0.4910
 8749TIP3    H247739   4.689   0.377   4.700 -1.8619  0.8276 -1.8926
 8750TIP3   OH247740   4.568   4.460   3.860  0.5168 -0.5221 -0.0302
 8750TIP3    H147741   4.604   4.512   3.789 -0.6032 -0.9334 -0.9053
 8750TIP3    H247742   4.531   4.524   3.921  0.6044 -0.2308 -0.2850
 8751TIP3   OH247743   5.738   1.106   2.651 -0.2631 -0.7692 -0.1357
 8751TIP3    H147744   5.688   1.173   2.605 -2.5564 -2.2550  0.0908
 8751TIP3    H247745   5.783   1.058   2.581 -0.5563 -0.4998 -0.5138
 8752TIP3   OH247746   1.158   0.858   4.601  0.7764  0.5171  0.5268
 8752TIP3    H147747   1.106   0.867   4.521  2.2359  1.7116 -0.3123
 8752TIP3    H247748   1.103   0.893   4.670 -0.5737 -0.6979  0.0979
 8753TIP3   OH247749   3.596   4.919  16.659  0.0735 -0.5134  0.2006
 8753TIP3    H147750   3.631   4.837  16.695  1.8349 -0.2951 -0.9878
 8753TIP3    H247751   3.668   4.956  16.608 -1.2969  0.8768 -0.7678
 8754TIP3   OH247752   4.231   0.546   0.033  0.2521 -0.5580  0.7129
 8754TIP3    H147753   4.293   0.603   0.079 -0.8069  1.1749  0.0573
 8754TIP3    H247754   4.267   0.539  -0.056 -1.3343  1.9054 -0.1905
 8755TIP3   OH247755   1.870   0.176   4.525 -0.2627  0.5589  0.3414
 8755TIP3    H147756   1.873   0.214   4.437  1.3041  2.1409  1.0588
 8755TIP3    H247757   1.929   0.100   4.520  1.8380  2.1261  0.6810
 8756TIP3   OH247758   4.151   1.594  14.549 -0.0878 -0.7012  0.3092
 8756TIP3    H147759   4.194   1.670  14.510  0.0539 -1.7521 -1.6349
 8756TIP3    H247760   4.060   1.622  14.562 -0.2063 -0.4045 -1.0553
 8757TIP3   OH247761   3.166   1.439  14.954  0.0578  0.0805 -0.2316
 8757TIP3    H147762   3.076   1.413  14.934  0.2977 -0.9682 -0.0025
 8757TIP3    H247763   3.220   1.370  14.916  0.7293  0.3108  0.2798
 8758TIP3   OH247764   4.372   2.065   4.875  0.4354  0.3204 -0.2317
 8758TIP3    H147765   4.304   2.024   4.929 -0.9984  1.7338 -0.9522
 8758TIP3    H247766   4.446   2.003   4.879 -1.2741 -1.7862 -0.3722
 8759TIP3   OH247767   0.433   6.252  11.366  0.7163  0.3216 -0.2100
 8759TIP3    H147768   0.341   6.230  11.349  0.3704 -0.0200  1.9981
 8759TIP3    H247769   0.482   6.174  11.340  0.3336  0.2421 -0.7151
 8760TIP3   OH247770   1.196   1.160  16.933 -0.4933 -0.1609 -0.3568
 8760TIP3    H147771   1.105   1.131  16.940 -0.1514 -0.8404  1.7253
 8760TIP3    H247772   1.223   1.174  17.024  2.2806 -2.4694 -0.7671
 8761TIP3   OH247773   5.801   5.540   6.165 -0.6217 -0.2178  0.0975
 8761TIP3    H147774   5.748   5.461   6.176 -0.9086  0.4469  4.3670
 8761TIP3    H247775   5.889   5.514   6.192  0.0701  0.0276 -1.9015
 8762TIP3   OH247776   2.691   1.655   4.749 -0.1551  0.1765 -0.4349
 8762TIP3    H147777   2.640   1.691   4.821 -0.9844 -0.8640 -0.4924
 8762TIP3    H247778   2.640   1.675   4.671  0.1167  0.1838 -0.6106
 8763TIP3   OH247779   2.525   6.296  13.424  0.1234 -0.2621 -1.5097
 8763TIP3    H147780   2.597   6.275  13.364 -1.1048  1.4206 -3.6391
 8763TIP3    H247781   2.446   6.280  13.373 -0.9873 -0.2040  0.1658
 8764TIP3   OH247782   6.373   2.842  16.616  0.0993  0.2437  0.0957
 8764TIP3    H147783   6.443   2.781  16.642 -0.2768  0.7690  2.4572
 8764TIP3    H247784   6.324   2.794  16.549 -0.2739 -2.1527  1.9844
 8765TIP3   OH247785   4.283   1.094   3.116 -0.5950 -0.2392  0.2936
 8765TIP3    H147786   4.306   1.096   3.023 -0.6981  0.5639  0.2879
 8765TIP3    H247787   4.274   1.186   3.141  1.4206 -0.3859  1.6043
 8766TIP3   OH247788   5.673   3.908   1.326 -0.1359  0.1442 -0.7842
 8766TIP3    H147789   5.581   3.909   1.300 -0.8412  0.1451  1.5178
 8766TIP3    H247790   5.702   3.999   1.318 -0.3912  0.1685 -1.3905
 8767TIP3   OH247791   3.627   5.112  11.346  0.2883  0.1939 -0.8612
 8767TIP3    H147792   3.583   5.109  11.430 -0.4818 -0.2257 -1.2726
 8767TIP3    H247793   3.598   5.033  11.300 -1.8270  1.9660 -2.7320
 8768TIP3   OH247794   0.857   3.119  12.535 -0.3935 -0.0028  0.6573
 8768TIP3    H147795   0.768   3.096  12.512 -0.0321 -1.8834  1.0423
 8768TIP3    H247796   0.911   3.050  12.497  0.8682  0.8713  0.8009
 8769TIP3   OH247797   4.878   4.173  10.737 -0.2667 -0.3741  0.1225
 8769TIP3    H147798   4.963   4.168  10.694  1.0461  1.3411  2.4133
 8769TIP3    H247799   4.881   4.254  10.788 -3.1704 -0.4266  0.4950
 8770TIP3   OH247800   4.189   6.812  13.784  0.4044  0.2267 -0.4374
 8770TIP3    H147801   4.284   6.804  13.779  0.2419 -1.9672 -0.7922
 8770TIP3    H247802   4.164   6.751  13.854 -0.8984 -0.9351 -1.8687
 8771TIP3   OH247803   3.279   0.218   3.504  0.0645  0.1174  0.2351
 8771TIP3    H147804   3.331   0.137   3.501 -1.5089 -0.8758 -1.1767
 8771TIP3    H247805   3.208   0.198   3.565 -0.4860  0.3230 -0.3351
 8772TIP3   OH247806   6.275   5.604   5.081  0.4379 -0.3189  0.2357
 8772TIP3    H147807   6.196   5.596   5.028  0.7872  1.6527 -0.6357
 8772TIP3    H247808   6.321   5.521   5.069 -0.2172 -0.4604 -1.3922
 8773TIP3   OH247809   0.670   5.442   0.240  0.1024  0.5487 -0.1345
 8773TIP3    H147810   0.629   5.359   0.266  1.5034  0.1370  0.7599
 8773TIP3    H247811   0.624   5.466   0.159 -0.6195 -0.8696 -0.1636
 8774TIP3   OH247812   5.550   0.163   2.962 -0.3231  0.4054 -0.2531
 8774TIP3    H147813   5.615   0.100   2.995 -0.0030 -0.4854 -2.5193
 8774TIP3    H247814   5.582   0.188   2.876 -0.7175  3.3456  0.4023
 8775TIP3   OH247815   0.460   4.205   4.402 -0.9241 -0.7088  0.5690
 8775TIP3    H147816   0.400   4.131   4.412 -1.7264  0.0339  1.4159
 8775TIP3    H247817   0.474   4.236   4.492 -0.2517 -0.1070  0.2602
 8776TIP3   OH247818   3.287   3.766   0.723 -0.2861  0.3606 -0.2375
 8776TIP3    H147819   3.283   3.729   0.811  0.4484  0.1122 -0.3061
 8776TIP3    H247820   3.320   3.855   0.736 -1.3412  0.7483 -0.1470
 8777TIP3   OH247821   0.338   2.019   2.917  0.2834  0.3089 -0.7426
 8777TIP3    H147822   0.250   1.986   2.933  0.8134  0.1411  2.1335
 8777TIP3    H247823   0.325   2.108   2.885 -0.9434  0.7891  1.0091
 8778TIP3   OH247824   2.066   4.445  11.917 -0.6042 -0.0455 -0.5018
 8778TIP3    H147825   2.070   4.394  11.836 -1.5234 -0.7494 -0.1121
 8778TIP3    H247826   1.981   4.489  11.913 -0.9481 -0.6075  0.3794
 8779TIP3   OH247827   5.407   1.167   4.101  0.1715 -0.1293  0.0027
 8779TIP3    H147828   5.429   1.214   4.182 -2.4704  0.6914  0.3001
 8779TIP3    H247829   5.411   1.075   4.126  0.8655  0.0663  0.6602
 8780TIP3   OH247830   2.022   0.723   5.415 -0.1966  0.2498 -0.6170
 8780TIP3    H147831   2.072   0.796   5.450 -0.5370 -0.3549  1.1635
 8780TIP3    H247832   1.931   0.754   5.416 -0.3756 -0.2837  0.4139
 8781TIP3   OH247833   6.266   6.366   6.574 -0.1622 -0.2513  0.1723
 8781TIP3    H147834   6.288   6.273   6.567  0.9870  0.0569 -0.6114
 8781TIP3    H247835   6.310   6.406   6.499 -1.2622  0.8163  0.0779
 8782TIP3   OH247836   3.604   2.850  13.891 -0.0144 -0.0916 -0.0862
 8782TIP3    H147837   3.543   2.863  13.818  0.9967  0.2980 -0.8797
 8782TIP3    H247838   3.678   2.909  13.871  0.3860 -0.1675  1.1220
 8783TIP3   OH247839   0.149   3.858   6.885 -0.0924  0.4645 -0.0690
 8783TIP3    H147840   0.127   3.923   6.951 -0.3441  0.1486  0.1641
 8783TIP3    H247841   0.107   3.778   6.917  0.3817  0.1443 -0.2475
 8784TIP3   OH247842   0.108   1.277   0.604 -0.2284 -0.8537  0.0448
 8784TIP3    H147843   0.134   1.368   0.590  0.5481 -0.5650  2.9896
 8784TIP3    H247844   0.180   1.226   0.568 -0.0224 -0.2832 -0.3631
 8785TIP3   OH247845   6.686   0.779  13.187 -0.1273  0.1114  0.5810
 8785TIP3    H147846   6.695   0.857  13.241 -2.3329 -0.3591  1.6974
 8785TIP3    H247847   6.598   0.784  13.151 -0.5070 -2.1352  1.1281
 8786TIP3   OH247848   5.874   3.938   5.797 -0.2150 -0.0727 -0.5914
 8786TIP3    H147849   5.871   3.870   5.730  2.0432 -0.4479 -0.3487
 8786TIP3    H247850   5.951   3.917   5.850 -0.8204  1.3507  0.9119
 8787TIP3   OH247851   4.720   4.332   0.162 -0.0374 -0.0622 -0.2367
 8787TIP3    H147852   4.644   4.298   0.115 -0.6091  1.7483 -0.6954
 8787TIP3    H247853   4.717   4.290   0.247  0.6162 -2.8690 -1.5591
 8788TIP3   OH247854   3.545   4.901  16.951 -0.5977  0.6118 -0.9941
 8788TIP3    H147855   3.593   4.847  17.014 -0.2291  1.2641 -0.6995
 8788TIP3    H247856   3.607   4.970  16.926 -1.4962  1.7002 -0.3047
 8789TIP3   OH247857   3.622   1.373   6.149  0.5686  0.0625 -0.1491
 8789TIP3    H147858   3.656   1.462   6.142  1.0900 -0.2271 -1.6384
 8789TIP3    H247859   3.549   1.379   6.211  0.0314  1.6945 -0.9103
 8790TIP3   OH247860   4.698   5.618   5.168 -0.7765 -0.2148  0.1135
 8790TIP3    H147861   4.761   5.629   5.239  1.6238 -0.3219 -1.9181
 8790TIP3    H247862   4.702   5.700   5.119 -2.5488 -0.0636  0.1988
 8791TIP3   OH247863   4.617   6.209   0.753 -0.5906  0.0690  0.0874
 8791TIP3    H147864   4.681   6.157   0.703 -0.3069  0.4033  0.0998
 8791TIP3    H247865   4.534   6.164   0.740 -0.0415 -1.4132  1.5483
 8792TIP3   OH247866   5.856   0.047  14.725  0.1613 -0.3045 -0.4922
 8792TIP3    H147867   5.816  -0.036  14.699 -0.2126  0.0381 -1.0334
 8792TIP3    H247868   5.915   0.024  14.796 -1.4176 -0.7394  0.7083
 8793TIP3   OH247869   0.685   5.181   4.289  0.0231  0.1621  0.2160
 8793TIP3    H147870   0.659   5.209   4.201  1.3338  2.9937  0.6708
 8793TIP3    H247871   0.778   5.202   4.294  0.4601 -1.9129  1.5957
 8794TIP3   OH247872   5.777   1.768  13.639 -0.5830  0.0231 -1.2085
 8794TIP3    H147873   5.793   1.852  13.596  1.4101 -0.1672 -0.9029
 8794TIP3    H247874   5.863   1.726  13.642 -0.7113 -0.1938  2.4402
 8795TIP3   OH247875   4.007   0.241   0.722  0.1793  0.2771 -0.0576
 8795TIP3    H147876   3.985   0.255   0.814 -1.2572 -0.0284 -0.3415
 8795TIP3    H247877   4.009   0.329   0.684 -0.3759  0.3157  0.0081
 8796TIP3   OH247878   4.772   1.282  13.853 -0.0076  0.3469 -0.6229
 8796TIP3    H147879   4.719   1.250  13.780  1.7779  0.4244 -1.9831
 8796TIP3    H247880   4.807   1.204  13.894 -1.5863  0.2697  0.6223
 8797TIP3   OH247881   2.499   2.152   3.441  0.1443 -0.3043  0.0548
 8797TIP3    H147882   2.424   2.208   3.419  0.9326  0.1951 -1.4265
 8797TIP3    H247883   2.547   2.202   3.507  0.5689  0.5626 -0.8956
 8798TIP3   OH247884   4.295   0.208   4.000  0.5621 -0.6153  0.5317
 8798TIP3    H147885   4.224   0.254   3.956  0.7043 -1.8813 -1.0567
 8798TIP3    H247886   4.253   0.137   4.047  0.2505  1.5386  3.6449
 8799TIP3   OH247887   6.421   0.387  12.754  0.7903 -0.3735  0.9049
 8799TIP3    H147888   6.477   0.463  12.745 -0.4609  0.5550  0.7822
 8799TIP3    H247889   6.458   0.321  12.696 -0.6499  1.6555 -2.4193
 8800TIP3   OH247890   3.786   3.484   3.748 -0.5332 -0.1502 -0.1638
 8800TIP3    H147891   3.703   3.452   3.714  1.0006 -2.8422 -1.5340
 8800TIP3    H247892   3.798   3.436   3.830 -1.2848  1.7693  1.0955
 8801TIP3   OH247893   4.977   2.612   3.186  0.0949  0.2747  0.9050
 8801TIP3    H147894   4.976   2.669   3.109 -1.2915 -1.3866 -0.3455
 8801TIP3    H247895   5.070   2.592   3.199  0.6063  2.7516  1.3577
 8802TIP3   OH247896   1.060   4.780   4.545 -0.7652  0.7933 -0.0282
 8802TIP3    H147897   1.015   4.864   4.542 -1.3912  0.5023  1.1276
 8802TIP3    H247898   1.063   4.757   4.637  1.7821  0.8139 -0.0565
 8803TIP3   OH247899   5.915   5.784  14.156  0.1884 -0.0137  0.2148
 8803TIP3    H147900   5.969   5.781  14.235  1.4507 -2.4008 -0.6913
 8803TIP3    H247901   5.877   5.696  14.149 -0.0389  0.2217 -1.7383
 8804TIP3   OH247902   2.683   5.588   2.086  0.0061  0.0988  0.2919
 8804TIP3    H147903   2.664   5.549   2.171 -0.5831 -0.2894 -0.0121
 8804TIP3    H247904   2.681   5.683   2.101 -0.6248  0.0364  0.6005
 8805TIP3   OH247905   0.332   4.418  11.501  0.5695  0.1864  1.0928
 8805TIP3    H147906   0.389   4.487  11.536  0.8274  0.1103  0.8214
 8805TIP3    H247907   0.389   4.365  11.445 -0.0277  0.8086 -0.1268
 8806TIP3   OH247908   1.050   3.638   2.811 -0.0907 -0.0519  0.3201
 8806TIP3    H147909   1.034   3.566   2.750  2.1940 -1.3481  1.1573
 8806TIP3    H247910   1.089   3.707   2.758  0.8591 -0.7587  0.0718
 8807TIP3   OH247911   4.145   2.397   6.023 -0.3425  0.4392  0.2040
 8807TIP3    H147912   4.227   2.348   6.025  1.6608  3.5735 -0.7218
 8807TIP3    H247913   4.098   2.364   5.946  0.2543 -1.0247  0.4491
 8808TIP3   OH247914   5.219   5.689  13.113 -0.0817 -0.1951 -0.2403
 8808TIP3    H147915   5.310   5.711  13.134 -0.2249 -0.0685  0.2545
 8808TIP3    H247916   5.205   5.604  13.153  0.2096 -0.8109 -1.4274
 8809TIP3   OH247917   4.458   3.085  13.126 -0.2959  0.8798 -0.6074
 8809TIP3    H147918   4.462   3.052  13.216  0.5110  0.9656 -0.6159
 8809TIP3    H247919   4.401   3.023  13.080 -0.2500  0.5250 -0.1804
 8810TIP3   OH247920   2.030   3.286   4.193 -0.1681 -0.4187 -0.8465
 8810TIP3    H147921   2.044   3.250   4.105  0.1237 -1.0143 -0.5565
 8810TIP3    H247922   2.062   3.376   4.187 -0.5457 -0.3152 -1.4667
 8811TIP3   OH247923   5.870   5.724   1.232 -0.3411  0.1829 -0.3850
 8811TIP3    H147924   5.854   5.684   1.146 -0.0475 -0.5792 -0.0931
 8811TIP3    H247925   5.962   5.748   1.230 -0.6936  1.5452 -0.8344
 8812TIP3   OH247926   4.299   1.087   2.134 -0.6838 -0.2062  0.0988
 8812TIP3    H147927   4.374   1.101   2.076 -0.7566  0.1333  0.0906
 8812TIP3    H247928   4.317   1.143   2.210 -0.0961 -1.3878  0.8551
 8813TIP3   OH247929   0.410   6.234  14.517  0.7429  0.4449  0.8358
 8813TIP3    H147930   0.320   6.213  14.492  1.4989 -3.0265  0.8353
 8813TIP3    H247931   0.403   6.262  14.608 -0.3441  0.3756  0.7902
 8814TIP3   OH247932   2.540   2.353   1.167 -0.4731  0.0152  0.1193
 8814TIP3    H147933   2.620   2.306   1.143 -0.5859  0.5313 -1.3506
 8814TIP3    H247934   2.559   2.391   1.252  0.7729 -0.0592 -0.1134
 8815TIP3   OH247935   4.514   4.006   4.643  0.4005 -0.1910  0.3637
 8815TIP3    H147936   4.489   3.935   4.702 -1.3217  0.3842  0.3548
 8815TIP3    H247937   4.521   3.965   4.557 -1.6863 -0.1681  0.1613
 8816TIP3   OH247938   4.366   1.206   1.242  0.8149  0.2126  0.0095
 8816TIP3    H147939   4.304   1.198   1.314  0.6804 -0.4066 -0.1747
 8816TIP3    H247940   4.346   1.132   1.185 -0.6562  2.0147 -1.8769
 8817TIP3   OH247941   6.623   1.300   0.367  0.3945  0.6084 -0.1289
 8817TIP3    H147942   6.545   1.355   0.358  0.2949  0.4862 -0.0009
 8817TIP3    H247943   6.622   1.271   0.458  0.1257 -0.0939 -0.3538
 8818TIP3   OH247944   5.500   3.916   5.665  0.0183 -0.2485  0.1535
 8818TIP3    H147945   5.546   3.988   5.710  1.5009 -1.0525 -0.0355
 8818TIP3    H247946   5.496   3.846   5.730  0.1744 -0.6291 -0.2461
 8819TIP3   OH247947   0.832   6.678   1.587 -0.2436  0.4418  0.4134
 8819TIP3    H147948   0.819   6.586   1.612  1.2437  0.2294  0.4560
 8819TIP3    H247949   0.833   6.726   1.669 -2.4382  0.6977  0.3092
 8820TIP3   OH247950   3.446   0.827   0.035 -0.3107  0.5848 -0.2726
 8820TIP3    H147951   3.389   0.799   0.106 -0.0535 -2.1859 -1.0953
 8820TIP3    H247952   3.387   0.869  -0.028 -0.7364  1.7742  0.8915
 8821TIP3   OH247953   6.076   5.737  14.922 -0.6287 -0.0520  0.4555
 8821TIP3    H147954   6.170   5.751  14.928 -0.8020  2.4482 -1.7395
 8821TIP3    H247955   6.061   5.707  14.832 -2.0164  0.4023  0.5118
 8822TIP3   OH247956   0.599   6.475  16.909 -0.6872  0.5732  0.3615
 8822TIP3    H147957   0.599   6.400  16.850 -0.7645  0.2626  0.7614
 8822TIP3    H247958   0.534   6.534  16.872 -1.6674 -0.1853  0.8511
 8823TIP3   OH247959   3.604   4.526  11.594 -0.7117 -0.4625  1.1047
 8823TIP3    H147960   3.695   4.542  11.567 -0.6990  0.3392  1.6306
 8823TIP3    H247961   3.563   4.613  11.593 -1.6719 -0.9073  0.1615
 8824TIP3   OH247962   5.643   6.524   0.401 -0.4818  0.7480  0.2003
 8824TIP3    H147963   5.665   6.565   0.318  1.5802 -0.6152  0.0208
 8824TIP3    H247964   5.681   6.582   0.467 -0.3709  0.7908  0.0982
 8825TIP3   OH247965   1.490   5.033  13.056  0.4372 -0.2285 -0.5329
 8825TIP3    H147966   1.474   5.125  13.035 -2.1837 -0.7687 -1.0580
 8825TIP3    H247967   1.437   5.017  13.134  0.8033 -1.3309 -0.5006
 8826TIP3   OH247968   0.686   0.253  13.958 -0.1858 -0.0308 -0.3384
 8826TIP3    H147969   0.615   0.317  13.957  0.1573  0.5169  2.7134
 8826TIP3    H247970   0.680   0.208  13.874 -2.8288  1.4144 -0.9775
 8827TIP3   OH247971   2.080   4.609  11.247 -0.4828  0.6947  0.2085
 8827TIP3    H147972   2.093   4.589  11.154  0.6025  1.4173  0.1897
 8827TIP3    H247973   2.047   4.527  11.285 -0.1896  0.1635 -0.6719
 8828TIP3   OH247974   3.155   1.154  13.227  0.6001 -0.1962  0.0199
 8828TIP3    H147975   3.130   1.061  13.223  2.5352 -0.7120 -0.7002
 8828TIP3    H247976   3.211   1.160  13.304  3.6390 -0.4701 -2.0763
 8829TIP3   OH247977   2.171   6.518   6.004  0.1222  0.6631 -0.4582
 8829TIP3    H147978   2.226   6.487   6.076  0.0786  0.2469 -0.6023
 8829TIP3    H247979   2.142   6.438   5.960 -2.1495  0.7706  0.7791
 8830TIP3   OH247980   1.164   0.422   3.901 -0.0098 -0.1412 -0.4906
 8830TIP3    H147981   1.255   0.399   3.881 -0.5580 -2.3935 -0.4368
 8830TIP3    H247982   1.147   0.380   3.985 -0.6585  1.5349  0.2413
 8831TIP3   OH247983   5.085   5.541  12.526 -0.6887  0.4389 -0.4030
 8831TIP3    H147984   5.167   5.559  12.479 -0.1138 -0.2060  0.3273
 8831TIP3    H247985   5.077   5.446  12.525 -0.2096  0.3494  1.5344
 8832TIP3   OH247986   1.912   1.307   5.223  0.0133  0.4540  0.0482
 8832TIP3    H147987   1.889   1.227   5.176 -2.8060  1.2517 -0.0463
 8832TIP3    H247988   1.960   1.360   5.159  1.1071 -0.7623 -0.1552
 8833TIP3   OH247989   3.239   1.357  12.444 -0.1728  1.1872  0.1794
 8833TIP3    H147990   3.249   1.444  12.482 -0.1562  1.3365 -0.1685
 8833TIP3    H247991   3.274   1.365  12.355 -0.1721  0.8280  0.1466
 8834TIP3   OH247992   3.257   6.516  14.591 -0.2515 -0.2984 -0.3941
 8834TIP3    H147993   3.184   6.578  14.585 -0.5795 -0.7742 -1.4196
 8834TIP3    H247994   3.255   6.468  14.508  2.2213  0.7625 -1.1106
 8835TIP3   OH247995   2.001   3.143   6.436  0.7229  0.4441 -0.2446
 8835TIP3    H147996   1.947   3.189   6.371  2.4664 -0.4872 -2.4272
 8835TIP3    H247997   2.071   3.204   6.457  0.4616  0.5354  0.3857
 8836TIP3   OH247998   1.355   3.691   3.926 -0.6831  0.2536  0.2226
 8836TIP3    H147999   1.358   3.602   3.890 -0.4901  0.6755 -0.8059
 8836TIP3    H248000   1.366   3.748   3.851  1.6718  1.1201  1.1969
 8837TIP3   OH248001   1.256   5.260   4.374 -0.0839  0.1783  0.4756
 8837TIP3    H148002   1.291   5.348   4.387  0.1892  0.4400 -1.8900
 8837TIP3    H248003   1.330   5.202   4.387 -0.1438  0.3219  1.5003
 8838TIP3   OH248004   4.043   0.093   4.788  0.5526 -0.7566 -0.5559
 8838TIP3    H148005   4.133   0.102   4.817  0.4857  1.6487 -0.9412
 8838TIP3    H248006   4.026   0.173   4.738 -2.6156  0.1488  1.7737
 8839TIP3   OH248007   5.408   0.321  13.319 -0.4892 -0.6430 -0.3223
 8839TIP3    H148008   5.444   0.398  13.274 -0.6309 -0.8589 -0.8056
 8839TIP3    H248009   5.437   0.247  13.267  0.2850 -0.9806  0.5669
 8840TIP3   OH248010   3.441   0.816  13.580  0.1519 -0.3803 -0.0172
 8840TIP3    H148011   3.371   0.839  13.520 -0.4257  0.1086  0.8434
 8840TIP3    H248012   3.413   0.733  13.620 -0.1860  0.0797  0.7103
 8841TIP3   OH248013   4.886   2.879   3.266  0.2423  0.2684  0.2043
 8841TIP3    H148014   4.872   2.894   3.360  0.1559  1.7853 -0.0327
 8841TIP3    H248015   4.887   2.784   3.257 -1.2476  0.0939  1.5278
 8842TIP3   OH248016   2.654   5.992  13.043 -0.4708 -0.2162  0.2567
 8842TIP3    H148017   2.747   5.991  13.066 -0.1663  1.0686 -0.8549
 8842TIP3    H248018   2.629   5.900  13.044  1.1453 -0.6976 -0.7027
 8843TIP3   OH248019   5.136   5.596   0.669 -0.3610 -0.3092  0.6240
 8843TIP3    H148020   5.054   5.549   0.655 -1.1290  0.9315  0.8346
 8843TIP3    H248021   5.109   5.682   0.700  1.0056  0.3267  0.1026
 8844TIP3   OH248022   3.845   6.495  15.367 -0.7320  0.0246 -0.1287
 8844TIP3    H148023   3.854   6.427  15.434  1.4970 -0.6688 -1.1009
 8844TIP3    H248024   3.861   6.577  15.415  0.3790 -0.4249  0.2729
 8845TIP3   OH248025   4.528   6.672   1.538 -0.5648  0.1643  0.1133
 8845TIP3    H148026   4.573   6.689   1.621 -0.3428 -1.5444  0.3590
 8845TIP3    H248027   4.445   6.633   1.563 -0.7543  0.1982 -0.4548
 8846TIP3   OH248028   6.225   5.865  12.397 -0.5430 -0.5442  0.0730
 8846TIP3    H148029   6.178   5.926  12.454 -0.2665  0.4374 -0.7288
 8846TIP3    H248030   6.180   5.870  12.313  0.4375 -0.2601 -0.4496
 8847TIP3   OH248031   2.255   5.749  14.710  1.0235 -0.3749 -0.1455
 8847TIP3    H148032   2.202   5.671  14.721  0.7227 -0.2024 -0.3752
 8847TIP3    H248033   2.233   5.781  14.623  0.9087  0.1477  0.0742
 8848TIP3   OH248034   3.178   0.281  12.382 -0.1715  0.3820 -0.2062
 8848TIP3    H148035   3.241   0.296  12.452  0.0617 -2.7092  0.2882
 8848TIP3    H248036   3.096   0.262  12.427 -0.9781  2.2358 -0.8398
 8849TIP3   OH248037   0.171   2.818   6.331  0.4475 -0.2472  0.4099
 8849TIP3    H148038   0.170   2.766   6.412  0.2932 -0.3140  0.3666
 8849TIP3    H248039   0.222   2.765   6.270 -0.1641 -0.6067  0.2005
 8850TIP3   OH248040   1.699   0.323  16.796 -0.5046 -0.3345  0.4950
 8850TIP3    H148041   1.743   0.238  16.798  0.7048  0.2805  0.1783
 8850TIP3    H248042   1.652   0.327  16.880  2.5472  0.3177  2.2336
 8851TIP3   OH248043   0.486   2.425   5.796  0.1671  0.6471  0.4423
 8851TIP3    H148044   0.542   2.408   5.720 -0.4428  0.3446  0.0544
 8851TIP3    H248045   0.426   2.493   5.767  0.9651  1.6817  1.1804
 8852TIP3   OH248046   0.580   6.748   5.521  0.3630  0.2149 -0.5510
 8852TIP3    H148047   0.526   6.686   5.571  0.1450  0.5465 -0.3735
 8852TIP3    H248048   0.583   6.711   5.432  1.0965 -0.5911 -0.1960
 8853TIP3   OH248049   4.957   1.638   2.079  0.1139  0.1774  0.0244
 8853TIP3    H148050   5.032   1.690   2.106  0.2440  0.7795 -1.4262
 8853TIP3    H248051   4.931   1.676   1.995 -1.8492  0.0333  0.5401
 8854TIP3   OH248052   5.255   4.951  16.386 -0.4808  0.4807 -0.3845
 8854TIP3    H148053   5.301   4.992  16.459  1.1780 -0.1094 -1.0878
 8854TIP3    H248054   5.205   4.880  16.427 -1.4701  1.6587  0.5011
 8855TIP3   OH248055   4.879   4.666   3.071  0.0389 -0.6426 -0.6637
 8855TIP3    H148056   4.862   4.618   2.990 -1.3446 -1.9779  0.3863
 8855TIP3    H248057   4.861   4.602   3.140 -1.5382  1.2984  0.7613
 8856TIP3   OH248058   5.612   0.364  15.991  0.3213 -0.2233  0.6280
 8856TIP3    H148059   5.549   0.303  16.029 -0.7648  1.1339  1.0698
 8856TIP3    H248060   5.697   0.325  16.010 -0.3235 -1.2986  1.4209
 8857TIP3   OH248061   5.447   2.852  12.850 -0.1394 -0.1192  0.0544
 8857TIP3    H148062   5.490   2.821  12.770  0.0763 -0.9450  0.4819
 8857TIP3    H248063   5.437   2.946  12.837  1.4747  0.0358 -0.2203
 8858TIP3   OH248064   1.721   0.309   0.336  0.0293 -0.0631  0.1134
 8858TIP3    H148065   1.739   0.336   0.246  0.5948  1.9332  0.7999
 8858TIP3    H248066   1.626   0.299   0.340 -0.0104  0.0371 -0.6419
 8859TIP3   OH248067   4.540   5.388   1.680 -0.1005 -0.7980  0.4450
 8859TIP3    H148068   4.626   5.369   1.642 -0.5300 -1.9816  0.0189
 8859TIP3    H248069   4.549   5.366   1.773  0.1105 -0.7305  0.4410
 8860TIP3   OH248070   3.336   0.092  10.983 -0.0788  0.4811  0.0916
 8860TIP3    H148071   3.388   0.031  11.035 -1.2358 -0.7496 -0.1624
 8860TIP3    H248072   3.401   0.144  10.934  0.9086 -1.4926 -0.7554
 8861TIP3   OH248073   3.713   4.568   0.921 -0.3838 -0.3409  0.4414
 8861TIP3    H148074   3.713   4.663   0.924  0.8212 -0.2981 -0.5615
 8861TIP3    H248075   3.726   4.546   0.829 -2.0416 -1.4877  0.4546
 8862TIP3   OH248076   1.325   4.823   4.985  0.0003 -0.4167  0.1880
 8862TIP3    H148077   1.343   4.764   4.912 -1.4459 -2.2549  1.2929
 8862TIP3    H248078   1.403   4.818   5.040  0.8473  0.5231 -0.9007
 8863TIP3   OH248079   4.175   2.111   1.544 -0.2577 -0.5430 -0.1026
 8863TIP3    H148080   4.208   2.043   1.603  0.8407  0.9319  1.0432
 8863TIP3    H248081   4.182   2.073   1.457  5.4534 -0.0394 -0.0734
 8864TIP3   OH248082   0.243   5.279  14.668 -0.5846 -0.0919 -0.3592
 8864TIP3    H148083   0.262   5.186  14.681 -0.5836  0.0892  0.9452
 8864TIP3    H248084   0.243   5.290  14.573 -1.9456 -1.7169 -0.5646
 8865TIP3   OH248085   6.585   1.199  16.249  0.0582  0.1792  0.3041
 8865TIP3    H148086   6.590   1.192  16.154 -3.5654 -3.1774  0.2230
 8865TIP3    H248087   6.653   1.140  16.281 -2.1268 -2.8165 -0.3287
 8866TIP3   OH248088   4.804   6.809   6.442 -0.0663  0.8046  0.1442
 8866TIP3    H148089   4.711   6.793   6.460  0.1008 -0.2163  0.0950
 8866TIP3    H248090   4.804   6.849   6.355 -0.3977  0.0582 -0.2028
 8867TIP3   OH248091   5.489   1.549  16.838 -0.0620  0.0715 -0.4437
 8867TIP3    H148092   5.498   1.465  16.793  0.6502 -0.3462  0.4529
 8867TIP3    H248093   5.485   1.614  16.768  1.2394 -0.5469 -1.1058
 8868TIP3   OH248094   1.470   6.428  16.412  0.3399  0.0371  0.1469
 8868TIP3    H148095   1.518   6.506  16.381  2.2369 -1.9309 -2.0896
 8868TIP3    H248096   1.379   6.456  16.416  1.0397  2.5146 -0.1957
 8869TIP3   OH248097   5.585   6.635  14.233  0.2158  0.6332 -0.4857
 8869TIP3    H148098   5.554   6.551  14.199 -1.1561  0.0544  2.0731
 8869TIP3    H248099   5.523   6.699  14.198 -1.0219  0.0832  0.6748
 8870TIP3   OH248100   6.709   4.945  13.068  0.2829 -0.1815 -0.3750
 8870TIP3    H148101   6.674   5.024  13.109  0.7619 -0.1116 -0.0976
 8870TIP3    H248102   6.785   4.922  13.122  0.1387 -0.8328 -0.4495
 8871TIP3   OH248103   0.291   0.879  17.069 -0.1190  0.3941 -0.4766
 8871TIP3    H148104   0.326   0.962  17.037 -0.6175  1.3244  1.3522
 8871TIP3    H248105   0.199   0.880  17.044 -0.0886  0.3080 -0.5974
 8872TIP3   OH248106   3.542   3.970  15.973  0.3988  0.9983 -0.2222
 8872TIP3    H148107   3.613   3.930  15.923  0.8462 -1.6133  2.3888
 8872TIP3    H248108   3.570   3.964  16.064 -4.9203 -4.1252  1.3923
 8873TIP3   OH248109   2.952   0.791  16.746  0.1504  0.3387  0.1334
 8873TIP3    H148110   2.934   0.842  16.826  1.3265  1.0908 -0.0689
 8873TIP3    H248111   3.047   0.795  16.736 -0.0421  0.9047 -1.7320
 8874TIP3   OH248112   3.766   1.190   4.415 -0.3086  0.5435 -0.2408
 8874TIP3    H148113   3.754   1.274   4.371  0.2889  0.0842 -1.2948
 8874TIP3    H248114   3.836   1.206   4.478 -0.1419  0.8170 -0.4954
 8875TIP3   OH248115   3.711   4.300   5.127  0.0186  0.0709 -0.4374
 8875TIP3    H148116   3.770   4.366   5.090 -0.0359  0.0735 -0.5182
 8875TIP3    H248117   3.741   4.291   5.218  0.8223 -0.7055 -0.7676
 8876TIP3   OH248118   1.170   0.073   0.227  0.4331  0.3944 -0.1070
 8876TIP3    H148119   1.115   0.025   0.164  1.8125  0.4710 -1.4275
 8876TIP3    H248120   1.200   0.005   0.288 -0.3941  0.1996  0.0948
 8877TIP3   OH248121   0.327   1.152   1.808  0.3358  0.6713 -0.3563
 8877TIP3    H148122   0.393   1.203   1.761  0.1313  2.4711  1.2447
 8877TIP3    H248123   0.273   1.112   1.739  0.4013  2.7745 -1.6543
 8878TIP3   OH248124   3.069   3.668  13.558  0.2479  0.0590  0.5298
 8878TIP3    H148125   2.989   3.638  13.514  0.3210 -0.0223  0.4517
 8878TIP3    H248126   3.090   3.751  13.516  0.5705 -0.2388  0.1020
 8879TIP3   OH248127   4.367   1.951   0.182 -0.5107  0.1593  0.3822
 8879TIP3    H148128   4.363   1.860   0.214 -2.4372 -0.0627 -0.3953
 8879TIP3    H248129   4.323   1.949   0.098  0.7274  1.5712 -0.3206
 8880TIP3   OH248130   0.694   4.814  12.364  0.6082  0.5854 -0.4874
 8880TIP3    H148131   0.672   4.894  12.316  1.5739  0.8715 -0.4661
 8880TIP3    H248132   0.778   4.787  12.327  0.2772 -0.4275 -0.5047
 8881TIP3   OH248133   0.438   4.316   3.603 -0.0651 -0.1349 -0.2976
 8881TIP3    H148134   0.513   4.274   3.646 -0.5683 -0.3300  0.4041
 8881TIP3    H248135   0.443   4.408   3.631  0.1758 -0.0500 -0.6204
 8882TIP3   OH248136   5.361   4.792   0.592  0.2238  0.0482  0.2144
 8882TIP3    H148137   5.418   4.869   0.598 -0.2660  0.4081  0.3103
 8882TIP3    H248138   5.397   4.731   0.656  0.1131  0.5298  0.7385
 8883TIP3   OH248139   1.164   1.707   4.742  0.2832 -0.2642  0.4732
 8883TIP3    H148140   1.074   1.713   4.774  0.5997  0.1370  1.3007
 8883TIP3    H248141   1.171   1.776   4.676 -0.5777 -1.5443 -0.9868
 8884TIP3   OH248142   6.640   1.218  12.665 -0.5051  0.0534 -0.0889
 8884TIP3    H148143   6.562   1.179  12.625 -0.9696  0.5351  0.3404
 8884TIP3    H248144   6.622   1.217  12.759 -0.0197  0.2276  0.0091
 8885TIP3   OH248145   1.363   5.508  16.707 -0.1717 -0.1944 -0.2129
 8885TIP3    H148146   1.302   5.435  16.720 -0.6853  0.7503  3.0775
 8885TIP3    H248147   1.307   5.583  16.689  0.0369  0.4315  1.6430
 8886TIP3   OH248148   0.269   4.473   1.587 -0.2655 -0.0717 -0.0352
 8886TIP3    H148149   0.353   4.517   1.576  0.4068 -0.7537  2.1290
 8886TIP3    H248150   0.291   4.381   1.598 -1.3699 -0.3824 -0.3281
 8887TIP3   OH248151   6.150   5.350   0.261 -0.2594  0.0680  0.2909
 8887TIP3    H148152   6.102   5.408   0.321  1.6759  1.0201  0.9506
 8887TIP3    H248153   6.129   5.262   0.291  0.4842  0.5312  2.2187
 8888TIP3   OH248154   2.487   1.191  10.751 -0.2379  0.3615 -0.2462
 8888TIP3    H148155   2.433   1.251  10.699  1.0463  1.4422 -0.3456
 8888TIP3    H248156   2.559   1.245  10.783 -0.1747 -0.6487  1.3936
 8889TIP3   OH248157   6.448   0.956  12.126 -0.4531 -0.1843  0.2721
 8889TIP3    H148158   6.415   1.044  12.110 -0.1871 -0.0228  0.5831
 8889TIP3    H248159   6.422   0.905  12.050 -1.1196  0.0213  0.3646
 8890TIP3   OH248160   1.145   4.105   4.998  0.3351  0.2851 -0.6435
 8890TIP3    H148161   1.230   4.137   4.970 -0.5018  1.9023 -1.4231
 8890TIP3    H248162   1.124   4.035   4.936  1.8008 -1.2053  0.5395
 8891TIP3   OH248163   5.827   3.838   3.752 -0.1109 -0.1011 -0.2027
 8891TIP3    H148164   5.823   3.850   3.657 -0.3750 -2.8861 -0.5953
 8891TIP3    H248165   5.862   3.749   3.763  0.4997  0.4178  2.3155
 8892TIP3   OH248166   0.641   1.995  13.119  0.2173 -0.9850 -0.0034
 8892TIP3    H148167   0.727   1.953  13.115  1.1350  0.9710 -1.0012
 8892TIP3    H248168   0.614   2.003  13.028 -0.3908 -0.3241  0.2353
 8893TIP3   OH248169   2.055   6.132  16.602  0.3798  0.0084 -0.2683
 8893TIP3    H148170   2.008   6.138  16.519  0.6822  1.4157 -0.3540
 8893TIP3    H248171   2.143   6.163  16.581  0.9695 -1.3257  0.1892
 8894TIP3   OH248172   0.658   3.234  14.980 -0.2325 -0.4552  0.0103
 8894TIP3    H148173   0.692   3.299  14.919 -2.2981 -0.0875 -0.8062
 8894TIP3    H248174   0.688   3.150  14.944  0.4778 -0.0960 -0.2405
 8895TIP3   OH248175   3.250   2.953  11.579 -0.4675  0.2065  0.2311
 8895TIP3    H148176   3.319   3.012  11.551 -0.9769  0.2015 -1.0358
 8895TIP3    H248177   3.219   2.910  11.499 -1.7722  0.0325  0.8016
 8896TIP3   OH248178   6.010   6.055  11.479  0.3128  0.7147  0.8231
 8896TIP3    H148179   6.075   6.063  11.549  3.1196  0.7160 -1.7124
 8896TIP3    H248180   6.020   6.135  11.427  0.4304 -0.6422 -1.3187
 8897TIP3   OH248181   1.585   3.539   5.722  0.6016  0.4990  0.3441
 8897TIP3    H148182   1.639   3.551   5.644  0.1524  2.0015  0.2419
 8897TIP3    H248183   1.635   3.479   5.777  1.4089  0.2483 -0.6447
 8898TIP3   OH248184   0.983   3.636   1.234 -0.1634 -0.0756  0.5462
 8898TIP3    H148185   1.069   3.671   1.215  0.2098 -1.7463 -0.9262
 8898TIP3    H248186   0.928   3.665   1.161 -0.1725 -1.3913  0.0235
 8899TIP3   OH248187   4.051   4.404   0.634 -0.0774 -0.6024 -0.1786
 8899TIP3    H148188   4.027   4.475   0.575  0.0676 -0.9104 -0.6158
 8899TIP3    H248189   4.121   4.357   0.588 -0.2331 -1.0775  0.0609
 8900TIP3   OH248190   5.348   2.147  12.384  0.4028  0.0762 -0.3789
 8900TIP3    H148191   5.257   2.117  12.377  0.5383 -0.1823 -1.0332
 8900TIP3    H248192   5.388   2.091  12.450 -0.2375  0.9669  0.7853
 8901TIP3   OH248193   1.347   3.242   3.098 -0.1357  0.5345  0.4026
 8901TIP3    H148194   1.289   3.304   3.054  1.0843  2.1412  1.0122
 8901TIP3    H248195   1.368   3.283   3.181  0.2781 -0.9539  1.0629
 8902TIP3   OH248196   0.678   5.805   4.797  0.1740  0.0447 -0.8973
 8902TIP3    H148197   0.641   5.742   4.860 -0.1995 -0.7731 -1.9120
 8902TIP3    H248198   0.707   5.879   4.850 -1.1333 -0.1684  0.1146
 8903TIP3   OH248199   3.837   2.279   1.276  0.3551 -0.6010 -0.2801
 8903TIP3    H148200   3.763   2.277   1.215  0.3648  0.9544 -0.3567
 8903TIP3    H248201   3.797   2.270   1.362 -0.0620  1.2803 -0.2412
 8904TIP3   OH248202   3.094   0.987   4.436 -0.0354  0.6487  0.4638
 8904TIP3    H148203   3.073   0.974   4.344  1.3828  0.7984  0.1099
 8904TIP3    H248204   3.176   0.939   4.449  0.4765  1.7264  1.3143
 8905TIP3   OH248205   1.109   5.577  16.553  0.3222  0.1222  0.0592
 8905TIP3    H148206   1.051   5.501  16.555  0.2345  0.1999  1.3537
 8905TIP3    H248207   1.069   5.637  16.490  0.1885 -0.7417 -0.6820
 8906TIP3   OH248208   3.282   2.941   2.798  0.2933  0.0394 -0.2661
 8906TIP3    H148209   3.360   2.982   2.835  0.1138  1.7612 -1.7239
 8906TIP3    H248210   3.211   3.001   2.821 -0.4842 -1.1003  0.3456
 8907TIP3   OH248211   2.745   5.440   3.292  0.7471 -0.1926 -0.3701
 8907TIP3    H148212   2.669   5.452   3.349  1.4429  1.5692  0.2100
 8907TIP3    H248213   2.743   5.514   3.232  1.7123 -0.4155 -0.6943
 8908TIP3   OH248214   1.468   6.268   4.393 -0.1889 -0.0183  0.5798
 8908TIP3    H148215   1.434   6.202   4.332  0.1991 -0.2197  0.5821
 8908TIP3    H248216   1.395   6.329   4.404 -0.5415 -0.4259  0.5520
 8909TIP3   OH248217   4.750   5.178   2.729  0.4955 -0.2140  0.1224
 8909TIP3    H148218   4.838   5.179   2.765  0.3870  0.1099  0.3768
 8909TIP3    H248219   4.750   5.246   2.662  0.1311  0.4951  0.8466
 8910TIP3   OH248220   2.261   0.273  12.619  0.2514 -0.1279  0.4711
 8910TIP3    H148221   2.270   0.182  12.648  0.9704 -0.6067 -1.2054
 8910TIP3    H248222   2.333   0.319  12.663 -0.5746 -0.2013  1.9262
 8911TIP3   OH248223   4.968   2.611  11.133  0.7524  0.1302 -0.3501
 8911TIP3    H148224   4.979   2.675  11.204  0.8761  0.3424 -0.5611
 8911TIP3    H248225   5.053   2.611  11.087  1.0764 -0.8768  0.2248
 8912TIP3   OH248226   3.570   5.574   3.797  0.0228  0.5405 -0.4520
 8912TIP3    H148227   3.643   5.548   3.853 -0.0037  0.0618 -0.6399
 8912TIP3    H248228   3.550   5.664   3.824 -1.1907 -0.3076  1.5839
 8913TIP3   OH248229   5.219   1.630  14.696  0.3581 -0.2016  0.2543
 8913TIP3    H148230   5.266   1.548  14.680 -2.2554 -1.9074  1.0880
 8913TIP3    H248231   5.177   1.650  14.613  0.6738  0.0901  0.1650
 8914TIP3   OH248232   6.100   0.134  16.573  0.3128  0.2884 -0.1527
 8914TIP3    H148233   6.105   0.057  16.517  0.8968  0.1136  0.1292
 8914TIP3    H248234   6.070   0.100  16.657  0.2053  0.4266 -0.1382
 8915TIP3   OH248235   2.519   4.674   1.036  0.1280  0.2179  0.2160
 8915TIP3    H148236   2.466   4.745   1.000 -1.8946 -0.6849  1.3479
 8915TIP3    H248237   2.542   4.620   0.961 -0.8565  0.4400 -0.2489
 8916TIP3   OH248238   0.619   5.870   3.918  0.1928 -0.2971 -0.9123
 8916TIP3    H148239   0.617   5.956   3.875  1.3151 -0.6272 -1.6407
 8916TIP3    H248240   0.530   5.836   3.907 -1.1572  2.0711  2.0784
 8917TIP3   OH248241   3.724   6.204   0.083 -0.1026  0.6989  0.3842
 8917TIP3    H148242   3.747   6.158   0.163 -1.5195  0.8854  0.9054
 8917TIP3    H248243   3.670   6.143   0.034  3.1416 -0.5492 -1.8196
 8918TIP3   OH248244   2.492   1.327   0.265 -0.7239  0.4216 -0.0459
 8918TIP3    H148245   2.572   1.371   0.293  0.6157 -0.8856 -1.7043
 8918TIP3    H248246   2.456   1.384   0.197 -1.8297  1.5589  1.4426
 8919TIP3   OH248247   3.503   5.412  13.014  0.1626  0.0424  0.1766
 8919TIP3    H148248   3.468   5.488  12.968 -0.6051  0.0723  0.8045
 8919TIP3    H248249   3.597   5.429  13.020  0.2147  0.1993 -1.0619
 8920TIP3   OH248250   2.415   3.144  12.206 -0.0941 -1.1622 -0.3556
 8920TIP3    H148251   2.362   3.105  12.137  1.1390 -0.5819 -1.6777
 8920TIP3    H248252   2.400   3.238  12.197  0.0800 -1.0866  0.1451
 8921TIP3   OH248253   2.317   4.902  15.420 -0.0625  0.8354 -0.4226
 8921TIP3    H148254   2.241   4.844  15.429  0.2361  0.4779 -0.1849
 8921TIP3    H248255   2.379   4.852  15.368  0.5963  0.5377  0.6285
 8922TIP3   OH248256   4.856   0.389   5.961 -0.1241 -0.1276  0.4986
 8922TIP3    H148257   4.771   0.344   5.957  0.4543 -1.1979 -0.2206
 8922TIP3    H248258   4.854   0.437   6.044 -1.0552 -0.9192  0.9516
 8923TIP3   OH248259   6.798   5.334  14.773 -0.5106 -0.0615  0.5697
 8923TIP3    H148260   6.763   5.245  14.779 -0.3787 -0.1363  0.2513
 8923TIP3    H248261   6.893   5.321  14.764 -0.5725  0.0927 -0.2724
 8924TIP3   OH248262   1.821   0.095  16.594  0.8288  0.1320 -0.1681
 8924TIP3    H148263   1.733   0.072  16.564  2.1720 -2.1034 -2.6024
 8924TIP3    H248264   1.828   0.054  16.680  0.6172 -2.5831 -1.3850
 8925TIP3   OH248265   5.173   2.995   2.416  0.1677 -0.3265  0.1949
 8925TIP3    H148266   5.213   2.909   2.404 -0.6823 -0.8232  0.8602
 8925TIP3    H248267   5.246   3.052   2.440  0.6436 -0.9859  0.3324
 8926TIP3   OH248268   3.932   5.886  12.851  0.1869 -0.4046 -0.4033
 8926TIP3    H148269   3.998   5.849  12.911  0.3697  0.4827 -0.0455
 8926TIP3    H248270   3.899   5.811  12.803  0.3413 -1.0821  0.5235
 8927TIP3   OH248271   3.284   1.686   2.230 -0.7038 -0.7646  0.4177
 8927TIP3    H148272   3.337   1.751   2.184 -0.3756 -0.5755  1.0531
 8927TIP3    H248273   3.198   1.726   2.238 -0.3143 -0.1253  1.4177
 8928TIP3   OH248274   3.940   0.316  11.490 -0.1062 -0.2023  0.1673
 8928TIP3    H148275   3.892   0.339  11.411  1.4370 -2.7625 -1.5882
 8928TIP3    H248276   4.030   0.344  11.472  0.3052 -1.0358  0.9309
 8929TIP3   OH248277   1.586   2.422  10.531 -0.4557  0.0819  0.2969
 8929TIP3    H148278   1.535   2.460  10.460 -0.2723  3.2848  1.7761
 8929TIP3    H248279   1.669   2.396  10.490 -0.7004  1.0501 -0.8233
 8930TIP3   OH248280   6.673   3.561  16.140 -0.2177 -0.5649  0.4666
 8930TIP3    H148281   6.654   3.548  16.047 -0.1895 -2.6566  0.7308
 8930TIP3    H248282   6.592   3.535  16.184  0.2595 -1.0008  1.0987
 8931TIP3   OH248283   2.405   1.374   2.922 -1.0052 -0.3509  0.1137
 8931TIP3    H148284   2.358   1.360   2.840 -1.6613 -0.3984  0.4912
 8931TIP3    H248285   2.497   1.360   2.900 -1.1537 -0.1362 -0.6651
 8932TIP3   OH248286   5.426   2.340   2.052  0.1051  0.0349  0.7134
 8932TIP3    H148287   5.377   2.265   2.017  0.6255  0.4605 -0.9766
 8932TIP3    H248288   5.515   2.326   2.022 -0.4065  3.0055 -2.4874
 8933TIP3   OH248289   1.073   1.648  15.783  0.1841 -0.2574  0.4062
 8933TIP3    H148290   0.979   1.629  15.787 -0.1285  0.4839 -2.2532
 8933TIP3    H248291   1.115   1.562  15.781 -0.5916 -0.6210 -0.7449
 8934TIP3   OH248292   3.504   1.954   5.010 -0.0676 -0.1258  0.0604
 8934TIP3    H148293   3.496   2.046   5.037 -0.9310 -0.3492  0.5963
 8934TIP3    H248294   3.414   1.923   5.005  0.2694 -1.4125  1.5487
 8935TIP3   OH248295   2.146   3.222   1.932  0.3185  0.1857  0.3279
 8935TIP3    H148296   2.150   3.155   1.864  2.4477 -1.4573  2.0221
 8935TIP3    H248297   2.131   3.173   2.013  0.2666  1.9091  1.3828
 8936TIP3   OH248298   3.110   2.254  13.272 -0.0907 -0.3190  0.1682
 8936TIP3    H148299   3.181   2.268  13.210 -1.8637  1.7867 -1.4439
 8936TIP3    H248300   3.154   2.247  13.357  2.1366 -0.5003 -0.9568
 8937TIP3   OH248301   6.551   1.452   2.644  0.1763 -0.1093 -0.5538
 8937TIP3    H148302   6.568   1.536   2.601  0.7402  0.1418  0.1601
 8937TIP3    H248303   6.638   1.421   2.670 -0.4279  1.5407  3.8332
 8938TIP3   OH248304   1.925   5.851  10.712 -0.5057 -0.1943 -0.3199
 8938TIP3    H148305   1.839   5.814  10.729 -0.1348 -0.8460  0.1556
 8938TIP3    H248306   1.949   5.897  10.792  0.2797 -1.3868  0.1471
 8939TIP3   OH248307   3.445   0.535  12.079 -0.1708  0.5405  1.1143
 8939TIP3    H148308   3.418   0.530  12.170  0.6106 -1.7715  1.2485
 8939TIP3    H248309   3.366   0.512  12.029  0.1711 -1.1720  1.3327
 8940TIP3   OH248310   0.316   3.803   0.357  0.5598  0.4650 -0.7672
 8940TIP3    H148311   0.346   3.773   0.271  0.7015  0.5111 -0.7340
 8940TIP3    H248312   0.221   3.795   0.353  0.7613 -3.5813  0.5589
 8941TIP3   OH248313   3.014   0.259   3.106  0.4849 -0.1202 -0.2996
 8941TIP3    H148314   2.981   0.326   3.046 -1.0878  0.1048  0.7714
 8941TIP3    H248315   2.980   0.285   3.192  0.4900 -1.8691  0.2544
 8942TIP3   OH248316   3.047   4.697   4.029  0.1874  0.2189 -0.3749
 8942TIP3    H148317   2.996   4.692   3.949  2.8591 -0.0263 -2.1446
 8942TIP3    H248318   3.116   4.761   4.010  1.4489 -0.5723  1.3454
 8943TIP3   OH248319   3.534   2.282  16.044 -0.2265 -0.2435 -0.5477
 8943TIP3    H148320   3.491   2.365  16.025  0.2403  0.2846  0.6882
 8943TIP3    H248321   3.462   2.219  16.050 -0.4647 -0.3283 -3.3089
 8944TIP3   OH248322   0.954   4.736   5.230  0.3721  0.1150  0.1913
 8944TIP3    H148323   0.952   4.782   5.313  0.0101 -1.2779  0.9660
 8944TIP3    H248324   0.866   4.700   5.220  0.6938 -0.5472 -0.3226
 8945TIP3   OH248325   6.395   5.023  15.165  0.4349  0.3333  0.0135
 8945TIP3    H148326   6.464   5.024  15.098  1.4317  0.5619  1.0229
 8945TIP3    H248327   6.400   4.936  15.202 -1.5449 -0.5096 -1.6410
 8946TIP3   OH248328   3.923   5.997  13.493  0.0814 -0.4166  0.1363
 8946TIP3    H148329   3.864   5.933  13.454  1.1982 -0.2678 -1.8726
 8946TIP3    H248330   3.905   5.993  13.587 -2.8470 -0.5982 -0.4083
 8947TIP3   OH248331   2.021   4.567   1.729  0.0235 -0.2486  0.0686
 8947TIP3    H148332   1.964   4.527   1.663  0.1349 -0.3602  0.0399
 8947TIP3    H248333   1.993   4.529   1.812 -1.0160  0.8894  0.2603
 8948TIP3   OH248334   5.015   5.518  16.815  0.1830  0.3755 -0.1746
 8948TIP3    H148335   4.935   5.500  16.865  0.9976 -1.2613  0.5594
 8948TIP3    H248336   5.008   5.462  16.738  1.1471 -0.5660  0.4321
 8949TIP3   OH248337   1.635   1.554  17.206  0.1421  0.2035  0.2801
 8949TIP3    H148338   1.610   1.463  17.190 -3.3468  0.7365  2.2204
 8949TIP3    H248339   1.713   1.548  17.261  0.9865 -1.5811 -1.0378
 8950TIP3   OH248340   4.996   4.836  13.774 -0.3070 -0.1556  0.2757
 8950TIP3    H148341   4.962   4.811  13.861  1.0099 -0.8253  0.6158
 8950TIP3    H248342   4.947   4.915  13.751 -1.3215 -0.4919  1.2296
 8951TIP3   OH248343   4.509   6.646   2.784 -0.0761 -0.2388  0.5210
 8951TIP3    H148344   4.439   6.698   2.746  0.7747  1.0463  0.6713
 8951TIP3    H248345   4.546   6.702   2.852  0.5980 -1.2027  0.9574
 8952TIP3   OH248346   6.198   0.258  11.509  0.2032  0.2817 -0.0115
 8952TIP3    H148347   6.239   0.332  11.464 -2.1638  0.0889 -2.6726
 8952TIP3    H248348   6.225   0.182  11.457  1.1718 -0.5427  1.6591
 8953TIP3   OH248349   4.201   2.818  16.610 -0.2233 -0.1185 -0.1739
 8953TIP3    H148350   4.161   2.807  16.696 -1.9393  1.0715 -0.8035
 8953TIP3    H248351   4.160   2.752  16.555  0.3600 -0.4143 -0.2589
 8954TIP3   OH248352   1.499   4.137   0.877  0.1982  0.2384 -0.0000
 8954TIP3    H148353   1.432   4.203   0.860 -0.4885 -1.2214 -3.2136
 8954TIP3    H248354   1.466   4.089   0.954 -1.7200  0.4974 -0.6267
 8955TIP3   OH248355   5.936   3.245   3.249  0.7147 -0.1936  0.7554
 8955TIP3    H148356   5.840   3.238   3.251  0.6357  0.4092 -0.6621
 8955TIP3    H248357   5.962   3.198   3.170  1.5496  0.1303  0.8297
 8956TIP3   OH248358   0.039   0.285   4.246 -0.2764 -0.1797 -0.1128
 8956TIP3    H148359   0.053   0.365   4.195  0.3280 -1.5069 -2.0784
 8956TIP3    H248360   0.105   0.224   4.213 -0.5284 -1.3973  1.5832
 8957TIP3   OH248361   3.739   0.166   0.889  0.0691 -0.0537  0.0186
 8957TIP3    H148362   3.770   0.155   0.799  1.8844  1.3583  0.4440
 8957TIP3    H248363   3.784   0.097   0.938  1.0815  0.8241  0.3122
 8958TIP3   OH248364   0.833   5.255   5.301 -0.2819  0.0712 -0.2105
 8958TIP3    H148365   0.771   5.257   5.374 -0.4782 -0.5800 -0.3614
 8958TIP3    H248366   0.908   5.305   5.333 -0.1549 -0.6574  0.6359
 8959TIP3   OH248367   2.611   2.568  13.625 -0.2364 -0.5533  0.0050
 8959TIP3    H148368   2.675   2.590  13.558 -0.5492 -1.0805 -0.4774
 8959TIP3    H248369   2.612   2.642  13.685  0.6752 -0.4741 -0.1118
 8960TIP3   OH248370   3.315   2.641   4.703  0.4659 -0.0886 -0.1142
 8960TIP3    H148371   3.244   2.576   4.709 -0.2061  0.5001 -1.3752
 8960TIP3    H248372   3.353   2.643   4.791  0.1253 -1.7626  0.0998
 8961TIP3   OH248373   1.506   2.662   1.348 -0.1847  0.7695 -0.3033
 8961TIP3    H148374   1.422   2.671   1.304 -0.3251  1.7585  0.1556
 8961TIP3    H248375   1.486   2.623   1.432 -0.1892  1.0001 -0.1960
 8962TIP3   OH248376   1.358   3.499  16.860  0.1472 -0.3876 -0.0650
 8962TIP3    H148377   1.354   3.468  16.951 -0.4045  1.0913  0.4202
 8962TIP3    H248378   1.448   3.530  16.849 -0.1340  0.5770  0.3562
 8963TIP3   OH248379   2.505   4.978  14.007  0.0140 -0.0566  0.0518
 8963TIP3    H148380   2.417   4.951  13.980  0.0443 -0.4753  0.3604
 8963TIP3    H248381   2.559   4.964  13.930 -0.1888  0.2044 -0.1409
 8964TIP3   OH248382   3.284   3.676   5.712  0.4235  0.1295 -0.0345
 8964TIP3    H148383   3.349   3.651   5.646  0.8742  0.6798  0.1988
 8964TIP3    H248384   3.313   3.632   5.792 -0.4514 -1.0152 -0.3380
 8965TIP3   OH248385   5.581   2.212  11.570  0.1750  0.5830 -0.5461
 8965TIP3    H148386   5.601   2.293  11.618  0.2391  0.6450 -0.6751
 8965TIP3    H248387   5.549   2.242  11.485 -0.5968  0.4865 -0.2945
 8966TIP3   OH248388   0.748   5.680   3.236 -0.2644  0.2580  0.2685
 8966TIP3    H148389   0.842   5.667   3.222 -0.1443  2.7333 -1.5772
 8966TIP3    H248390   0.706   5.622   3.172  0.0582  1.0303 -0.6510
 8967TIP3   OH248391   3.199   2.191  15.881  0.8299 -0.0282  0.3380
 8967TIP3    H148392   3.211   2.256  15.811  2.7288  0.1222  0.7611
 8967TIP3    H248393   3.265   2.125  15.864  0.2847 -0.7849  1.1115
 8968TIP3   OH248394   5.896   3.622  13.966  0.0514 -0.1434 -0.1338
 8968TIP3    H148395   5.914   3.581  13.881  2.4653  0.6626 -0.0471
 8968TIP3    H248396   5.965   3.590  14.023 -0.7061  0.4814  1.1635
 8969TIP3   OH248397   6.523   1.777  11.456 -0.5184  0.1176 -0.1930
 8969TIP3    H148398   6.567   1.816  11.381 -0.7966  1.4526  0.3182
 8969TIP3    H248399   6.448   1.731  11.418 -0.2660  0.1880 -0.7903
 8970TIP3   OH248400   3.787   6.413   5.731  0.7457 -0.7124 -0.2951
 8970TIP3    H148401   3.695   6.437   5.726  1.5908  2.7306 -0.5666
 8970TIP3    H248402   3.794   6.330   5.684 -2.0070 -0.4360 -1.2193
 8971TIP3   OH248403   3.193   4.445   2.203  0.1375  0.4219  0.5666
 8971TIP3    H148404   3.215   4.353   2.220 -0.2147  0.3208  0.4762
 8971TIP3    H248405   3.130   4.441   2.131  0.0861  0.7328  0.5962
 8972TIP3   OH248406   2.479   5.402   0.753 -0.3041  0.0264  0.3327
 8972TIP3    H148407   2.434   5.390   0.670  1.7449 -3.1806 -0.4142
 8972TIP3    H248408   2.419   5.366   0.818  0.5544 -3.0191 -0.5026
 8973TIP3   OH248409   5.660   2.186   0.711  0.1978  0.1906  0.3630
 8973TIP3    H148410   5.647   2.153   0.800 -1.6976  1.2022  0.4971
 8973TIP3    H248411   5.707   2.269   0.722 -2.2178  1.5810  0.6569
 8974TIP3   OH248412   1.539   6.305  16.666 -0.0799  0.1213 -0.3039
 8974TIP3    H148413   1.626   6.338  16.687 -0.4995  1.0564 -0.0256
 8974TIP3    H248414   1.527   6.328  16.574 -0.1548  0.2452 -0.2619
 8975TIP3   OH248415   5.603   2.081   1.665 -0.4412 -0.1876 -0.3184
 8975TIP3    H148416   5.588   2.175   1.656 -1.2345 -0.4267 -1.6574
 8975TIP3    H248417   5.557   2.042   1.591  0.2404 -1.6025 -0.0220
 8976TIP3   OH248418   0.121   1.048   0.305  0.1994  0.6175  0.1685
 8976TIP3    H148419   0.152   0.995   0.231 -0.8129 -0.5923  0.6062
 8976TIP3    H248420   0.198   1.100   0.330  1.1605 -0.5020 -0.3809
 8977TIP3   OH248421   6.568   0.920   4.202  0.1544  0.4638 -0.2762
 8977TIP3    H148422   6.591   0.882   4.287  0.0431  0.7076 -0.1383
 8977TIP3    H248423   6.641   0.978   4.182  0.2616  0.2763 -0.4267
 8978TIP3   OH248424   6.226   6.683   5.453  0.1190  0.3475 -0.0961
 8978TIP3    H148425   6.191   6.731   5.378 -0.2516 -1.2148 -0.9482
 8978TIP3    H248426   6.311   6.651   5.422  0.1525  0.0508  0.3037
 8979TIP3   OH248427   2.240   4.895   4.657 -0.0941 -0.0565 -0.1723
 8979TIP3    H148428   2.317   4.938   4.619  0.7437 -0.2609  1.2485
 8979TIP3    H248429   2.183   4.967   4.685 -0.4784  0.0938 -1.3174
 8980TIP3   OH248430   6.136   1.696  14.200 -0.0813  0.3214 -0.2194
 8980TIP3    H148431   6.091   1.777  14.178 -0.1787  0.1347 -0.7148
 8980TIP3    H248432   6.066   1.634  14.223 -0.1639 -0.3404 -2.2084
 8981TIP3   OH248433   3.190   4.347  14.406 -0.0060  0.0266 -0.1383
 8981TIP3    H148434   3.182   4.295  14.326 -0.9602  0.9109 -0.6390
 8981TIP3    H248435   3.188   4.283  14.477  0.3751 -0.7307 -0.8096
 8982TIP3   OH248436   2.849   6.719  14.845  0.0349  0.0412  0.2907
 8982TIP3    H148437   2.809   6.788  14.899  0.5564  0.6735 -0.1181
 8982TIP3    H248438   2.775   6.681  14.797 -0.2739  0.2497  0.5974
 8983TIP3   OH248439   2.850   0.546  14.755 -0.3167 -0.7961  0.4609
 8983TIP3    H148440   2.906   0.590  14.819  0.8829 -0.1521 -0.9764
 8983TIP3    H248441   2.772   0.602  14.750  0.0103 -0.3139  0.6542
 8984TIP3   OH248442   3.891   1.646  16.510 -0.2425  0.6484 -0.3828
 8984TIP3    H148443   3.934   1.595  16.442 -0.2102 -0.9544  0.8252
 8984TIP3    H248444   3.815   1.594  16.536 -1.0166  1.8848 -0.1317
 8985TIP3   OH248445   1.191   5.888   6.635  0.6165 -0.1733 -0.3130
 8985TIP3    H148446   1.275   5.892   6.588  0.5347  1.6419 -0.3279
 8985TIP3    H248447   1.207   5.827   6.707  2.0079  0.2751 -0.2276
 8986TIP3   OH248448   2.063   1.105  12.212 -0.2400 -0.3432 -0.2136
 8986TIP3    H148449   2.129   1.046  12.249  0.0087  0.8524  1.3011
 8986TIP3    H248450   2.018   1.052  12.146  0.2312 -2.1139  0.8490
 8987TIP3   OH248451   1.365   2.210  15.979 -0.1315 -0.5383  0.3497
 8987TIP3    H148452   1.412   2.292  15.992 -0.9117 -0.0474  0.0990
 8987TIP3    H248453   1.278   2.236  15.950 -0.8025 -1.4224  1.5112
 8988TIP3   OH248454   1.942   2.343  16.342  0.6278 -0.2240  0.0792
 8988TIP3    H148455   1.946   2.343  16.246 -2.4672  0.2959 -0.1068
 8988TIP3    H248456   1.949   2.250  16.366  1.2218 -0.3749 -0.6568
 8989TIP3   OH248457   3.599   4.745  14.933  0.3215 -0.2389 -0.0456
 8989TIP3    H148458   3.667   4.707  14.988  0.2858  0.0959  0.2305
 8989TIP3    H248459   3.623   4.837  14.925 -0.6948  0.1282  0.9569
 8990TIP3   OH248460   4.158   0.727   5.812  0.2949 -0.7522  0.1975
 8990TIP3    H148461   4.200   0.795   5.760 -1.2829 -0.6380 -0.9424
 8990TIP3    H248462   4.082   0.770   5.851  0.1211 -1.4768  0.6608
 8991TIP3   OH248463   2.997   2.717   1.705 -0.5127 -0.5948 -0.4073
 8991TIP3    H148464   2.936   2.734   1.777  1.5338 -1.2267  1.5421
 8991TIP3    H248465   2.941   2.703   1.629 -2.7630 -0.2906  1.1402
 8992TIP3   OH248466   3.810   1.754  16.164  0.3609 -0.0615  0.0238
 8992TIP3    H148467   3.719   1.756  16.195 -0.3736 -0.4804 -2.0454
 8992TIP3    H248468   3.814   1.823  16.098  2.3339  1.8750  2.0924
 8993TIP3   OH248469   6.767   2.907   4.962 -0.4678  0.4500  0.6550
 8993TIP3    H148470   6.819   2.974   4.917  0.1089  0.2736  1.0568
 8993TIP3    H248471   6.705   2.877   4.896 -0.6768  1.3264  0.4455
 8994TIP3   OH248472   3.494   3.427   3.704 -0.0206  0.2623  0.2652
 8994TIP3    H148473   3.515   3.334   3.709  0.4173  0.2469 -1.4925
 8994TIP3    H248474   3.422   3.438   3.766 -1.3183 -1.6238 -0.8334
 8995TIP3   OH248475   1.101   5.504   5.560  0.6241 -0.2405 -0.1809
 8995TIP3    H148476   1.064   5.570   5.619  0.4828 -1.9879  1.7369
 8995TIP3    H248477   1.184   5.479   5.601  0.4977 -1.5153 -0.6937
 8996TIP3   OH248478   6.472   0.516  14.614 -0.2532  0.1994  0.1176
 8996TIP3    H148479   6.502   0.433  14.652 -0.2650  0.2895  0.3255
 8996TIP3    H248480   6.463   0.575  14.689 -0.6195  0.2731  0.0156
 8997TIP3   OH248481   3.280   0.174  15.775 -0.5483  0.0883 -0.0252
 8997TIP3    H148482   3.266   0.093  15.727  1.4856 -1.3076  1.6428
 8997TIP3    H248483   3.204   0.180  15.834 -0.0523 -1.3333  0.7921
 8998TIP3   OH248484   4.178   4.824  12.893  0.1028 -0.4799 -0.7340
 8998TIP3    H148485   4.206   4.733  12.905 -5.5292 -2.4195 -1.1240
 8998TIP3    H248486   4.161   4.832  12.799 -0.5323  0.6734 -0.5330
 8999TIP3   OH248487   3.189   1.620   5.594  0.6625  0.2094 -0.6750
 8999TIP3    H148488   3.125   1.568   5.643  2.4921 -1.4561  0.0161
 8999TIP3    H248489   3.184   1.707   5.633  0.6198 -0.5597  1.0992
 9000TIP3   OH248490   0.686   6.586  15.913 -0.8869 -0.2058 -0.7544
 9000TIP3    H148491   0.644   6.669  15.932  0.8342 -0.2038  3.7593
 9000TIP3    H248492   0.777   6.609  15.894 -0.2001 -1.0151  1.3459
 9001TIP3   OH248493   1.674   2.350  14.469 -0.2208 -0.1760 -0.4166
 9001TIP3    H148494   1.743   2.391  14.416 -1.8959  0.8225 -1.8676
 9001TIP3    H248495   1.613   2.312  14.405 -1.5009 -0.2379  0.8185
 9002TIP3   OH248496   0.733   2.242  10.553 -0.2164 -0.2613  0.5708
 9002TIP3    H148497   0.767   2.319  10.508 -1.5791 -0.6361 -1.1508
 9002TIP3    H248498   0.731   2.174  10.485  1.6602 -2.0590  2.2307
 9003TIP3   OH248499   2.945   0.495  13.178 -0.1621 -0.4294  0.2613
 9003TIP3    H148500   2.863   0.469  13.218 -0.0731  0.8474  1.2707
 9003TIP3    H248501   2.929   0.583  13.143  0.0498 -1.1279 -1.6727
 9004TIP3   OH248502   1.252   0.803  11.137 -0.0738 -0.0699  1.0453
 9004TIP3    H148503   1.264   0.809  11.042  1.3740 -1.4888  1.1135
 9004TIP3    H248504   1.307   0.872  11.173  1.7732 -1.4709  0.9753
 9005TIP3   OH248505   0.418   0.255  12.973 -0.3058 -0.0926 -0.1382
 9005TIP3    H148506   0.323   0.242  12.973 -0.0374 -2.3159  0.5309
 9005TIP3    H248507   0.451   0.193  12.907  0.5969  1.4887 -1.1967
 9006TIP3   OH248508   0.954   4.301  13.936 -0.4521 -0.2682  0.3493
 9006TIP3    H148509   0.897   4.250  13.993  0.9706 -1.4849  0.7078
 9006TIP3    H248510   1.042   4.279  13.964  0.2145  1.0558 -0.6623
 9007TIP3   OH248511   3.528   1.582  14.167 -0.7938 -0.1669 -0.1918
 9007TIP3    H148512   3.562   1.668  14.191  1.0333 -0.8842 -0.1492
 9007TIP3    H248513   3.434   1.589  14.182 -0.5578  1.5363  0.6671
 9008TIP3   OH248514   3.613   4.450  15.234  0.0459 -0.0568  0.7040
 9008TIP3    H148515   3.570   4.535  15.243  1.6182  0.8501 -0.1799
 9008TIP3    H248516   3.556   4.389  15.281 -2.8033  0.8878 -1.3943
 9009TIP3   OH248517   2.073   6.464  13.693 -0.2928 -0.3658 -0.0631
 9009TIP3    H148518   2.139   6.402  13.722 -2.5273 -2.6875  0.2858
 9009TIP3    H248519   2.022   6.416  13.628  0.5857  2.5857 -3.0658
 9010TIP3   OH248520   2.420   3.163   2.157 -0.3018 -0.0668  0.0960
 9010TIP3    H148521   2.361   3.210   2.216 -1.0012  0.5054 -1.0356
 9010TIP3    H248522   2.416   3.072   2.187 -2.0255 -0.0945 -0.1672
 9011TIP3   OH248523   1.335   3.926   3.444 -0.2144 -0.1442 -0.1117
 9011TIP3    H148524   1.327   3.896   3.534  1.3504 -1.0809 -0.2573
 9011TIP3    H248525   1.343   4.021   3.450 -0.1158 -0.2071  0.7434
 9012TIP3   OH248526   2.245   2.617  13.208  0.4908 -0.0692 -0.4481
 9012TIP3    H148527   2.175   2.669  13.246 -0.7739 -0.3227 -2.3789
 9012TIP3    H248528   2.319   2.678  13.199 -1.0121  1.4688 -2.8193
 9013TIP3   OH248529   2.585   0.385  16.481 -0.0780 -0.2467  0.0103
 9013TIP3    H148530   2.673   0.365  16.512  0.8778  1.3560 -1.5412
 9013TIP3    H248531   2.599   0.444  16.406 -2.4133 -1.0574 -1.1107
 9014TIP3   OH248532   0.932   6.258  11.779 -0.1806  0.1164 -0.2374
 9014TIP3    H148533   1.025   6.266  11.759 -0.7233  2.1169 -2.1536
 9014TIP3    H248534   0.903   6.181  11.729 -0.3968  1.9674 -3.0820
 9015TIP3   OH248535   1.836   1.552  15.920  0.5746 -0.6239 -0.4233
 9015TIP3    H148536   1.903   1.561  15.853  0.3266  1.3401 -0.4467
 9015TIP3    H248537   1.753   1.557  15.872  0.4031 -1.1061 -0.1837
 9016TIP3   OH248538   5.546   3.152  12.514 -0.0986  0.9453 -0.0505
 9016TIP3    H148539   5.508   3.068  12.487  1.4501  0.3417 -0.4184
 9016TIP3    H248540   5.608   3.173  12.445 -0.4307  2.3843  0.0779
 9017TIP3   OH248541   1.843   5.618  11.079 -0.3977 -0.3784 -0.3837
 9017TIP3    H148542   1.859   5.527  11.105 -0.4582 -0.7711 -1.6995
 9017TIP3    H248543   1.764   5.643  11.127 -1.1700 -1.4699 -1.0812
 9018TIP3   OH248544   2.421   0.823   3.157  0.5120 -0.4752  0.3350
 9018TIP3    H148545   2.455   0.880   3.088  1.5169 -0.4325  0.8520
 9018TIP3    H248546   2.476   0.841   3.233 -0.9145 -0.1509  1.3125
 9019TIP3   OH248547   2.996   0.179   3.407 -0.2424 -0.9537 -0.0212
 9019TIP3    H148548   3.083   0.150   3.379 -0.0582  0.3195 -0.8126
 9019TIP3    H248549   2.947   0.098   3.421  1.6135 -1.7481  2.2391
 9020TIP3   OH248550   3.730   5.943   5.133  0.6222 -0.0093 -0.6769
 9020TIP3    H148551   3.742   6.037   5.121 -0.0744  0.0667 -0.8088
 9020TIP3    H248552   3.715   5.909   5.045  2.1876 -0.4460 -0.7883
 9021TIP3   OH248553   1.700   0.512  14.709  0.1774 -0.2537 -0.4977
 9021TIP3    H148554   1.653   0.593  14.727  2.5081  0.8631  0.8654
 9021TIP3    H248555   1.709   0.470  14.795  1.5251 -0.4982 -0.7529
 9022TIP3   OH248556   2.058   1.649  11.030 -0.0934 -0.1568 -0.5010
 9022TIP3    H148557   1.988   1.714  11.038 -1.7175 -1.6771 -1.7426
 9022TIP3    H248558   2.118   1.686  10.966 -1.0999  0.0642 -1.3395
 9023TIP3   OH248559   2.064   0.456   3.910  0.2474 -0.0877  0.1047
 9023TIP3    H148560   2.138   0.516   3.918 -0.3276  0.8605 -1.4502
 9023TIP3    H248561   2.061   0.435   3.817 -1.9512  0.5315  0.0284
 9024TIP3   OH248562   0.687   1.165  13.858 -0.1451  0.5096  0.1319
 9024TIP3    H148563   0.604   1.138  13.898 -0.3052  1.1312  0.2135
 9024TIP3    H248564   0.669   1.250  13.819  0.7406  1.1528  1.0888
 9025TIP3   OH248565   3.016   0.562  15.680  0.6216 -0.5070 -0.3055
 9025TIP3    H148566   2.964   0.590  15.755  0.4760 -1.2441 -0.1238
 9025TIP3    H248567   2.970   0.484  15.647  1.6634 -1.2286 -0.0743
 9026TIP3   OH248568   3.464   5.791   4.388 -0.0222  0.8052 -0.5508
 9026TIP3    H148569   3.453   5.774   4.482 -1.1131  2.4712 -0.3602
 9026TIP3    H248570   3.425   5.715   4.346  0.3535  0.1044  0.3266
 9027TIP3   OH248571   6.560   5.788   1.685 -0.2007 -0.1314 -0.0197
 9027TIP3    H148572   6.558   5.694   1.703 -0.3787 -0.2795 -0.8005
 9027TIP3    H248573   6.539   5.829   1.769 -1.5811 -0.8230 -0.0199
 9028TIP3   OH248574   1.700   6.139   2.677  0.6227  0.3411  0.2027
 9028TIP3    H148575   1.787   6.110   2.650  0.7415 -0.3005  1.2826
 9028TIP3    H248576   1.666   6.185   2.600  2.5223  1.9774  0.3113
 9029TIP3   OH248577   4.315   0.871  16.517  0.0388  0.0929 -0.4176
 9029TIP3    H148578   4.399   0.913  16.498  1.3630 -2.6740 -0.8385
 9029TIP3    H248579   4.324   0.839  16.607 -1.0091  0.7591 -0.0611
 9030TIP3   OH248580   5.683   0.929   2.423  0.1555 -0.0826  0.1028
 9030TIP3    H148581   5.723   1.011   2.394 -0.9648  0.6012  0.4688
 9030TIP3    H248582   5.605   0.956   2.472 -0.6829 -1.3922 -0.4819
 9031TIP3   OH248583   0.424   6.067   4.611 -0.7939 -0.5810 -0.6704
 9031TIP3    H148584   0.518   6.085   4.621 -0.7678 -0.5238 -1.0181
 9031TIP3    H248585   0.382   6.147   4.642 -0.7070 -0.3443 -1.1561
 9032TIP3   OH248586   6.781   6.761   1.701  0.5344 -0.4753 -0.3649
 9032TIP3    H148587   6.815   6.715   1.624 -1.2022 -0.9771 -0.8577
 9032TIP3    H248588   6.765   6.850   1.670 -2.3013 -1.2276 -1.2849
 9033TIP3   OH248589   0.132   6.302  15.070  0.3428  0.7289 -0.2008
 9033TIP3    H148590   0.070   6.352  15.017 -1.9884 -1.4532  0.3679
 9033TIP3    H248591   0.120   6.335  15.159 -0.6441 -0.2709  0.0486
 9034TIP3   OH248592   5.596   2.293  12.379  0.4367  0.1727  0.5091
 9034TIP3    H148593   5.551   2.214  12.350 -0.2516  1.0892 -0.9771
 9034TIP3    H248594   5.674   2.298  12.322  0.4585  0.5692  0.5720
 9035TIP3   OH248595   2.625   1.339  11.592 -0.0712 -0.6105 -0.6993
 9035TIP3    H148596   2.550   1.398  11.582  0.3856 -0.0323 -0.7619
 9035TIP3    H248597   2.587   1.251  11.585 -0.7296 -0.3242 -0.8245
 9036TIP3   OH248598   6.375   4.766  12.184  0.3264 -0.6060 -0.0026
 9036TIP3    H148599   6.437   4.749  12.255  1.6939  0.7056 -0.8559
 9036TIP3    H248600   6.429   4.780  12.107 -0.8547  2.9190 -0.3103
 9037TIP3   OH248601   3.390   1.815  11.619  0.6278 -0.2817 -0.8566
 9037TIP3    H148602   3.404   1.750  11.688  1.0217 -0.9804 -1.5920
 9037TIP3    H248603   3.477   1.846  11.598  0.3670  1.1652  0.1276
 9038TIP3   OH248604   1.916   5.310  14.134  0.0839  0.1514  0.0101
 9038TIP3    H148605   1.923   5.235  14.193  1.5160 -0.2397 -0.6488
 9038TIP3    H248606   1.982   5.295  14.067 -2.2403  0.0320 -2.3580
 9039TIP3   OH248607   0.832   6.473   1.227 -0.5424  0.1759 -0.1518
 9039TIP3    H148608   0.888   6.539   1.267  0.8506 -1.2088  0.2100
 9039TIP3    H248609   0.865   6.464   1.138  0.3132 -1.1555  0.2761
 9040TIP3   OH248610   3.807   1.300  13.850  0.0724 -0.0380  0.0194
 9040TIP3    H148611   3.851   1.355  13.915  0.6843 -0.5991  0.0862
 9040TIP3    H248612   3.800   1.355  13.772 -1.5190  0.9690  0.8471
 9041TIP3   OH248613   0.187   1.908  12.839 -0.4842 -0.1543 -0.0801
 9041TIP3    H148614   0.145   1.926  12.756 -1.2047  1.4635  0.6286
 9041TIP3    H248615   0.247   1.981  12.853  0.5035 -1.0086  0.2643
 9042TIP3   OH248616   0.207   1.705   4.770  0.3744 -0.0822  0.4330
 9042TIP3    H148617   0.128   1.651   4.768 -0.0374  0.4875  0.9156
 9042TIP3    H248618   0.278   1.645   4.749 -0.3468 -0.3093 -1.4763
 9043TIP3   OH248619   2.384   1.838  13.913  0.2578 -0.0292  0.5512
 9043TIP3    H148620   2.307   1.891  13.891  0.8882  0.3113 -0.8466
 9043TIP3    H248621   2.356   1.748  13.897 -1.3222 -0.3289  4.3836
 9044TIP3   OH248622   5.959   3.564   0.407 -0.0971  0.0630  0.3511
 9044TIP3    H148623   6.027   3.607   0.458  0.0642  0.6582 -0.3533
 9044TIP3    H248624   5.890   3.630   0.399  0.1809  0.2393 -0.7926
 9045TIP3   OH248625   3.460   5.704   3.546 -0.1342 -0.1386 -0.4692
 9045TIP3    H148626   3.536   5.762   3.554 -0.1437 -0.2588  0.6182
 9045TIP3    H248627   3.467   5.667   3.459  1.2797 -0.4443 -0.2330
 9046TIP3   OH248628   4.312   5.343  14.699  0.2601 -0.2262 -0.5186
 9046TIP3    H148629   4.257   5.276  14.739  0.3862  0.8569  1.5667
 9046TIP3    H248630   4.281   5.350  14.609 -1.5009 -1.2055 -0.0097
 9047TIP3   OH248631   4.237   1.182   3.615  0.3417  0.3259  0.0626
 9047TIP3    H148632   4.277   1.266   3.641 -0.1137  1.5610 -3.0204
 9047TIP3    H248633   4.145   1.190   3.642  0.1723  1.0607 -0.7028
 9048TIP3   OH248634   5.278   2.989  11.979 -0.2329 -0.2692 -0.5656
 9048TIP3    H148635   5.236   2.980  11.893  0.0385 -1.0156 -0.6221
 9048TIP3    H248636   5.231   2.928  12.035  0.8602 -1.2166 -0.6618
 9049TIP3   OH248637   4.463   6.605   5.652  1.1170  1.1500  0.1538
 9049TIP3    H148638   4.406   6.615   5.729  0.8064  1.3951 -0.1088
 9049TIP3    H248639   4.494   6.514   5.657 -0.5592  0.5242 -0.5799
 9050TIP3   OH248640   4.763   1.922   1.766 -0.0873 -0.2779  0.1144
 9050TIP3    H148641   4.762   1.909   1.671  0.2859  0.0452  0.0678
 9050TIP3    H248642   4.840   1.873   1.795  0.3973  0.4860  0.1287
 9051TIP3   OH248643   4.719   0.178   5.657  0.1784 -0.6785 -0.2380
 9051TIP3    H148644   4.731   0.237   5.582 -2.3774 -0.6612 -0.6989
 9051TIP3    H248645   4.806   0.141   5.673  0.7753 -0.7342 -3.2853
 9052TIP3   OH248646   2.162   1.900  16.497  0.2330  0.6805  0.2664
 9052TIP3    H148647   2.149   1.868  16.587 -0.4735 -0.0092 -0.0724
 9052TIP3    H248648   2.256   1.915  16.491  0.1926  1.4965  1.3805
 9053TIP3   OH248649   5.831   1.098   1.798 -0.0721  0.0162  0.1463
 9053TIP3    H148650   5.919   1.129   1.778  1.4110 -1.4710  3.8668
 9053TIP3    H248651   5.837   1.003   1.789 -1.0636 -0.1628  1.2788
 9054TIP3   OH248652   5.808   0.377  13.089  0.3409  0.5429 -0.1987
 9054TIP3    H148653   5.871   0.399  13.157 -0.5952 -0.4724  1.0265
 9054TIP3    H248654   5.785   0.462  13.049  2.4338  0.9195 -0.6609
 9055TIP3   OH248655   2.399   2.918  13.729  0.2064  0.3540 -0.1448
 9055TIP3    H148656   2.469   2.936  13.666  1.4426 -2.0316  0.4853
 9055TIP3    H248657   2.329   2.978  13.704  0.7910 -0.2652 -3.5637
 9056TIP3   OH248658   3.059   2.517   5.592  0.7862 -0.2340  0.0473
 9056TIP3    H148659   3.136   2.465   5.617  0.9668  1.0687  2.2964
 9056TIP3    H248660   2.987   2.480   5.643 -0.0203 -1.1140 -1.6733
 9057TIP3   OH248661   1.459   4.830   3.055 -0.0017  0.7845  0.4309
 9057TIP3    H148662   1.444   4.915   3.013  0.9106 -0.3633 -2.3793
 9057TIP3    H248663   1.476   4.770   2.982  0.4049 -1.6051  2.4132
 9058TIP3   OH248664   3.877   3.428  14.508  0.2175  0.4441  0.2672
 9058TIP3    H148665   3.864   3.334  14.495  0.9853  0.4370 -0.4569
 9058TIP3    H248666   3.800   3.456  14.557 -0.6240 -0.3446 -0.5748
 9059TIP3   OH248667   2.379   2.401  11.982  0.4025  0.4751 -0.3195
 9059TIP3    H148668   2.464   2.380  12.021  0.3106  0.1694 -0.2821
 9059TIP3    H248669   2.401   2.447  11.901  0.5974  0.8747 -0.0418
 9060TIP3   OH248670   6.166   3.882   2.425 -0.3893  0.4283 -0.3465
 9060TIP3    H148671   6.171   3.789   2.403 -1.1445 -0.3416  2.5916
 9060TIP3    H248672   6.212   3.890   2.508 -2.5003  2.2532  0.6873
 9061TIP3   OH248673   4.562   2.812  15.600 -0.8899  0.1257 -0.0954
 9061TIP3    H148674   4.575   2.884  15.662 -0.2191  0.4067 -0.5587
 9061TIP3    H248675   4.595   2.735  15.646 -2.9277 -0.1473  0.9547
 9062TIP3   OH248676   3.046   5.522  15.808  0.4595  0.3472  0.1341
 9062TIP3    H148677   3.061   5.428  15.799 -0.1496  0.2514  0.1592
 9062TIP3    H248678   3.134   5.560  15.803  0.5901 -0.0953 -1.4624
 9063TIP3   OH248679   3.973   1.759   4.124 -0.1159 -0.1506 -0.0739
 9063TIP3    H148680   3.980   1.814   4.202  1.4853  1.0205 -1.0186
 9063TIP3    H248681   3.893   1.708   4.138 -1.0296  1.5998  1.3302
 9064TIP3   OH248682   1.102   4.776  12.763 -0.3255  0.1291 -0.0311
 9064TIP3    H148683   1.132   4.858  12.801  1.0323 -0.7808  0.9166
 9064TIP3    H248684   1.143   4.773  12.676  0.8135 -0.2303  0.5174
 9065TIP3   OH248685   6.177   3.544  13.341  0.6221 -0.0885 -0.4766
 9065TIP3    H148686   6.146   3.594  13.417  0.7626 -0.8086  0.0592
 9065TIP3    H248687   6.098   3.502  13.307  0.2439  1.6135 -1.7952
 9066TIP3   OH248688   0.335   1.156  14.601 -0.1106  0.2427  0.1869
 9066TIP3    H148689   0.402   1.114  14.547 -1.3000 -1.0850 -0.2664
 9066TIP3    H248690   0.302   1.228  14.547 -0.9384 -0.7695 -0.6780
 9067TIP3   OH248691   2.235   4.492  14.388 -0.0579 -0.3246  0.9203
 9067TIP3    H148692   2.155   4.506  14.336  0.0525  2.4127  1.4098
 9067TIP3    H248693   2.284   4.426  14.338 -1.2690  0.1191 -0.9273
 9068TIP3   OH248694   3.101   6.017  15.145  0.1295  0.0745  0.4748
 9068TIP3    H148695   3.105   5.956  15.219 -0.6453  0.1919  0.6104
 9068TIP3    H248696   3.036   5.979  15.086 -0.0299  0.5377  0.3535
 9069TIP3   OH248697   2.185   1.463   2.071  0.4308  0.1732 -0.5253
 9069TIP3    H148698   2.211   1.371   2.078 -0.1313  0.1164  1.2437
 9069TIP3    H248699   2.185   1.495   2.162 -0.0801  1.7129 -1.0447
 9070TIP3   OH248700   3.998   0.251  13.106 -0.1035 -0.3659 -0.2710
 9070TIP3    H148701   3.943   0.183  13.068 -1.1936  0.1245  0.4004
 9070TIP3    H248702   4.039   0.294  13.031 -0.6388 -0.7328 -0.7746
 9071TIP3   OH248703   6.100   0.764   3.396  0.4621  0.3143 -0.2684
 9071TIP3    H148704   6.157   0.812   3.456  0.1244 -2.3839  2.3570
 9071TIP3    H248705   6.158   0.707   3.346  0.3887 -0.2798  0.3106
 9072TIP3   OH248706   0.226   5.520  16.293 -0.4622  0.0166 -1.0140
 9072TIP3    H148707   0.189   5.608  16.281 -0.3697 -0.0956 -2.1183
 9072TIP3    H248708   0.165   5.477  16.354 -1.0455  0.5128 -1.2482
 9073TIP3   OH248709   2.186   3.467  11.160  0.1064 -1.0327 -0.2797
 9073TIP3    H148710   2.096   3.437  11.142 -0.1653 -0.1349 -0.4451
 9073TIP3    H248711   2.208   3.521  11.084 -0.4553  1.5084  1.3088
 9074TIP3   OH248712   4.755   1.155  10.572 -0.3542 -0.1252  0.5508
 9074TIP3    H148713   4.724   1.076  10.617 -0.4359 -0.4792 -0.1164
 9074TIP3    H248714   4.779   1.124  10.484  0.7118  0.3751  0.6611
 9075TIP3   OH248715   1.217   1.960  13.931 -0.5233  0.8698  0.6938
 9075TIP3    H148716   1.310   1.974  13.917 -0.6525  2.9820  1.7444
 9075TIP3    H248717   1.208   1.953  14.026 -1.5229  1.3597  0.6425
 9076TIP3   OH248718   1.674   3.948  14.117  0.4282 -0.3739 -0.4259
 9076TIP3    H148719   1.617   3.911  14.048 -1.5166  0.6363  0.6022
 9076TIP3    H248720   1.705   3.871  14.165  1.2811 -1.0518 -1.9940
 9077TIP3   OH248721   4.613   1.160   3.778 -0.0370 -0.1391  0.7021
 9077TIP3    H148722   4.598   1.252   3.758  1.3778  0.1594  0.9702
 9077TIP3    H248723   4.551   1.113   3.723 -1.2926  0.9973  1.1116
 9078TIP3   OH248724   1.226   3.763   4.339  0.0986 -0.1383 -0.5232
 9078TIP3    H148725   1.264   3.679   4.364 -0.1917 -0.8912 -2.5460
 9078TIP3    H248726   1.168   3.743   4.266  0.2303  1.8570 -1.2185
 9079TIP3   OH248727   1.623   2.194   1.831  0.0304  0.1711  0.6059
 9079TIP3    H148728   1.555   2.153   1.885  0.9733 -1.9153  0.2927
 9079TIP3    H248729   1.682   2.121   1.809  0.3617  1.2081 -2.1385
 9080TIP3   OH248730   2.077   2.401   2.668  0.3366  0.3367 -0.4206
 9080TIP3    H148731   2.083   2.318   2.716 -0.6808 -0.0890 -1.0146
 9080TIP3    H248732   2.161   2.409   2.623  0.8381  0.1458  0.4723
 9081TIP3   OH248733   0.287   6.658  13.301 -0.8667  0.0323 -0.2273
 9081TIP3    H148734   0.269   6.593  13.369 -2.4092 -0.2838 -0.9180
 9081TIP3    H248735   0.362   6.623  13.254 -3.1122 -2.5114 -2.1166
 9082TIP3   OH248736   5.123   1.180   4.040  0.0081  0.2459 -0.0459
 9082TIP3    H148737   5.111   1.224   3.956  0.7842  1.6847  0.5891
 9082TIP3    H248738   5.217   1.164   4.046  0.0370  0.7633  0.8658
 9083TIP3   OH248739   6.247   2.745   5.684 -0.1235  0.0234 -0.2107
 9083TIP3    H148740   6.334   2.783   5.677 -0.3547  0.3487 -1.4692
 9083TIP3    H248741   6.245   2.676   5.618 -0.9099  0.1957 -0.3734
 9084TIP3   OH248742   1.790   4.287   5.043 -0.8955  0.1473 -0.3158
 9084TIP3    H148743   1.748   4.207   5.073 -1.0998  0.4725  0.2752
 9084TIP3    H248744   1.789   4.280   4.948  2.2201 -2.1730 -0.2556
 9085TIP3   OH248745   3.035   2.474   2.558 -0.1141  0.4637  0.1000
 9085TIP3    H148746   2.981   2.444   2.632  2.0359  0.0522  1.5446
 9085TIP3    H248747   2.989   2.443   2.480 -2.2625  0.6337  1.2734
 9086TIP3   OH248748   0.786   1.566   1.045 -0.2736  0.4769 -0.4322
 9086TIP3    H148749   0.782   1.647   0.994 -0.3847 -0.0757 -1.3069
 9086TIP3    H248750   0.746   1.500   0.989 -2.4202  0.2907  1.2242
 9087TIP3   OH248751   0.296   4.043   1.023  0.1614  0.0618  0.6255
 9087TIP3    H148752   0.203   4.068   1.019  1.0254  3.4277 -0.4557
 9087TIP3    H248753   0.325   4.072   1.109 -0.2141 -2.8763  1.8053
 9088TIP3   OH248754   1.129   5.655   7.055 -0.2315  0.2461  0.0992
 9088TIP3    H148755   1.052   5.599   7.066  0.3517 -0.6570 -0.3595
 9088TIP3    H248756   1.202   5.594   7.049  0.3592  1.0306 -0.9042
 9089TIP3   OH248757   5.819   4.864   3.772  0.4393 -0.3502 -0.1738
 9089TIP3    H148758   5.882   4.796   3.796 -1.2508 -1.3292  1.6029
 9089TIP3    H248759   5.755   4.864   3.842  0.0377  2.6754 -0.4598
 9090TIP3   OH248760   0.326   2.462  16.283 -0.0910 -0.0255 -0.6623
 9090TIP3    H148761   0.360   2.513  16.357 -1.4557 -1.9037  1.3581
 9090TIP3    H248762   0.398   2.405  16.258  0.2108  0.2457 -0.4181
 9091TIP3   OH248763   0.797   2.299  13.784 -0.5482 -0.4800 -0.8907
 9091TIP3    H148764   0.819   2.231  13.847 -1.4724  0.8639  0.9430
 9091TIP3    H248765   0.880   2.322  13.742  0.3157 -0.4141  0.8420
 9092TIP3   OH248766   2.256   2.325  11.135  0.7500  0.0347 -0.1623
 9092TIP3    H148767   2.278   2.417  11.119 -0.5548  0.5373  0.8272
 9092TIP3    H248768   2.312   2.276  11.075  2.5683  1.3965  0.3774
 9093TIP3   OH248769   1.532   5.529   3.924 -0.2223  0.1028 -0.2082
 9093TIP3    H148770   1.562   5.438   3.928  0.5151  0.3454 -0.2201
 9093TIP3    H248771   1.475   5.538   4.001 -0.4030 -0.4025 -0.2792
 9094TIP3   OH248772   4.698   1.495  13.567 -0.1162  0.0444 -0.7956
 9094TIP3    H148773   4.650   1.420  13.602  1.6942 -0.1443  1.3860
 9094TIP3    H248774   4.749   1.527  13.641  2.6386  0.6240 -2.8770
 9095TIP3   OH248775   5.308   6.033   0.897  0.0317 -0.0309 -0.0140
 9095TIP3    H148776   5.399   6.061   0.898 -0.2956  1.0542  1.2126
 9095TIP3    H248777   5.272   6.065   0.980 -1.2986 -1.0017 -0.1981
 9096TIP3   OH248778   4.151   4.908  13.747 -0.5807 -0.2817 -0.3417
 9096TIP3    H148779   4.237   4.937  13.715 -0.2853 -0.9822 -0.2078
 9096TIP3    H248780   4.121   4.978  13.803 -0.2414  0.1193 -0.6553
 9097TIP3   OH248781   0.212   5.167   4.951 -0.3663  0.2694  0.6822
 9097TIP3    H148782   0.166   5.228   5.009 -0.2206  0.2425  0.8284
 9097TIP3    H248783   0.145   5.106   4.922 -1.1891  2.3480 -1.9907
 9098TIP3   OH248784   0.846   3.982  14.286 -0.0027  0.1814  0.2759
 9098TIP3    H148785   0.784   3.926  14.333 -0.4406  0.3010 -0.1595
 9098TIP3    H248786   0.932   3.946  14.308 -0.1850  0.3847  1.3706
 9099TIP3   OH248787   4.376   4.283  12.311  0.7306  0.5773 -0.9228
 9099TIP3    H148788   4.332   4.356  12.267  1.2307  1.8781  0.6784
 9099TIP3    H248789   4.463   4.279  12.271 -0.1875 -0.8544 -2.8493
 9100TIP3   OH248790   1.009   0.313  12.011 -0.1147  0.1105  0.5220
 9100TIP3    H148791   1.087   0.287  11.963  1.3533  2.1963  1.6788
 9100TIP3    H248792   0.991   0.402  11.980 -1.6497 -0.1132  0.7317
 9101TIP3   OH248793   6.779   4.809   0.245 -0.6435 -0.2661 -0.3858
 9101TIP3    H148794   6.864   4.811   0.201 -0.5835  0.3294 -0.2523
 9101TIP3    H248795   6.792   4.862   0.324 -0.8581 -0.9982  0.1427
 9102TIP3   OH248796   4.281   4.820  14.040  0.0480 -0.5009  0.0148
 9102TIP3    H148797   4.344   4.891  14.052 -0.3461 -0.4421  1.8742
 9102TIP3    H248798   4.196   4.861  14.054 -0.2766 -1.0352 -0.3786
 9103TIP3   OH248799   5.216   0.222   4.411  0.4998  0.2714  0.0522
 9103TIP3    H148800   5.144   0.190   4.356  0.5628  1.2325 -0.6063
 9103TIP3    H248801   5.215   0.317   4.398  1.1394  0.4093  0.9627
 9104TIP3   OH248802   1.815   2.401  14.228 -0.4619  0.4131  0.0772
 9104TIP3    H148803   1.754   2.434  14.163 -0.0860 -3.4755 -2.4191
 9104TIP3    H248804   1.893   2.455  14.218 -0.4781 -0.0300 -2.6446
 9105TIP3   OH248805   1.260   1.502   0.579  0.1280 -0.3788  0.5864
 9105TIP3    H148806   1.222   1.509   0.667 -2.5758 -0.9298 -0.4923
 9105TIP3    H248807   1.219   1.573   0.529  1.2570 -0.3826 -0.3645
 9106TIP3   OH248808   6.356   6.109   6.604 -0.2249  0.0990 -0.5005
 9106TIP3    H148809   6.363   6.025   6.649 -1.5841  0.2182 -0.0482
 9106TIP3    H248810   6.382   6.091   6.514  0.8209 -0.5131 -0.0771
 9107TIP3   OH248811   6.154   2.336  17.225  0.4006  0.1740  0.1678
 9107TIP3    H148812   6.092   2.286  17.172  0.2826  1.2082 -0.6864
 9107TIP3    H248813   6.219   2.272  17.253  0.1426 -0.4909 -0.7324
 9108TIP3   OH248814   6.265   5.518   3.433 -0.2361 -0.1716  0.3163
 9108TIP3    H148815   6.286   5.586   3.496 -1.1463  0.0539  0.3861
 9108TIP3    H248816   6.280   5.558   3.348 -2.7127  0.8151  0.2943
 9109TIP3   OH248817   4.319   6.472   3.704  0.4105  0.2651  0.9555
 9109TIP3    H148818   4.237   6.474   3.753 -0.4108  1.9226 -0.4052
 9109TIP3    H248819   4.374   6.410   3.751 -1.8080 -1.2871  1.5805
 9110TIP3   OH248820   2.612   5.088  11.843  0.3342 -0.1065 -0.1198
 9110TIP3    H148821   2.603   5.168  11.895 -0.4724  1.2875 -2.2996
 9110TIP3    H248822   2.689   5.104  11.788  0.6445 -1.1663 -0.0040
 9111TIP3   OH248823   1.167   2.155   4.323 -0.1884 -0.6535  0.4873
 9111TIP3    H148824   1.203   2.208   4.252  0.5415 -1.2618  0.4083
 9111TIP3    H248825   1.093   2.109   4.283 -1.6166  1.2112  0.8521
 9112TIP3   OH248826   3.954   1.262   5.934 -0.3261 -0.1832 -0.0451
 9112TIP3    H148827   4.019   1.331   5.918 -1.5802  0.7706 -1.1260
 9112TIP3    H248828   3.885   1.278   5.870 -0.5770 -2.5609 -0.4219
 9113TIP3   OH248829   3.779   5.910  15.695  0.1785  0.4032 -0.1075
 9113TIP3    H148830   3.854   5.853  15.677 -0.1040  0.2697 -0.8644
 9113TIP3    H248831   3.706   5.868  15.650  0.2191  2.0093 -1.7060
 9114TIP3   OH248832   1.890   4.119   2.488  0.1988 -0.0129  0.6463
 9114TIP3    H148833   1.833   4.093   2.561  1.5890 -0.9713  1.4184
 9114TIP3    H248834   1.830   4.130   2.414 -1.2947  1.3858  2.0177
 9115TIP3   OH248835   6.355   1.742  17.013 -0.0913 -0.1015  0.3548
 9115TIP3    H148836   6.304   1.791  17.076  0.4470  0.2133  0.5510
 9115TIP3    H248837   6.446   1.761  17.036  0.1101 -0.6568  0.0167
 9116TIP3   OH248838   4.971   1.938   5.835 -0.5664  0.2426 -0.0097
 9116TIP3    H148839   4.883   1.932   5.872 -0.4408  1.1273  0.4488
 9116TIP3    H248840   5.028   1.904   5.903 -0.4753  0.4561  0.0207
 9117TIP3   OH248841   5.185   5.599   5.051 -0.3611  0.1902  0.0490
 9117TIP3    H148842   5.265   5.545   5.052 -1.1007 -0.9522 -0.7425
 9117TIP3    H248843   5.169   5.619   5.143  0.4438 -0.1670  0.2757
 9118TIP3   OH248844   2.150   3.003  11.597 -0.2348  0.0860  0.3902
 9118TIP3    H148845   2.130   2.911  11.577  0.6441 -0.6869  2.8378
 9118TIP3    H248846   2.240   3.015  11.568 -0.7321  0.5376 -1.0098
 9119TIP3   OH248847   5.953   5.336  12.985 -0.6778 -0.4855  0.6134
 9119TIP3    H148848   5.872   5.377  12.952 -1.0692 -0.9974  0.9245
 9119TIP3    H248849   6.009   5.409  13.009 -0.6942 -0.1077 -0.4569
 9120TIP3   OH248850   1.315   1.232   2.759  0.0043  0.2308 -0.8334
 9120TIP3    H148851   1.238   1.284   2.783 -0.9090 -1.4172 -0.1605
 9120TIP3    H248852   1.380   1.298   2.732 -1.6049  1.6323 -1.3811
 9121TIP3   OH248853   3.122   1.021   3.234 -0.6713  0.0762 -1.1043
 9121TIP3    H148854   3.056   1.035   3.165  1.9222  0.4595 -3.5999
 9121TIP3    H248855   3.152   0.931   3.219 -3.6740 -1.7313  2.8351
 9122TIP3   OH248856   5.195   2.474   3.232  0.1002  0.2211  0.0706
 9122TIP3    H148857   5.173   2.399   3.176 -3.0098  2.3448 -1.7502
 9122TIP3    H248858   5.276   2.509   3.195  1.2380 -1.8209  0.5489
 9123TIP3   OH248859   3.228   3.569   3.428  0.8430  0.4932 -0.0938
 9123TIP3    H148860   3.147   3.518   3.432  0.9703  0.0818 -2.2046
 9123TIP3    H248861   3.295   3.510   3.461  0.6654 -0.0313 -0.6578
 9124TIP3   OH248862   0.986   6.126  16.156  0.0505  0.8550  0.1931
 9124TIP3    H148863   1.065   6.129  16.102  0.6598  0.8500  1.0649
 9124TIP3    H248864   1.001   6.192  16.224 -0.3254  0.2629  0.8574
 9125TIP3   OH248865   1.525   2.190  11.707 -0.1299  1.3697  0.1059
 9125TIP3    H148866   1.505   2.268  11.758 -3.3048  1.3033 -0.9467
 9125TIP3    H248867   1.452   2.180  11.647  0.3012 -2.2731  0.0352
 9126TIP3   OH248868   3.375   5.089   6.562 -0.1623 -0.3592  0.6918
 9126TIP3    H148869   3.324   5.031   6.618 -3.6333  0.1125 -1.7670
 9126TIP3    H248870   3.326   5.172   6.563  2.7026  1.3727  1.2737
 9127TIP3   OH248871   1.051   1.826  16.489  0.2147  0.0230 -0.2326
 9127TIP3    H148872   0.968   1.872  16.501  0.3023  0.4321 -1.2248
 9127TIP3    H248873   1.113   1.873  16.545  0.1759  0.7597 -0.8162
 9128TIP3   OH248874   2.565   5.007   4.303  0.0198 -0.2832 -0.1638
 9128TIP3    H148875   2.490   5.054   4.340  0.6231  0.3826  0.2111
 9128TIP3    H248876   2.636   5.070   4.304  0.8266 -1.1856  0.2854
 9129TIP3   OH248877   1.975   6.426   5.825  0.1088  0.0331 -0.3921
 9129TIP3    H148878   1.906   6.361   5.834  0.2943 -0.2918 -1.2327
 9129TIP3    H248879   1.953   6.494   5.888 -0.2505 -0.6986  0.2828
 9130TIP3   OH248880   0.159   5.981  13.499 -0.5991 -0.4015  0.1088
 9130TIP3    H148881   0.187   5.891  13.516 -1.2156 -0.6279 -0.0763
 9130TIP3    H248882   0.188   5.998  13.409 -0.1179 -0.2690  0.2839
 9131TIP3   OH248883   3.770   0.377  11.270 -0.7469  0.1138  0.0516
 9131TIP3    H148884   3.751   0.364  11.178 -0.8972  0.9397 -0.0402
 9131TIP3    H248885   3.788   0.471  11.278  1.0236 -0.2354  0.5403
 9132TIP3   OH248886   1.975   4.000   2.865  0.1336  0.1362 -0.1876
 9132TIP3    H148887   1.943   4.083   2.901  2.1989  0.9457 -0.1725
 9132TIP3    H248888   2.010   3.953   2.941 -0.8691 -0.6886 -0.2240
 9133TIP3   OH248889   4.460   4.651   5.005 -0.5881  0.4805  0.3979
 9133TIP3    H148890   4.371   4.680   4.987 -0.3221  0.4561 -1.0359
 9133TIP3    H248891   4.458   4.623   5.096 -1.8404  1.2376  0.6192
 9134TIP3   OH248892   4.742   3.712   3.252 -0.1666 -0.0387 -0.2883
 9134TIP3    H148893   4.775   3.780   3.311 -0.3987 -1.3390  1.3800
 9134TIP3    H248894   4.780   3.734   3.167  1.2976  1.0955  0.6290
 9135TIP3   OH248895   2.596   4.769  13.402  0.0528 -0.0740 -0.7788
 9135TIP3    H148896   2.613   4.861  13.382 -0.0578  0.2084  0.3739
 9135TIP3    H248897   2.677   4.724  13.377 -0.0261  0.2725 -1.6940
 9136TIP3   OH248898   0.192   5.058  14.956  0.5717  0.1863 -0.3840
 9136TIP3    H148899   0.176   5.074  15.049 -0.6129  1.2153 -0.7449
 9136TIP3    H248900   0.281   5.089  14.941  1.6356 -2.0796  0.8616
 9137TIP3   OH248901   2.070   2.553  11.792  0.1162  0.4608  0.7012
 9137TIP3    H148902   2.122   2.596  11.861 -0.7967 -1.1826  2.4489
 9137TIP3    H248903   1.982   2.549  11.829 -0.2991 -0.7772 -0.4337
 9138TIP3   OH248904   4.036   5.295   1.639  0.2047  0.3296  0.7660
 9138TIP3    H148905   3.960   5.238   1.627 -0.0190  0.5619  1.0473
 9138TIP3    H248906   4.086   5.286   1.558  0.5880 -0.8767  1.1271
 9139TIP3   OH248907   5.500   3.286   5.396 -0.2066  0.1965 -0.2727
 9139TIP3    H148908   5.434   3.263   5.462  1.1170  1.0372  1.3687
 9139TIP3    H248909   5.543   3.203   5.376 -0.1956  0.0432  0.3748
 9140TIP3   OH248910   2.343   6.735  14.500  0.4476 -0.0067 -0.1471
 9140TIP3    H148911   2.371   6.794  14.430 -0.4146 -0.8868 -1.2582
 9140TIP3    H248912   2.249   6.752  14.509  0.5869  0.2258  0.9239
 9141TIP3   OH248913   4.876   2.171   1.968  0.3479  0.2603 -0.5651
 9141TIP3    H148914   4.804   2.108   1.958 -0.4571  1.3565 -1.7346
 9141TIP3    H248915   4.833   2.252   1.995  1.3027  0.5551  0.0760
 9142TIP3   OH248916   4.042   2.100  15.716 -0.1815  0.2951 -0.1013
 9142TIP3    H148917   4.088   2.136  15.640 -1.3003  1.7363 -0.1386
 9142TIP3    H248918   4.103   2.110  15.789  1.0494 -1.4564 -0.8678
 9143TIP3   OH248919   6.089   3.436  12.269 -0.0505  0.1958  0.0639
 9143TIP3    H148920   6.148   3.490  12.217 -1.2096  0.6980 -0.7471
 9143TIP3    H248921   6.002   3.460  12.239 -0.6904 -0.3148  1.4683
 9144TIP3   OH248922   4.230   5.893  16.625 -0.0205  0.2847  0.1811
 9144TIP3    H148923   4.211   5.824  16.688  1.2916  0.3787  0.6997
 9144TIP3    H248924   4.247   5.847  16.543 -0.1727  0.0563  0.2808
 9145TIP3   OH248925   3.809   5.568   4.356  0.0802 -0.1240  0.1867
 9145TIP3    H148926   3.739   5.517   4.316 -1.0912  0.8669  0.9422
 9145TIP3    H248927   3.886   5.511   4.350 -0.0726 -0.0426 -3.3410
 9146TIP3   OH248928   5.123   6.013  16.746 -0.3624 -0.1144  0.3394
 9146TIP3    H148929   5.064   5.937  16.755 -1.3991  0.7441  0.8814
 9146TIP3    H248930   5.066   6.082  16.712  0.4983  0.5440  0.2448
 9147TIP3   OH248931   5.775   3.280   2.170 -0.1174 -0.1314  0.0863
 9147TIP3    H148932   5.682   3.302   2.158  0.0221 -0.3828 -1.6328
 9147TIP3    H248933   5.784   3.265   2.264 -1.4704  1.4648  0.5014
 9148TIP3   OH248934   4.130   3.091  11.987  0.3002 -0.3364 -0.2306
 9148TIP3    H148935   4.076   3.096  12.065  3.6542  0.0910  2.1389
 9148TIP3    H248936   4.208   3.141  12.008  1.5826 -0.7858 -3.6262
 9149TIP3   OH248937   0.316   3.344  13.031 -0.3280 -0.1248  0.7529
 9149TIP3    H148938   0.375   3.411  12.998 -0.9694 -0.3285 -0.8692
 9149TIP3    H248939   0.372   3.284  13.080  0.3331  1.2733  1.7387
 9150TIP3   OH248940   2.691   4.796  15.353 -0.3079  0.2190  0.3361
 9150TIP3    H148941   2.661   4.863  15.291 -2.0279  1.2382  2.1864
 9150TIP3    H248942   2.786   4.804  15.352 -0.4566  2.4890  0.2336
 9151TIP3   OH248943   2.298   0.089  13.796  0.5925 -0.2657  0.0963
 9151TIP3    H148944   2.233   0.140  13.746  0.0708 -1.5175 -0.5279
 9151TIP3    H248945   2.248   0.014  13.829  1.8209 -1.4570 -0.7282
 9152TIP3   OH248946   5.019   3.726  10.517  0.1127  0.2882  0.2327
 9152TIP3    H148947   4.924   3.741  10.519  0.0545 -0.2192  2.0039
 9152TIP3    H248948   5.032   3.663  10.446 -0.7849  0.9542 -0.5316
 9153TIP3   OH248949   3.406   5.384   0.091 -0.2384  0.7924  0.2495
 9153TIP3    H148950   3.396   5.428   0.175 -2.1901  0.0853  0.4126
 9153TIP3    H248951   3.316   5.376   0.057  0.3621 -0.4762 -1.1015
 9154TIP3   OH248952   3.933   3.295  15.419 -0.2216 -0.0962 -0.1190
 9154TIP3    H148953   3.983   3.365  15.461 -3.1934  0.7245  2.2919
 9154TIP3    H248954   3.982   3.215  15.439  0.8959  0.8303  0.9273
 9155TIP3   OH248955   2.147   1.455  11.217  0.3721 -0.3687 -0.1011
 9155TIP3    H148956   2.187   1.494  11.295  1.5930 -0.5801 -0.5985
 9155TIP3    H248957   2.111   1.530  11.168  2.8526  0.2141 -1.1348
 9156TIP3   OH248958   6.598   1.965  15.856  0.5617 -0.1382 -0.8627
 9156TIP3    H148959   6.550   1.883  15.863 -0.6285  0.4716 -1.6497
 9156TIP3    H248960   6.674   1.954  15.913 -1.3946 -0.5053  1.7830
 9157TIP3   OH248961   6.211   0.029   4.890 -0.2993 -0.5058  0.5401
 9157TIP3    H148962   6.229  -0.059   4.857 -0.2205 -1.0185  1.9127
 9157TIP3    H248963   6.117   0.029   4.909  0.3837 -1.6223  4.2779
 9158TIP3   OH248964   5.920   1.233  12.855  0.1428  0.5570  0.3757
 9158TIP3    H148965   5.982   1.293  12.812 -0.1810  0.6134 -0.0085
 9158TIP3    H248966   5.836   1.277  12.849 -0.3997 -0.6824 -1.3910
 9159TIP3   OH248967   3.671   6.451  16.265  0.4772  0.1500  0.1244
 9159TIP3    H148968   3.658   6.358  16.250  0.0376  0.3134 -0.5197
 9159TIP3    H248969   3.596   6.493  16.223  2.5642  1.0591 -2.7883
 9160TIP3   OH248970   4.952   4.153   3.122 -1.1062  0.4507  0.0189
 9160TIP3    H148971   5.022   4.182   3.181  0.6310 -0.4935 -1.5294
 9160TIP3    H248972   4.916   4.234   3.086  1.0701  0.8599 -1.2867
 9161TIP3   OH248973   2.932   3.813  17.066  0.2931  0.2858 -0.0064
 9161TIP3    H148974   3.008   3.767  17.100  0.4434  0.2426 -0.3922
 9161TIP3    H248975   2.858   3.778  17.116  0.7331  1.6038  1.5753
 9162TIP3   OH248976   6.644   1.650  13.359  0.2020  0.4844  0.2035
 9162TIP3    H148977   6.568   1.634  13.304  0.2944 -1.2590  0.5487
 9162TIP3    H248978   6.608   1.688  13.439 -0.1401  1.0861 -0.2309
 9163TIP3   OH248979   2.786   0.944  14.401 -0.2987 -1.1002  0.6298
 9163TIP3    H148980   2.859   0.929  14.342 -0.2506 -0.1447  0.4337
 9163TIP3    H248981   2.793   0.874  14.466  1.3160 -0.5056  1.1197
 9164TIP3   OH248982   0.249   2.437  12.597  0.0896  0.6031 -0.2928
 9164TIP3    H148983   0.290   2.352  12.618 -1.2147 -0.0808 -0.4640
 9164TIP3    H248984   0.297   2.469  12.521 -0.1962 -0.5783 -0.9930
 9165TIP3   OH248985   1.510   5.559   1.679 -0.1277  0.6018  0.0888
 9165TIP3    H148986   1.420   5.536   1.656 -0.0941  2.9722 -2.7007
 9165TIP3    H248987   1.564   5.494   1.634 -0.3339  1.3484 -1.2675
 9166TIP3   OH248988   6.393   3.651   4.788 -0.2289 -0.1483 -0.2483
 9166TIP3    H148989   6.452   3.705   4.735  0.7600  0.7044  1.6474
 9166TIP3    H248990   6.446   3.574   4.811 -0.4574 -0.2458 -0.0404
 9167TIP3   OH248991   1.555   3.638   2.846 -0.3734  0.7241 -0.0276
 9167TIP3    H148992   1.475   3.677   2.881 -1.6241  0.2511 -2.2728
 9167TIP3    H248993   1.615   3.712   2.837 -0.3314  0.9888  2.1987
 9168TIP3   OH248994   4.351   0.731  13.070  0.4598 -0.0971 -0.5214
 9168TIP3    H148995   4.391   0.761  13.151  2.9220  0.8535 -2.0484
 9168TIP3    H248996   4.260   0.762  13.074  0.1889 -1.1806  2.4198
 9169TIP3   OH248997   0.693   2.451  14.214  0.0384  0.6686  0.4659
 9169TIP3    H148998   0.714   2.499  14.294  0.7343  0.9089  0.1444
 9169TIP3    H248999   0.625   2.503  14.172  1.2366  1.7360 -0.1994
 9170TIP3   OH249000   5.597   5.514   0.082  0.3912  0.0985  0.1527
 9170TIP3    H149001   5.666   5.512   0.148  1.2669 -1.7323 -0.7769
 9170TIP3    H249002   5.552   5.429   0.092 -1.0277  0.8093  0.0154
 9171TIP3   OH249003   2.087   6.493  11.430 -0.2788  0.0454  0.3333
 9171TIP3    H149004   2.158   6.511  11.367 -0.0171  0.1953  0.6713
 9171TIP3    H249005   2.077   6.575  11.478 -0.5294 -0.0484  0.4369
 9172TIP3   OH249006   0.910   2.238  12.034 -0.3157 -0.0732 -0.6337
 9172TIP3    H149007   0.999   2.205  12.026 -0.5261 -0.9294  0.3336
 9172TIP3    H249008   0.917   2.332  12.020  0.6992 -0.1773 -0.8280
 9173TIP3   OH249009   3.142   4.188   5.402 -0.6332 -0.0580 -0.2018
 9173TIP3    H149010   3.206   4.256   5.384  0.6659 -1.1794  0.0699
 9173TIP3    H249011   3.101   4.214   5.484  0.1425  0.1888  0.1126
 9174TIP3   OH249012   3.281   5.221  12.380  1.1791  0.2601 -0.7317
 9174TIP3    H149013   3.213   5.153  12.378  0.8954  0.5200  0.0503
 9174TIP3    H249014   3.344   5.192  12.314  1.7277 -1.4566  0.4915
 9175TIP3   OH249015   4.740   3.243  11.647  0.2152  0.0458 -0.4475
 9175TIP3    H149016   4.811   3.190  11.611  0.5389  1.2532 -1.6272
 9175TIP3    H249017   4.685   3.180  11.693  1.6783 -1.0161 -0.0857
 9176TIP3   OH249018   2.692   4.162  10.875  0.2242  0.3865 -0.2323
 9176TIP3    H149019   2.658   4.251  10.885 -1.2121  0.0748 -1.9320
 9176TIP3    H249020   2.781   4.174  10.842 -0.5853  1.2149 -2.2063
 9177TIP3   OH249021   1.273   1.359  15.106 -0.1141 -0.5422  0.1790
 9177TIP3    H149022   1.304   1.271  15.084  1.4820  0.2171 -0.7176
 9177TIP3    H249023   1.220   1.385  15.031 -0.8668 -0.8721  0.5963
 9178TIP3   OH249024   5.727   4.355  16.263  0.3413  0.5577 -0.2288
 9178TIP3    H149025   5.696   4.442  16.287  0.4646  1.1093 -2.0275
 9178TIP3    H249026   5.703   4.345  16.171 -0.1146 -1.5034  0.0728
 9179TIP3   OH249027   0.527   3.750  12.349  0.0249 -0.3938 -0.2041
 9179TIP3    H149028   0.498   3.737  12.259 -0.2107  1.0364 -0.3528
 9179TIP3    H249029   0.489   3.677  12.397  0.4617 -1.3771 -1.3264
 9180TIP3   OH249030   3.242   1.727   0.946 -0.4951  0.1948 -0.4442
 9180TIP3    H149031   3.157   1.688   0.967 -0.9267  0.0523 -2.3560
 9180TIP3    H249032   3.305   1.668   0.987 -1.3020  0.4553  1.2478
 9181TIP3   OH249033   0.165   6.069   4.545 -0.1019  0.0089 -0.6318
 9181TIP3    H149034   0.155   6.109   4.458 -0.5442  1.1982 -0.0456
 9181TIP3    H249035   0.259   6.062   4.557 -0.0250  0.8055 -0.7727
 9182TIP3   OH249036   5.854   3.826  17.053 -0.1022  0.1339  0.1895
 9182TIP3    H149037   5.800   3.902  17.072 -0.3584  0.2371 -0.9379
 9182TIP3    H249038   5.809   3.753  17.096 -0.6301  0.3718  0.0408
 9183TIP3   OH249039   0.814   0.855  11.040  0.4809 -0.5708  0.0801
 9183TIP3    H149040   0.860   0.813  10.968  0.2056 -0.2664 -0.2809
 9183TIP3    H249041   0.861   0.938  11.054 -0.2892  0.0057 -0.6691
 9184TIP3   OH249042   5.501   2.310  15.247 -0.3014 -0.1028 -0.7050
 9184TIP3    H149043   5.559   2.312  15.171 -0.1783  1.2776 -0.5873
 9184TIP3    H249044   5.433   2.247  15.224  1.3847 -1.9184 -0.7283
 9185TIP3   OH249045   3.812   4.500  14.482  0.0620 -0.0032 -0.1787
 9185TIP3    H149046   3.793   4.538  14.568  0.4195  2.1809 -1.0233
 9185TIP3    H249047   3.731   4.512  14.432  0.8500  1.5399 -1.1028
 9186TIP3   OH249048   5.759   3.608  15.095 -0.5841 -0.4030 -0.2717
 9186TIP3    H149049   5.695   3.665  15.137 -0.7785 -3.0099  3.2398
 9186TIP3    H249050   5.842   3.653  15.105 -1.4468  1.8252 -2.6132
 9187TIP3   OH249051   6.069   5.694  13.917 -0.4035 -0.1746 -0.0513
 9187TIP3    H149052   6.000   5.640  13.957 -1.8762  1.3230 -0.4840
 9187TIP3    H249053   6.062   5.778  13.963 -0.5914  0.8222 -1.8835
 9188TIP3   OH249054   3.694   2.926   5.486 -0.1901 -0.1471  0.4199
 9188TIP3    H149055   3.614   2.883   5.454 -0.1649  0.3325 -0.3220
 9188TIP3    H249056   3.664   3.013   5.513  0.2644  0.4381 -0.9216
 9189TIP3   OH249057   3.896   1.400  14.898  0.1505  0.1295 -0.0994
 9189TIP3    H149058   3.989   1.418  14.911  0.0749  1.9807 -1.9272
 9189TIP3    H249059   3.893   1.340  14.824 -0.0688 -0.8870  0.7166
 9190TIP3   OH249060   3.224   5.901   5.137  0.2883 -0.1115 -0.4072
 9190TIP3    H149061   3.197   5.811   5.117 -0.4625 -0.0558  0.3365
 9190TIP3    H249062   3.174   5.924   5.215 -1.0978  1.7003 -1.8078
 9191TIP3   OH249063   1.215   4.300  14.013  0.1549 -0.4356 -0.6364
 9191TIP3    H149064   1.212   4.269  14.103  0.7567 -3.0129 -1.4568
 9191TIP3    H249065   1.268   4.379  14.016 -0.8962  0.2204  1.4425
 9192TIP3   OH249066   4.124   0.900  17.087 -0.5327 -0.0105 -0.2695
 9192TIP3    H149067   4.087   0.865  17.168 -0.0976 -0.2051 -0.1491
 9192TIP3    H249068   4.049   0.930  17.037 -0.8188 -0.0305  0.1415
 9193TIP3   OH249069   5.826   3.054   4.369  0.0921  0.0861 -0.1756
 9193TIP3    H149070   5.912   3.083   4.337 -0.4888  1.8039 -0.2429
 9193TIP3    H249071   5.797   3.125   4.427 -1.5739 -0.1694 -0.6718
 9194TIP3   OH249072   4.932   0.544  12.228  0.1327  0.5384 -0.2055
 9194TIP3    H149073   5.016   0.547  12.181 -0.6956 -0.8167 -1.8627
 9194TIP3    H249074   4.868   0.520  12.160 -1.0828 -1.7275  1.6945
 9195TIP3   OH249075   3.398   3.488   1.774 -0.4362  0.1475 -0.6378
 9195TIP3    H149076   3.346   3.564   1.750 -1.7606 -0.7230 -0.5415
 9195TIP3    H249077   3.431   3.508   1.862 -0.4349  0.7763 -0.7810
 9196TIP3   OH249078   3.119   4.066   4.669 -0.0446  0.1797  0.0369
 9196TIP3    H149079   3.125   4.105   4.756  1.0516  0.8999 -0.3596
 9196TIP3    H249080   3.045   4.005   4.676 -2.5986  3.1660  0.3380
 9197TIP3   OH249081   2.790   4.720  13.145  0.1434  0.0385  1.0064
 9197TIP3    H149082   2.734   4.792  13.172 -1.0466 -0.5104  0.0659
 9197TIP3    H249083   2.853   4.759  13.083 -0.3022  0.3222  0.7328
 9198TIP3   OH249084   6.697   5.868  13.237  0.3237 -0.1912 -0.3274
 9198TIP3    H149085   6.758   5.808  13.193  0.5094 -1.0330  1.0554
 9198TIP3    H249086   6.687   5.941  13.176 -2.3250 -3.0066 -3.4294
 9199TIP3   OH249087   1.284   6.448   4.939  0.0574  0.0799  0.5911
 9199TIP3    H149088   1.297   6.420   4.848  3.0828  0.4663  0.8417
 9199TIP3    H249089   1.294   6.543   4.937 -0.9389  0.1999  1.1690
 9200TIP3   OH249090   2.825   5.815  15.765 -0.5266 -0.2997 -0.5583
 9200TIP3    H149091   2.764   5.880  15.731 -0.2575  0.9718  1.2943
 9200TIP3    H249092   2.912   5.850  15.743 -0.3383  0.7385  1.7147
 9201TIP3   OH249093   4.974   2.486   5.497  0.2561 -0.1777 -0.1294
 9201TIP3    H149094   5.032   2.550   5.538 -2.4824  3.4650 -1.6576
 9201TIP3    H249095   4.950   2.526   5.414 -2.8449 -2.4815 -0.4107
 9202TIP3   OH249096   0.282   0.126   3.240 -0.5133 -0.8430  0.2895
 9202TIP3    H149097   0.226   0.126   3.163  0.4857  2.8618 -0.5245
 9202TIP3    H249098   0.370   0.111   3.206 -0.0132  1.2211  0.6023
 9203TIP3   OH249099   1.159   3.615   0.241 -0.3718 -0.4340 -0.1096
 9203TIP3    H149100   1.152   3.610   0.146 -2.5868  0.1587 -0.0053
 9203TIP3    H249101   1.214   3.541   0.265  1.1809  0.0944 -1.9371
 9204TIP3   OH249102   4.535   5.778  16.307 -0.0567  0.0996 -0.5449
 9204TIP3    H149103   4.558   5.789  16.400 -2.3390 -0.6176  0.1434
 9204TIP3    H249104   4.608   5.817  16.260  0.3754  1.9802  1.5786
 9205TIP3   OH249105   2.167   5.957   6.257  0.5944 -0.5950 -0.0876
 9205TIP3    H149106   2.244   6.013   6.248 -1.0121  1.6087 -0.5432
 9205TIP3    H249107   2.126   5.986   6.338  0.6994 -2.3840  0.6353
 9206TIP3   OH249108   3.949   1.519   3.305  0.0155  0.4223 -0.0107
 9206TIP3    H149109   3.880   1.522   3.239 -0.2115 -0.6289  0.1668
 9206TIP3    H249110   3.912   1.464   3.375  0.7562  0.4499  0.3996
 9207TIP3   OH249111   5.517   6.616   5.554 -0.3701  0.2589 -0.1083
 9207TIP3    H149112   5.484   6.532   5.587  1.6763  0.2700  2.0877
 9207TIP3    H249113   5.609   6.616   5.578 -0.3963  3.2267  0.0633
 9208TIP3   OH249114   6.702   1.787   1.807  0.5253 -0.2015  0.1369
 9208TIP3    H149115   6.674   1.709   1.856 -1.1603  1.2377  1.5354
 9208TIP3    H249116   6.703   1.759   1.715 -0.0651 -1.8624  0.6235
 9209TIP3   OH249117   5.500   4.320  12.336  0.0056  0.0905 -0.6849
 9209TIP3    H149118   5.554   4.381  12.386 -1.7565  0.7877  0.4406
 9209TIP3    H249119   5.415   4.321  12.381  0.1990 -3.9723  0.0113
 9210TIP3   OH249120   4.301   3.668   6.430 -0.0186 -0.0516 -0.0284
 9210TIP3    H149121   4.222   3.701   6.388  0.1468  0.7223  0.2451
 9210TIP3    H249122   4.304   3.712   6.515  0.5854 -0.2385  0.0554
 9211TIP3   OH249123   3.895   3.141   4.835  0.1551 -0.2229  0.4491
 9211TIP3    H149124   3.956   3.214   4.832 -0.5723  0.4859  2.2438
 9211TIP3    H249125   3.816   3.177   4.874 -0.2412 -1.9296  1.2740
 9212TIP3   OH249126   1.532   4.760  17.159 -0.1342  0.1597 -0.1887
 9212TIP3    H149127   1.532   4.826  17.090 -0.9057 -0.6463 -0.9659
 9212TIP3    H249128   1.623   4.729  17.162 -0.4153 -0.8951 -1.9196
 9213TIP3   OH249129   5.463   1.609   4.789  0.4414 -0.0877 -0.0192
 9213TIP3    H149130   5.398   1.642   4.851  1.8606  0.8218  1.0236
 9213TIP3    H249131   5.456   1.514   4.794 -0.6142  0.0039  0.2830
 9214TIP3   OH249132   3.710   5.607  14.498  0.2231 -0.3217  0.3894
 9214TIP3    H149133   3.747   5.695  14.508 -0.2677  0.3050 -2.6983
 9214TIP3    H249134   3.664   5.591  14.580  2.3375  1.3207  1.9398
 9215TIP3   OH249135   0.771   0.066   2.437  0.1803  0.0960  0.1221
 9215TIP3    H149136   0.820   0.008   2.496 -0.0360 -1.4105 -1.1603
 9215TIP3    H249137   0.733   0.132   2.495  2.9927  0.7949  1.2469
 9216TIP3   OH249138   0.797   3.926   3.786  0.2624  0.0607  0.3593
 9216TIP3    H149139   0.804   3.830   3.791 -0.0449 -0.0421 -0.9259
 9216TIP3    H249140   0.704   3.942   3.775  0.4583  0.4385 -0.7475
 9217TIP3   OH249141   1.476   0.648  11.189 -0.6452  0.0599  0.7396
 9217TIP3    H149142   1.389   0.687  11.196  0.1569  1.5707  2.9016
 9217TIP3    H249143   1.517   0.665  11.274  1.6416 -0.9222 -0.1233
 9218TIP3   OH249144   1.477   0.878   2.826 -0.4684 -0.1578 -0.4446
 9218TIP3    H149145   1.388   0.865   2.793  0.0478 -2.5102 -1.0135
 9218TIP3    H249146   1.528   0.902   2.749 -0.8355  2.5499  0.1087
 9219TIP3   OH249147   5.994   6.459  14.229 -0.2635 -0.2821  0.2224
 9219TIP3    H149148   5.917   6.440  14.282 -0.5801  0.9863  0.2501
 9219TIP3    H249149   5.960   6.506  14.153  0.3397 -0.8957 -0.4371
 9220TIP3   OH249150   5.355   0.715   6.281 -0.6514  0.3600  0.0870
 9220TIP3    H149151   5.302   0.661   6.340 -0.8326  1.1547  0.6602
 9220TIP3    H249152   5.386   0.787   6.337  0.1551  0.4744 -0.4989
 9221TIP3   OH249153   0.781   4.461  11.590 -0.2708  0.3335 -1.1224
 9221TIP3    H149154   0.744   4.407  11.660  0.7467 -0.8200 -1.4586
 9221TIP3    H249155   0.801   4.544  11.632  1.3268 -0.7029  0.2522
 9222TIP3   OH249156   6.372   3.663  11.932  0.0450  0.0877  0.0401
 9222TIP3    H149157   6.433   3.734  11.950 -0.7631  0.7785  0.0859
 9222TIP3    H249158   6.426   3.594  11.892  0.8848  0.6000  0.2892
 9223TIP3   OH249159   4.618   4.484  13.860  0.2283 -0.3535  0.0210
 9223TIP3    H149160   4.675   4.407  13.859  1.1332  0.2773 -2.7055
 9223TIP3    H249161   4.529   4.449  13.860  0.6265 -1.3752  0.7726
 9224TIP3   OH249162   1.999   4.595  12.720  0.0773 -0.2553 -0.3694
 9224TIP3    H149163   2.027   4.537  12.650 -1.8335  2.4810 -3.5783
 9224TIP3    H249164   1.904   4.583  12.725  0.3849 -1.6151  2.9321
 9225TIP3   OH249165   0.548   0.822  11.375  0.1576 -0.2483 -0.3630
 9225TIP3    H149166   0.581   0.894  11.321 -1.7240 -1.5848 -3.4649
 9225TIP3    H249167   0.454   0.838  11.383  0.3665 -0.2448  2.3285
 9226TIP3   OH249168   6.172   0.752  15.342  0.5902  0.0472 -0.2716
 9226TIP3    H149169   6.214   0.836  15.357  0.4762  0.3031 -1.3364
 9226TIP3    H249170   6.244   0.691  15.329  0.6531  0.2234 -0.7494
 9227TIP3   OH249171   4.654   4.308   0.424 -0.6951 -0.6573  0.1910
 9227TIP3    H149172   4.712   4.374   0.461 -2.0001  1.1597 -0.8645
 9227TIP3    H249173   4.615   4.264   0.499 -0.0878  0.0375  0.9162
 9228TIP3   OH249174   5.134   6.563   0.425 -0.2046 -0.0047  0.0032
 9228TIP3    H149175   5.211   6.545   0.372 -0.0389  0.0906  0.2110
 9228TIP3    H249176   5.132   6.492   0.490 -1.3644 -1.0996 -1.1821
 9229TIP3   OH249177   5.857   6.639   0.805  0.2713  0.3272 -0.2348
 9229TIP3    H149178   5.782   6.638   0.745  0.3308 -0.7364 -0.2941
 9229TIP3    H249179   5.926   6.684   0.756 -0.9152  3.1436  0.5577
 9230TIP3   OH249180   5.480   2.098  16.384  0.0577 -0.2870  0.1598
 9230TIP3    H149181   5.397   2.145  16.393  0.0898 -0.1076 -0.4625
 9230TIP3    H249182   5.489   2.049  16.466 -1.2859 -1.3051 -0.2820
 9231TIP3   OH249183   1.241   4.605  13.074 -0.5098  0.2150 -0.6824
 9231TIP3    H149184   1.265   4.621  13.165 -1.2312  1.4838 -0.7023
 9231TIP3    H249185   1.314   4.642  13.024  1.7717 -3.8032 -0.6186
 9232TIP3   OH249186   0.959   2.838  12.571  0.2306  0.1849  0.2494
 9232TIP3    H149187   0.954   2.759  12.625  0.4618  1.4436  2.1347
 9232TIP3    H249188   0.924   2.810  12.486  1.6197 -2.3157  0.4393
 9233TIP3   OH249189   3.277   2.500   5.194 -0.3734  0.7101 -0.3190
 9233TIP3    H149190   3.342   2.472   5.259 -0.9686 -0.0961 -0.0624
 9233TIP3    H249191   3.193   2.480   5.235 -0.7475 -0.2457 -1.5332
 9234TIP3   OH249192   6.149   3.621  12.084 -0.4948 -0.2040  0.0316
 9234TIP3    H149193   6.227   3.648  12.036  0.3315 -1.3712  0.6883
 9234TIP3    H249194   6.092   3.582  12.018  0.1120 -0.6943 -0.2028
 9235TIP3   OH249195   6.333   5.094  13.981  0.1602 -0.4635 -0.4018
 9235TIP3    H149196   6.364   5.004  13.992  0.1914 -0.4313 -0.2331
 9235TIP3    H249197   6.320   5.104  13.887 -1.5991 -1.2252 -0.2569
 9236TIP3   OH249198   2.380   2.454  14.147 -0.3110  0.7291 -0.0338
 9236TIP3    H149199   2.396   2.384  14.210  1.1255  0.9830 -0.0898
 9236TIP3    H249200   2.326   2.517  14.194 -1.2769 -0.2225  0.1454
 9237TIP3   OH249201   3.221   1.208  14.680  0.3911  0.2038  0.2304
 9237TIP3    H149202   3.134   1.246  14.688  1.2641  2.2303  0.6849
 9237TIP3    H249203   3.231   1.188  14.587 -0.5710 -0.0467  0.1843
 9238TIP3   OH249204   3.060   4.630  11.745  0.2669  0.0385  0.6916
 9238TIP3    H149205   3.010   4.711  11.738 -1.3980 -0.9064  1.3014
 9238TIP3    H249206   3.148   4.658  11.772 -0.0893  1.6682  0.2236
 9239TIP3   OH249207   0.591   1.428   4.111  0.3208 -0.3314 -0.3161
 9239TIP3    H149208   0.684   1.447   4.123  0.4130 -0.4926 -0.7809
 9239TIP3    H249209   0.589   1.349   4.057 -0.0748 -1.1363  0.8557
 9240TIP3   OH249210   0.593   3.085   0.572  0.9047 -0.6334  0.1068
 9240TIP3    H149211   0.526   3.131   0.522  0.2603 -1.7244 -0.0588
 9240TIP3    H249212   0.547   3.051   0.649  1.1317 -1.8643 -0.2888
 9241TIP3   OH249213   5.780   3.664   4.071  0.6460 -0.0315  0.1879
 9241TIP3    H149214   5.722   3.627   4.139 -0.1108  1.2287  0.2651
 9241TIP3    H249215   5.744   3.632   3.989  1.3271 -1.2445  0.3464
 9242TIP3   OH249216   1.927   4.799   0.517  0.2249  0.1447 -0.1244
 9242TIP3    H149217   2.014   4.794   0.556 -0.8233 -0.1079  2.2889
 9242TIP3    H249218   1.892   4.710   0.526 -0.9382  0.6605  0.5906
 9243TIP3   OH249219   3.779   1.954   4.745 -0.0800  0.1903 -0.5970
 9243TIP3    H149220   3.848   1.900   4.707  1.2091 -0.3925  2.4166
 9243TIP3    H249221   3.818   2.041   4.754 -0.5880  0.4826 -1.1634
 9244TIP3   OH249222   5.034   4.425  12.934 -0.2630 -0.4543  0.5787
 9244TIP3    H149223   4.965   4.490  12.919  0.1813 -0.1376 -0.1094
 9244TIP3    H249224   4.989   4.351  12.974 -0.8938  0.0084  0.7313
 9245TIP3   OH249225   5.000   2.664  14.122 -0.0330  0.1268  0.0320
 9245TIP3    H149226   5.019   2.741  14.067 -0.3415  0.1328 -0.0637
 9245TIP3    H249227   5.077   2.657  14.179  0.3092  0.1011 -0.4212
 9246TIP3   OH249228   6.119   6.394   2.815  0.2135 -0.2694 -0.1198
 9246TIP3    H149229   6.212   6.405   2.793  0.5108  0.4530  1.4470
 9246TIP3    H249230   6.115   6.307   2.856 -0.1647 -1.1754 -2.0278
 9247TIP3   OH249231   1.393   0.770   4.695  0.0336  0.5904 -0.0918
 9247TIP3    H149232   1.313   0.821   4.682 -1.3318 -0.9995  1.8762
 9247TIP3    H249233   1.378   0.689   4.647 -1.1395 -1.2913  3.3082
 9248TIP3   OH249234   6.791   2.647  13.724 -0.3698  0.1463  0.8147
 9248TIP3    H149235   6.779   2.654  13.819 -1.1689  0.5118  0.7027
 9248TIP3    H249236   6.853   2.576  13.712  1.0736  1.2282  1.6900
 9249TIP3   OH249237   0.360   2.454  14.062 -0.1181  0.0551 -0.0102
 9249TIP3    H149238   0.315   2.373  14.038  0.1286 -0.6343  1.8133
 9249TIP3    H249239   0.445   2.448  14.018 -0.7701  0.1443 -1.3001
 9250TIP3   OH249240   2.616   3.723   1.079 -0.7848  0.3563  0.5221
 9250TIP3    H149241   2.523   3.743   1.087 -0.7887  0.3190  0.5717
 9250TIP3    H249242   2.650   3.790   1.020 -0.6178  1.0490  1.3893
 9251TIP3   OH249243   4.562   3.454  14.341  0.1797  0.2972  0.0319
 9251TIP3    H149244   4.478   3.419  14.371  0.3257 -0.2438 -0.1874
 9251TIP3    H249245   4.600   3.383  14.290  0.3452  0.8841 -0.6639
 9252TIP3   OH249246   3.199   4.908   0.486  0.8346 -0.2787  0.3335
 9252TIP3    H149247   3.135   4.839   0.497  0.5409  0.0022  0.3958
 9252TIP3    H249248   3.149   4.989   0.496  1.0798 -0.0526 -0.2527
 9253TIP3   OH249249   0.912   2.719   0.648 -0.4291 -1.0381  0.2572
 9253TIP3    H149250   0.982   2.700   0.586  0.0125 -1.4060  0.8647
 9253TIP3    H249251   0.839   2.749   0.594 -0.1814 -1.7493 -0.4725
 9254TIP3   OH249252   1.685   3.526  11.027  0.0254 -0.3035 -0.3883
 9254TIP3    H149253   1.622   3.515  10.956 -2.5407 -0.0721  1.7616
 9254TIP3    H249254   1.647   3.477  11.101  1.1830  1.7680  1.6530
 9255TIP3   OH249255   0.577   0.044   2.206  0.1175  0.2029  0.4680
 9255TIP3    H149256   0.532   0.110   2.258 -2.4134 -0.2048 -1.1128
 9255TIP3    H249257   0.569  -0.037   2.257 -0.3390  0.2884  0.5364
 9256TIP3   OH249258   0.587   1.696   1.847  1.3312  0.6727  0.1550
 9256TIP3    H149259   0.616   1.776   1.805 -0.7557  0.3834 -1.9376
 9256TIP3    H249260   0.506   1.720   1.891  1.0699 -0.1162  0.1141
 9257TIP3   OH249261   5.598   0.716  14.893 -0.0462  0.3161 -0.0550
 9257TIP3    H149262   5.686   0.700  14.928 -0.0200 -1.1495 -0.7788
 9257TIP3    H249263   5.586   0.648  14.827 -0.9781  1.7042 -1.3270
 9258TIP3   OH249264   0.548   1.673   4.988  0.4313  0.0160 -0.1427
 9258TIP3    H149265   0.625   1.621   5.012  1.1912  1.1390 -0.1195
 9258TIP3    H249266   0.566   1.701   4.898  0.3961  0.9133  0.1324
 9259TIP3   OH249267   6.607   1.388   3.720 -0.5664  0.3202 -0.3525
 9259TIP3    H149268   6.658   1.443   3.780  0.0877 -0.5976 -0.0608
 9259TIP3    H249269   6.516   1.398   3.750 -0.2053 -0.4737  1.0881
 9260TIP3   OH249270   6.041   5.266   2.494 -0.0562  0.1240 -0.3592
 9260TIP3    H149271   6.088   5.219   2.563 -1.4520  0.8017  1.0848
 9260TIP3    H249272   6.009   5.197   2.436 -3.7320 -0.9899  2.7752
 9261TIP3   OH249273   6.354   4.457   1.787  0.5002  0.1645 -0.3335
 9261TIP3    H149274   6.347   4.546   1.821 -0.7596 -0.2699  0.6202
 9261TIP3    H249275   6.335   4.401   1.863  0.6197 -0.8956 -1.0748
 9262TIP3   OH249276   3.508   0.230  15.636  0.4186 -0.1246 -0.4445
 9262TIP3    H149277   3.547   0.143  15.640 -0.3460 -0.5244 -1.3565
 9262TIP3    H249278   3.431   0.224  15.693  0.8245  0.2108  0.1479
 9263TIP3   OH249279   0.396   1.373   1.451 -0.3263 -0.0303 -0.3800
 9263TIP3    H149280   0.415   1.396   1.360 -1.1309  1.0493 -0.2740
 9263TIP3    H249281   0.367   1.454   1.491  1.5254 -0.1424  1.2747
 9264TIP3   OH249282   4.710   3.487  13.678 -0.5166  0.4025  0.4056
 9264TIP3    H149283   4.679   3.540  13.604 -0.1265 -1.2608 -0.9738
 9264TIP3    H249284   4.664   3.403  13.669  0.9234 -0.4632  0.9852
 9265TIP3   OH249285   5.895   5.528   1.775  0.4618 -0.1198  0.1196
 9265TIP3    H149286   5.980   5.486   1.762  1.2451  1.5671 -0.2909
 9265TIP3    H249287   5.843   5.501   1.699  1.1829  0.1949 -0.4916
 9266TIP3   OH249288   5.277   4.349   4.284  0.2972  0.2002 -0.5031
 9266TIP3    H149289   5.370   4.333   4.269  0.3729  1.0281 -0.9134
 9266TIP3    H249290   5.240   4.361   4.196 -0.2019 -0.1350 -0.3464
 9267TIP3   OH249291   0.563   3.526   5.696  0.1789  0.1233  0.5089
 9267TIP3    H149292   0.526   3.571   5.771 -0.8500  0.0847  0.0255
 9267TIP3    H249293   0.657   3.542   5.703  0.0596  0.3821  1.6242
 9268TIP3   OH249294   3.267   0.572  10.345  0.6456  0.2516 -0.4481
 9268TIP3    H149295   3.217   0.630  10.288  0.1058 -0.4946 -0.7392
 9268TIP3    H249296   3.275   0.620  10.427  0.7982  1.0258 -0.9038
 9269TIP3   OH249297   5.257   1.703  11.836 -0.3968  0.4576 -0.2939
 9269TIP3    H149298   5.326   1.747  11.787  0.2820  1.5761  1.5861
 9269TIP3    H249299   5.214   1.773  11.886 -2.9693 -0.2016 -1.4948
 9270TIP3   OH249300   6.398   2.811   4.416  0.2064 -0.1157  0.0108
 9270TIP3    H149301   6.455   2.744   4.377 -0.2553 -0.8285  0.5557
 9270TIP3    H249302   6.310   2.774   4.409 -0.8158  2.7459 -4.6833
 9271TIP3   OH249303   0.874   4.354   4.024 -0.1393  0.7480  0.0518
 9271TIP3    H149304   0.868   4.329   4.116  2.5423  0.2426  0.1269
 9271TIP3    H249305   0.899   4.274   3.978 -2.1964  0.8079 -1.2621
 9272TIP3   OH249306   2.372   0.866  11.760  0.2910  0.5025  0.4030
 9272TIP3    H149307   2.432   0.795  11.780  0.0038 -0.0705 -0.7052
 9272TIP3    H249308   2.392   0.934  11.825  0.4205 -0.6656  1.6109
 9273TIP3   OH249309   1.718   3.724   2.102  0.4445  0.0968 -0.0326
 9273TIP3    H149310   1.796   3.674   2.128  0.6796  0.4471 -0.0701
 9273TIP3    H249311   1.682   3.674   2.029 -0.1496 -0.8245  0.8793
 9274TIP3   OH249312   3.656   5.909  16.332  0.1854 -0.0961 -0.3611
 9274TIP3    H149313   3.578   5.855  16.319  0.3706 -0.4783  0.0998
 9274TIP3    H249314   3.724   5.867  16.279 -0.0100  0.4345 -1.0412
 9275TIP3   OH249315   5.976   4.369  13.761 -0.3061 -0.1302 -0.5060
 9275TIP3    H149316   6.067   4.350  13.783 -0.2290 -1.5399 -1.9477
 9275TIP3    H249317   5.925   4.317  13.823 -0.1623  1.5560  1.0646
 9276TIP3   OH249318   0.036   3.735  13.864  0.3860 -0.7813  0.0552
 9276TIP3    H149319   0.076   3.693  13.788 -1.0800 -1.0862 -0.5542
 9276TIP3    H249320  -0.049   3.767  13.833  1.1344  1.9938  0.7187
 9277TIP3   OH249321   4.155   6.210   5.740 -0.2512 -0.5759 -0.2587
 9277TIP3    H149322   4.116   6.292   5.772  1.0597 -0.5591  1.3648
 9277TIP3    H249323   4.249   6.228   5.739 -0.0156 -1.8232 -0.6220
 9278TIP3   OH249324   3.897   3.619   1.910  0.3961  0.4292 -0.2861
 9278TIP3    H149325   3.817   3.567   1.915  1.3204 -1.1419 -1.1888
 9278TIP3    H249326   3.870   3.708   1.933 -1.8937  0.2369 -2.0506
 9279TIP3   OH249327   3.050   2.642   5.938 -0.2588 -0.0440 -0.2374
 9279TIP3    H149328   3.142   2.618   5.949 -1.0013 -2.4891  1.0758
 9279TIP3    H249329   3.024   2.600   5.856 -0.0736  1.1261 -0.9048
 9280TIP3   OH249330   5.834   0.274   0.743  0.7317  0.0501  0.4819
 9280TIP3    H149331   5.797   0.262   0.656 -2.0518 -0.9413  1.7260
 9280TIP3    H249332   5.912   0.328   0.729  0.5604 -0.4223 -2.6296
 9281TIP3   OH249333   5.872   4.034   1.075 -0.5351 -0.2934 -0.1397
 9281TIP3    H149334   5.913   3.948   1.072  0.9278  0.3678  0.3170
 9281TIP3    H249335   5.822   4.040   0.993  0.1997 -1.1570 -0.6582
 9282TIP3   OH249336   0.142   3.763  12.924 -0.2216 -0.5642  0.4362
 9282TIP3    H149337   0.147   3.797  12.834  2.6308 -0.6112  0.5231
 9282TIP3    H249338   0.062   3.801  12.960 -1.1568 -0.1742 -1.9753
 9283TIP3   OH249339   5.633   3.133   1.457 -0.3337 -0.4035  0.0027
 9283TIP3    H149340   5.647   3.211   1.403 -1.1425 -1.3061 -1.5368
 9283TIP3    H249341   5.547   3.145   1.496  0.3699  0.3851  1.3797
 9284TIP3   OH249342   4.646   3.030  14.192 -0.0445 -0.1742  0.0089
 9284TIP3    H149343   4.578   3.087  14.156  0.9233 -0.1374 -1.8148
 9284TIP3    H249344   4.714   3.028  14.125  1.0917 -1.4166  1.1596
 9285TIP3   OH249345   0.279   5.728   2.553  0.2511 -0.1633  0.2186
 9285TIP3    H149346   0.227   5.661   2.509 -0.1411 -0.9099  1.7716
 9285TIP3    H249347   0.246   5.729   2.643  1.9234  0.3846  0.8507
 9286TIP3   OH249348   4.398   2.813  11.152 -0.6685 -0.2196  0.5308
 9286TIP3    H149349   4.365   2.902  11.153  0.7279  0.3579 -1.8634
 9286TIP3    H249350   4.488   2.819  11.183 -0.5923 -0.8200  0.4478
 9287TIP3   OH249351   5.154   5.622   3.594 -0.1521 -0.1579 -0.2490
 9287TIP3    H149352   5.217   5.682   3.635  0.9640 -0.0070 -2.1246
 9287TIP3    H249353   5.093   5.601   3.664  1.8248 -0.1014  1.5599
 9288TIP3   OH249354   4.949   3.628   4.573 -0.5811  0.3799  0.4374
 9288TIP3    H149355   5.019   3.573   4.537 -1.1339 -0.2160  0.2741
 9288TIP3    H249356   4.871   3.574   4.568 -1.3275  1.5553 -0.6364
 9289TIP3   OH249357   0.389   4.236  16.631  0.2863 -0.4846  0.4707
 9289TIP3    H149358   0.338   4.185  16.695 -0.9991 -1.3984 -1.2540
 9289TIP3    H249359   0.468   4.184  16.617  1.1686  0.3257  2.2168
 9290TIP3   OH249360   1.299   3.846  16.077  0.6307 -0.1534 -0.0144
 9290TIP3    H149361   1.389   3.819  16.095  0.8032 -0.3022 -1.0688
 9290TIP3    H249362   1.302   3.881  15.988 -0.3795 -0.2827 -0.1041
 9291TIP3   OH249363   0.425   2.688   4.160 -0.3932  0.5499 -0.0536
 9291TIP3    H149364   0.436   2.645   4.075  0.0895  0.3952  0.0831
 9291TIP3    H249365   0.352   2.749   4.147 -0.1226  0.7464 -0.6651
 9292TIP3   OH249366   5.961   0.316  14.358  0.2985  0.9436  0.2328
 9292TIP3    H149367   5.979   0.321  14.264 -0.8594 -0.4794 -0.0744
 9292TIP3    H249368   5.984   0.227  14.383 -0.9212  0.8129  0.9593
 9293TIP3   OH249369   1.126   6.457  12.322 -0.7456 -0.4669 -0.6429
 9293TIP3    H149370   1.130   6.553  12.328 -0.4392 -0.5611  0.9194
 9293TIP3    H249371   1.202   6.427  12.372 -1.8516 -1.5571  0.4067
 9294TIP3   OH249372   0.702   6.312  15.295 -0.0264  0.3338 -0.2648
 9294TIP3    H149373   0.651   6.296  15.215  1.8314  1.1381 -1.6331
 9294TIP3    H249374   0.736   6.400  15.285  0.8952  0.1445  1.0567
 9295TIP3   OH249375   1.137   1.934   2.230  0.6259  0.7095 -0.2751
 9295TIP3    H149376   1.138   1.851   2.278  0.9284  1.0052  0.2276
 9295TIP3    H249377   1.198   1.990   2.278 -0.7307  1.7333  0.2785
 9296TIP3   OH249378   0.367   4.809  13.446  0.0483  0.0517 -0.1436
 9296TIP3    H149379   0.431   4.872  13.413  0.8198 -1.4695 -1.6333
 9296TIP3    H249380   0.331   4.850  13.525  1.7402  1.6146 -0.1568
 9297TIP3   OH249381   5.135   2.012   1.105 -0.1547 -0.0640  0.5537
 9297TIP3    H149382   5.052   2.031   1.061 -0.2789 -2.5099 -0.3855
 9297TIP3    H249383   5.202   2.047   1.047 -0.4134 -1.2133 -0.4649
 9298TIP3   OH249384   4.356   4.332  13.789  0.1745 -0.3562 -0.5023
 9298TIP3    H149385   4.383   4.318  13.698  1.0518  1.4342 -0.5251
 9298TIP3    H249386   4.300   4.409  13.787 -0.9496 -1.1161  0.3017
 9299TIP3   OH249387   2.968   5.115  12.659  0.3533 -0.1283  0.6005
 9299TIP3    H149388   2.890   5.059  12.658  2.2446 -2.8824  0.9007
 9299TIP3    H249389   3.003   5.109  12.570  0.6570  0.4276  0.6827
 9300TIP3   OH249390   4.350   1.686  12.138  0.8821 -0.0741 -0.0991
 9300TIP3    H149391   4.305   1.602  12.146 -0.2715  0.3489 -1.8460
 9300TIP3    H249392   4.293   1.748  12.186  1.0085 -0.0295 -0.0062
 9301TIP3   OH249393   5.978   1.478  15.681 -0.1905 -0.3146 -0.0623
 9301TIP3    H149394   6.012   1.400  15.637  0.0854 -0.0150 -0.3851
 9301TIP3    H249395   5.926   1.522  15.615 -0.6761 -0.4308  0.2379
 9302TIP3   OH249396   1.066   5.652  13.848 -0.4459  0.1099 -0.3424
 9302TIP3    H149397   1.049   5.735  13.893  0.2658  0.3764 -0.5664
 9302TIP3    H249398   1.061   5.586  13.918 -2.0997  0.2070 -0.3461
 9303TIP3   OH249399   6.069   1.106   0.426 -0.2289  0.1007  0.1162
 9303TIP3    H149400   5.991   1.157   0.445  0.1157 -0.0028  1.9819
 9303TIP3    H249401   6.128   1.167   0.382 -0.4580  0.8528  0.8362
 9304TIP3   OH249402   3.240   1.368   0.162 -0.0428  1.0034 -0.4583
 9304TIP3    H149403   3.214   1.457   0.184  0.8344  1.2519 -0.4241
 9304TIP3    H249404   3.158   1.323   0.141 -0.5100  1.7391 -0.1950
 9305TIP3   OH249405   1.765   3.275  12.751  0.0705  0.2415 -0.4653
 9305TIP3    H149406   1.750   3.355  12.801 -0.2545  1.2346 -2.1420
 9305TIP3    H249407   1.857   3.280  12.725  1.3158 -2.0812  3.1538
 9306TIP3   OH249408   6.222   0.079  11.263 -0.5124  0.5170  0.6408
 9306TIP3    H149409   6.191   0.015  11.200 -0.6384  0.6600  0.5558
 9306TIP3    H249410   6.316   0.064  11.270 -0.6014  0.0748  0.9034
 9307TIP3   OH249411   3.597   1.465  15.410 -0.0320  0.0241 -0.0799
 9307TIP3    H149412   3.554   1.546  15.383 -1.5157 -0.1381  1.6810
 9307TIP3    H249413   3.683   1.468  15.369 -0.4851  1.9649 -0.9209
 9308TIP3   OH249414   2.283   0.175  14.318 -0.1031 -0.0702  0.1133
 9308TIP3    H149415   2.351   0.230  14.355  0.3428  0.4238 -1.4125
 9308TIP3    H249416   2.303   0.171  14.224 -0.8187 -1.8343  0.0093
 9309TIP3   OH249417   5.892   3.702   5.598  0.2474  0.4676 -0.4917
 9309TIP3    H149418   5.973   3.681   5.552 -0.1728  0.5091 -1.2635
 9309TIP3    H249419   5.902   3.661   5.684  1.5851  1.4893 -0.1378
 9310TIP3   OH249420   6.728   1.929   6.046 -0.1881 -0.4379  0.1615
 9310TIP3    H149421   6.745   1.923   6.140 -0.2338  0.2818  0.2244
 9310TIP3    H249422   6.784   2.001   6.016  1.8760 -2.4428 -0.8763
 9311TIP3   OH249423   5.797   6.643   5.618  0.2717  0.0291 -0.1957
 9311TIP3    H149424   5.808   6.737   5.631  0.2139 -0.1062  0.8841
 9311TIP3    H249425   5.866   6.604   5.672 -0.6799 -0.5983  0.5709
 9312TIP3   OH249426   0.916   5.030  12.656 -0.3282  0.7032  0.2841
 9312TIP3    H149427   0.992   4.999  12.705  2.1739  2.2869 -2.3696
 9312TIP3    H249428   0.914   5.124  12.672  0.1755  1.1598 -2.0208
 9313TIP3   OH249429   1.897   0.047   4.110 -0.5569  0.0454 -0.5681
 9313TIP3    H149430   1.829  -0.016   4.086 -0.0815  0.0342 -1.9022
 9313TIP3    H249431   1.973   0.022   4.059  0.3331  0.3209  0.6106
 9314TIP3   OH249432   2.547   1.131  16.301 -0.2812 -0.3695 -0.4929
 9314TIP3    H149433   2.601   1.094  16.230 -0.7347 -0.5515 -0.7459
 9314TIP3    H249434   2.609   1.177  16.357 -0.1295  1.3290 -1.9923
 9315TIP3   OH249435   0.192   2.014  16.432 -0.3793 -0.2843 -0.5917
 9315TIP3    H149436   0.168   2.095  16.386 -0.3578 -0.0397 -0.1726
 9315TIP3    H249437   0.196   1.948  16.363  0.6429  0.2946 -1.0854
 9316TIP3   OH249438   3.870   4.185  13.357 -0.1890  0.6089  0.3935
 9316TIP3    H149439   3.903   4.274  13.343 -1.5716  0.9309 -0.7915
 9316TIP3    H249440   3.845   4.183  13.450 -0.2546  1.4814  0.3925
 9317TIP3   OH249441   4.487   4.419   4.597  0.0602 -0.5389  0.3997
 9317TIP3    H149442   4.562   4.458   4.641 -0.0776  1.6708 -1.2552
 9317TIP3    H249443   4.523   4.383   4.516 -0.6973  0.9393 -0.6224
 9318TIP3   OH249444   1.992   4.015   0.810 -0.4781 -0.0517  0.4086
 9318TIP3    H149445   1.913   4.070   0.812  0.0171  0.7329 -1.4211
 9318TIP3    H249446   1.960   3.929   0.785 -0.7624  0.2458 -0.2501
 9319TIP3   OH249447   5.535   2.787   3.222  0.7152  0.6331  0.1824
 9319TIP3    H149448   5.522   2.854   3.289 -0.8279  0.0778  0.4622
 9319TIP3    H249449   5.557   2.708   3.271  1.0788  0.5852 -0.0580
 9320TIP3   OH249450   3.283   3.189   2.527  0.7127  0.1229 -0.9785
 9320TIP3    H149451   3.224   3.228   2.591  1.2638 -1.3188  0.4387
 9320TIP3    H249452   3.252   3.099   2.518  2.7473 -0.6875 -0.1219
 9321TIP3   OH249453   0.608   1.893   5.718  0.5088  0.2076 -0.0330
 9321TIP3    H149454   0.541   1.886   5.650  0.8889 -0.4137 -0.3514
 9321TIP3    H249455   0.601   1.983   5.751  0.6329  0.6571 -1.2151
 9322TIP3   OH249456   4.329   6.607   2.108  0.0173 -0.0599  0.2482
 9322TIP3    H149457   4.409   6.621   2.158 -1.1109  0.3766  1.9836
 9322TIP3    H249458   4.301   6.695   2.082  0.3767 -0.2532 -0.7926
 9323TIP3   OH249459   1.633   5.463  11.423  0.9650 -0.3121 -0.0763
 9323TIP3    H149460   1.625   5.502  11.336 -0.7866 -0.8666 -0.1994
 9323TIP3    H249461   1.568   5.509  11.476  1.8502 -0.1411  0.8841
 9324TIP3   OH249462   3.109   1.137   1.269  0.2852 -0.1190  0.3349
 9324TIP3    H149463   3.133   1.222   1.232  1.0201 -0.4531  0.0303
 9324TIP3    H249464   3.169   1.075   1.228  0.5163 -0.6249  1.3983
 9325TIP3   OH249465   3.263   1.027  16.080 -0.8249 -0.3686  0.0290
 9325TIP3    H149466   3.274   0.957  16.144  2.0001 -0.6311 -0.6769
 9325TIP3    H249467   3.216   1.096  16.127 -0.8793 -1.4964  1.6561
 9326TIP3   OH249468   5.265   0.242  12.642  0.8438 -0.1268  0.1108
 9326TIP3    H149469   5.312   0.283  12.715  0.0223  0.0415  0.5529
 9326TIP3    H249470   5.297   0.289  12.564  0.5570  0.7661  0.5253
 9327TIP3   OH249471   1.640   2.607  14.785 -0.0177 -0.1036  0.3241
 9327TIP3    H149472   1.663   2.515  14.774 -0.7835 -0.3331  0.6050
 9327TIP3    H249473   1.724   2.651  14.802  0.1958 -0.9410  1.4819
 9328TIP3   OH249474   5.838   6.033  14.066 -0.3398  0.2431 -0.5846
 9328TIP3    H149475   5.880   5.963  14.116 -2.5881 -0.3017  0.6216
 9328TIP3    H249476   5.791   5.987  13.996 -0.4364  0.6729 -0.8004
 9329TIP3   OH249477   5.300   2.278  16.151  0.1041  0.0759 -0.0582
 9329TIP3    H149478   5.314   2.353  16.094  1.5793  0.4437  0.7703
 9329TIP3    H249479   5.325   2.308  16.238  0.5770 -1.3175  0.3111
 9330TIP3   OH249480   1.283   0.807   6.333  0.3980 -0.9825  0.7249
 9330TIP3    H149481   1.345   0.809   6.260  0.5835 -1.7589  0.8645
 9330TIP3    H249482   1.303   0.887   6.383 -0.9907  0.5561 -1.0994
 9331TIP3   OH249483   4.614   3.693  16.323  0.0544 -0.3527 -0.3885
 9331TIP3    H149484   4.570   3.611  16.303 -3.1498  1.2406 -0.2652
 9331TIP3    H249485   4.627   3.691  16.418 -0.5411 -0.4861 -0.3067
 9332TIP3   OH249486   6.206   1.502  14.869 -0.4373  0.2006 -0.0819
 9332TIP3    H149487   6.280   1.492  14.929 -0.7409  0.0410  0.2746
 9332TIP3    H249488   6.147   1.430  14.893  0.3612 -1.0974 -1.9375
 9333TIP3   OH249489   5.849   6.298   1.481  0.1778 -0.0150 -0.0698
 9333TIP3    H149490   5.829   6.368   1.419 -1.2663  1.1358  1.6517
 9333TIP3    H249491   5.890   6.343   1.555 -0.8321 -0.9764  1.0770
 9334TIP3   OH249492   4.264   3.690  15.310 -0.3251 -0.3671 -0.4729
 9334TIP3    H149493   4.316   3.670  15.233 -1.0958  0.7989 -1.3080
 9334TIP3    H249494   4.238   3.782  15.299 -2.8548 -1.0098 -0.2838
 9335TIP3   OH249495   4.940   6.701  15.361 -0.0790  0.5258 -0.2009
 9335TIP3    H149496   4.911   6.778  15.410  0.7652  0.4439  0.4386
 9335TIP3    H249497   5.027   6.726  15.329 -0.4229  0.3963 -1.2481
 9336TIP3   OH249498   3.242   2.644  16.100 -0.2052  0.4535 -0.1364
 9336TIP3    H149499   3.174   2.642  16.167  0.1632  2.0368  0.2877
 9336TIP3    H249500   3.324   2.645  16.149  0.1357 -0.7749 -0.6441
 9337TIP3   OH249501   5.263   6.280  15.561 -0.0111 -0.1471 -0.1978
 9337TIP3    H149502   5.169   6.273  15.578 -0.0080 -0.0830 -0.1522
 9337TIP3    H249503   5.274   6.365  15.519 -0.0331 -0.3561 -0.6299
 9338TIP3   OH249504   0.186   1.958  13.376  0.5110  0.1359 -0.2658
 9338TIP3    H149505   0.275   1.985  13.353  0.3063 -0.3420 -1.6797
 9338TIP3    H249506   0.195   1.867  13.405  0.3209 -0.3352 -1.6414
 9339TIP3   OH249507   6.536   1.330  15.578 -0.1632  0.1220 -0.1631
 9339TIP3    H149508   6.515   1.389  15.505  0.3047  1.5958  0.8686
 9339TIP3    H249509   6.547   1.244  15.537 -0.9260  0.7284 -1.6905
 9340TIP3   OH249510   6.118   2.902  15.379  0.7321 -0.3263 -0.1472
 9340TIP3    H149511   6.205   2.869  15.400  1.3897  1.5312  0.1442
 9340TIP3    H249512   6.134   2.986  15.336 -0.8829 -0.4932 -1.0974
 9341TIP3   OH249513   3.071   3.225  13.572  0.0326 -0.1714  0.1854
 9341TIP3    H149514   3.139   3.169  13.534  1.3241 -1.6546  4.3841
 9341TIP3    H249515   3.072   3.203  13.665 -1.8305  4.4155  1.3938
 9342TIP3   OH249516   3.495   6.704   2.899  0.4112  0.4395  0.1991
 9342TIP3    H149517   3.523   6.778   2.845 -1.2224 -0.3114 -1.7445
 9342TIP3    H249518   3.507   6.627   2.844 -2.0586 -0.2646  0.5709
 9343TIP3   OH249519   4.421   1.661  15.895 -0.2022 -0.3492 -0.1416
 9343TIP3    H149520   4.429   1.754  15.872 -1.3934  0.0847  1.1574
 9343TIP3    H249521   4.448   1.656  15.986 -1.3045 -1.0768  0.1539
 9344TIP3   OH249522   3.372   6.205   2.858  0.6082 -0.5488 -0.2019
 9344TIP3    H149523   3.451   6.253   2.881  0.3455  0.1322 -0.6944
 9344TIP3    H249524   3.401   6.137   2.798  1.1890 -1.8846  1.5422
 9345TIP3   OH249525   0.819   6.726  16.805 -0.0679 -0.2300  0.1302
 9345TIP3    H149526   0.816   6.793  16.737  1.4125 -0.3762 -0.1046
 9345TIP3    H249527   0.878   6.659  16.769 -0.3797 -0.9593  0.9712
 9346TIP3   OH249528   6.559   1.770  13.573  0.1257 -0.3395 -0.3581
 9346TIP3    H149529   6.473   1.779  13.615  0.7743  1.4768  0.6383
 9346TIP3    H249530   6.611   1.842  13.609  2.8822 -2.9242  1.0487
 9347TIP3   OH249531   1.237   5.537   5.125  0.4924  0.0090  0.4897
 9347TIP3    H149532   1.201   5.517   5.211  1.6008 -0.6968  0.8038
 9347TIP3    H249533   1.271   5.626   5.132 -0.2933  0.3031  0.4940
 9348TIP3   OH249534   2.174   5.407   2.688  0.4714 -0.5013 -0.2220
 9348TIP3    H149535   2.243   5.341   2.699  0.2515 -0.6689  0.1720
 9348TIP3    H249536   2.196   5.476   2.750  0.2512 -0.5841 -0.0501
 9349TIP3   OH249537   0.831   1.898   1.403  0.5150  0.1486 -0.7054
 9349TIP3    H149538   0.902   1.909   1.466  1.6354 -0.0252 -1.9109
 9349TIP3    H249539   0.845   1.810   1.367 -0.1289  0.2285 -1.1620
 9350TIP3   OH249540   6.160   1.228   5.476 -0.1720  0.5661 -0.7480
 9350TIP3    H149541   6.218   1.226   5.552 -1.4601  0.0678  0.2248
 9350TIP3    H249542   6.166   1.139   5.439 -1.2146  0.1707  0.0323
 9351TIP3   OH249543   3.695   3.795  13.106 -0.8077 -0.3971 -1.0627
 9351TIP3    H149544   3.768   3.853  13.088 -0.9735  0.3560  0.5834
 9351TIP3    H249545   3.711   3.718  13.052  2.1564 -1.0001  0.5659
 9352TIP3   OH249546   6.471   3.848  15.584  0.1752 -0.4355  0.2027
 9352TIP3    H149547   6.448   3.755  15.576 -0.4824 -0.2540 -0.0583
 9352TIP3    H249548   6.410   3.882  15.649  0.0204 -0.0557 -0.1387
 9353TIP3   OH249549   1.334   3.406  16.365 -0.2695  0.1184 -0.1224
 9353TIP3    H149550   1.293   3.355  16.435  0.8010  0.3147  0.6714
 9353TIP3    H249551   1.269   3.409  16.295 -2.2171  1.7162  1.6861
 9354TIP3   OH249552   3.065   6.808   1.497 -0.4816  0.5479  0.3366
 9354TIP3    H149553   3.028   6.873   1.556 -1.3573  0.1621  0.2240
 9354TIP3    H249554   3.099   6.858   1.423 -1.3071  0.8644  0.1711
 9355TIP3   OH249555   2.627   4.477   4.921 -0.2097 -0.2231 -0.3675
 9355TIP3    H149556   2.594   4.533   4.991  0.5594  0.4452 -0.5290
 9355TIP3    H249557   2.649   4.395   4.964  0.0803  0.1216  0.1462
 9356TIP3   OH249558   3.504   0.580  14.741 -0.0506  0.1565  0.6918
 9356TIP3    H149559   3.568   0.628  14.793  0.7199  0.2379 -0.3138
 9356TIP3    H249560   3.524   0.603  14.651 -1.8190  0.5484  0.3937
 9357TIP3   OH249561   5.614   1.778   2.510  0.0730 -0.2867 -0.0145
 9357TIP3    H149562   5.652   1.699   2.471 -2.0584 -1.6971  0.6889
 9357TIP3    H249563   5.523   1.777   2.481 -0.5948  0.6233  1.9678
 9358TIP3   OH249564   4.261   2.026  17.002 -0.2456  0.1520 -0.5646
 9358TIP3    H149565   4.336   1.991  17.049 -0.7509  0.2894  0.3630
 9358TIP3    H249566   4.258   1.975  16.920  0.2073 -0.5909 -0.1264
 9359TIP3   OH249567   6.816   1.669  11.774  1.0331  0.1477  0.1426
 9359TIP3    H149568   6.757   1.744  11.768 -0.4060 -0.8542  1.3165
 9359TIP3    H249569   6.896   1.704  11.813  1.4495  1.6287 -1.9755
 9360TIP3   OH249570   3.300   0.570  13.641 -1.1506 -0.2675 -0.1157
 9360TIP3    H149571   3.242   0.530  13.706 -1.5888 -1.0981 -1.0045
 9360TIP3    H249572   3.247   0.575  13.562 -0.5556  0.5597 -0.4670
 9361TIP3   OH249573   3.360   5.892   2.453 -0.3742 -0.3222 -0.0021
 9361TIP3    H149574   3.413   5.869   2.377  0.7129  1.2212  0.2517
 9361TIP3    H249575   3.363   5.814   2.508  0.3472 -0.8183 -0.7282
 9362TIP3   OH249576   5.477   1.344   4.323  0.3058  0.4222 -0.0211
 9362TIP3    H149577   5.510   1.409   4.385  0.6306 -0.3303  0.6015
 9362TIP3    H249578   5.486   1.260   4.368  0.1925 -0.0973 -0.9376
 9363TIP3   OH249579   1.345   5.198   0.377 -0.1986  0.4234  0.3445
 9363TIP3    H149580   1.302   5.269   0.425  0.3559  0.2993  1.0286
 9363TIP3    H249581   1.322   5.214   0.286 -1.0936  0.7784  0.6279
 9364TIP3   OH249582   0.687   0.718  17.063 -0.2917  0.1796  0.2957
 9364TIP3    H149583   0.744   0.769  17.006  0.7661 -0.6765  0.5668
 9364TIP3    H249584   0.620   0.683  17.004 -0.4092  1.0089 -0.0667
 9365TIP3   OH249585   3.255   3.367  11.690 -0.7377 -0.0975 -0.2097
 9365TIP3    H149586   3.254   3.428  11.764 -0.4237 -1.5974  1.0468
 9365TIP3    H249587   3.197   3.296  11.716  0.0574 -1.0723 -1.0362
 9366TIP3   OH249588   2.845   2.376   3.412  0.2671 -0.6378 -0.1211
 9366TIP3    H149589   2.781   2.355   3.480 -0.0837  0.3867 -0.1147
 9366TIP3    H249590   2.915   2.312   3.424  0.1797 -0.5123  1.1723
 9367TIP3   OH249591   6.161   2.929  12.399  0.0675 -0.5039  0.6226
 9367TIP3    H149592   6.071   2.956  12.385  0.5646  0.5423 -0.6112
 9367TIP3    H249593   6.180   2.956  12.489 -0.4533  0.3785  0.4722
 9368TIP3   OH249594   0.732   2.979   4.134 -0.0177  0.5199 -0.3693
 9368TIP3    H149595   0.678   3.032   4.193 -0.1725 -0.1439  0.0988
 9368TIP3    H249596   0.821   3.010   4.148 -0.0325  0.2455  0.3497
 9369TIP3   OH249597   4.699   1.374  12.326  0.2721  0.7857  0.2593
 9369TIP3    H149598   4.709   1.305  12.391 -1.0470 -0.1082 -0.4480
 9369TIP3    H249599   4.786   1.388  12.290  0.3272 -1.4828 -0.5448
 9370TIP3   OH249600   0.737   2.850   0.424  0.4254 -0.2848 -0.1081
 9370TIP3    H149601   0.648   2.850   0.391  0.4107  1.6344 -0.1305
 9370TIP3    H249602   0.738   2.916   0.493  1.2753 -1.9149  1.4992
 9371TIP3   OH249603   0.174   2.343   5.009 -0.2692 -0.0756  0.8269
 9371TIP3    H149604   0.144   2.389   5.088 -0.1261 -0.4461  1.0970
 9371TIP3    H249605   0.223   2.409   4.960  0.3182 -0.0609  1.4290
 9372TIP3   OH249606   6.395   4.812  13.950 -0.4082 -0.2277  0.8912
 9372TIP3    H149607   6.481   4.788  13.914 -1.3266 -0.7715 -1.0491
 9372TIP3    H249608   6.385   4.756  14.027  0.6376 -0.7252  0.6828
 9373TIP3   OH249609   5.605   2.684  10.924 -0.4668 -0.0758  0.0739
 9373TIP3    H149610   5.610   2.589  10.920 -1.0499 -0.0393 -1.9800
 9373TIP3    H249611   5.691   2.714  10.897 -0.6380 -0.0106 -0.4084
 9374TIP3   OH249612   4.199   2.296  13.778  0.3355 -0.4262  0.3265
 9374TIP3    H149613   4.169   2.238  13.849 -1.7263  0.8241  0.4953
 9374TIP3    H249614   4.245   2.237  13.718  1.7514 -1.5886  2.4639
 9375TIP3   OH249615   0.403   6.248  11.797 -0.2928 -0.1246 -0.0323
 9375TIP3    H149616   0.383   6.243  11.891 -0.2331  2.0396  0.1168
 9375TIP3    H249617   0.318   6.260  11.755 -0.1223  0.9827 -0.0708
 9376TIP3   OH249618   2.471   5.920   4.934  0.2452  0.0580 -1.1775
 9376TIP3    H149619   2.388   5.966   4.943  0.8329  1.2043 -1.4973
 9376TIP3    H249620   2.513   5.961   4.858  1.5738  0.2251 -0.3744
 9377TIP3   OH249621   0.128   3.864  16.624  0.2955  0.0372 -0.0334
 9377TIP3    H149622   0.198   3.867  16.558 -0.1996  2.2342 -0.4820
 9377TIP3    H249623   0.151   3.933  16.686  0.1267 -1.2417  1.4755
 9378TIP3   OH249624   2.859   1.401  12.123 -0.0807  0.2718  0.2589
 9378TIP3    H149625   2.920   1.396  12.049  1.4623 -1.6591  1.6087
 9378TIP3    H249626   2.899   1.464  12.183 -0.2161  0.2045  0.4204
 9379TIP3   OH249627   1.739   3.267  16.860  0.1962  0.6257  0.0182
 9379TIP3    H149628   1.797   3.337  16.889  0.0341  0.8381 -0.1679
 9379TIP3    H249629   1.660   3.278  16.912  0.3163  0.3461  0.2606
 9380TIP3   OH249630   2.552   4.254   4.012  0.2704 -0.1845 -0.2794
 9380TIP3    H149631   2.640   4.288   4.028 -0.0961  1.5542 -1.8278
 9380TIP3    H249632   2.566   4.179   3.955  0.8746 -1.0327  0.9593
 9381TIP3   OH249633   4.265   1.321   0.328  0.9732  0.1560 -0.1641
 9381TIP3    H149634   4.252   1.233   0.362  0.8573 -0.4001 -1.6147
 9381TIP3    H249635   4.220   1.378   0.391  0.9220 -0.8197  0.6966
 9382TIP3   OH249636   5.525   3.681  15.285 -0.6049  0.2974  0.2983
 9382TIP3    H149637   5.535   3.586  15.290 -1.8907  0.1639  0.5747
 9382TIP3    H249638   5.564   3.714  15.367 -0.6720 -0.0340  0.4621
 9383TIP3   OH249639   5.790   3.274   5.651 -0.5389 -0.2611  0.0507
 9383TIP3    H149640   5.754   3.359   5.674 -0.1309 -0.3604  1.0896
 9383TIP3    H249641   5.740   3.212   5.705  0.0122 -0.5537  0.2291
 9384TIP3   OH249642   5.753   6.101   5.370  1.0615  0.2470 -0.1660
 9384TIP3    H149643   5.799   6.136   5.446  1.6149 -2.1431  0.6471
 9384TIP3    H249644   5.679   6.054   5.406  0.5799  0.1950 -1.1975
 9385TIP3   OH249645   4.932   0.082   5.190  0.1753 -0.0328  0.3023
 9385TIP3    H149646   4.912   0.123   5.106 -0.7744  1.7871  1.3939
 9385TIP3    H249647   5.024   0.106   5.207 -0.2274  1.2767  0.7054
 9386TIP3   OH249648   6.149   1.783  15.489  0.0690 -0.4006  0.2710
 9386TIP3    H149649   6.132   1.877  15.488  0.5140 -0.3175  0.2949
 9386TIP3    H249650   6.136   1.757  15.580 -3.3600 -0.9901 -0.3250
 9387TIP3   OH249651   1.310   2.921  14.697 -0.5047  0.0215 -0.4451
 9387TIP3    H149652   1.353   2.959  14.620  1.7183 -0.8411  0.3367
 9387TIP3    H249653   1.237   2.980  14.715  0.3639  1.5497 -1.7823
 9388TIP3   OH249654   1.854   3.276   1.656 -0.6034  0.4308  0.0358
 9388TIP3    H149655   1.919   3.292   1.588 -0.5660  2.1766  0.4592
 9388TIP3    H249656   1.875   3.339   1.725 -0.1645 -1.8362  2.0251
 9389TIP3   OH249657   3.614   3.219  11.675  0.1413  0.1757 -0.0797
 9389TIP3    H149658   3.703   3.193  11.652  0.8852  2.4698  0.0188
 9389TIP3    H249659   3.558   3.171  11.614  1.5242 -0.5464 -0.8024
 9390TIP3   OH249660   0.700   1.840   2.713  0.3444 -0.3583  0.6993
 9390TIP3    H149661   0.705   1.914   2.774  0.5319 -0.5786  0.9563
 9390TIP3    H249662   0.760   1.775   2.750 -2.6322 -2.1507  2.5833
 9391TIP3   OH249663   0.526   5.553   0.874  0.1101 -0.0518 -0.0986
 9391TIP3    H149664   0.622   5.552   0.883 -0.0038  0.3917  1.4020
 9391TIP3    H249665   0.499   5.463   0.894  0.1980 -0.1399 -0.3719
 9392TIP3   OH249666   6.010   0.674  14.241 -0.1321  0.0326  0.6498
 9392TIP3    H149667   5.973   0.588  14.222 -0.5185  0.4758 -0.6901
 9392TIP3    H249668   5.933   0.732  14.249  0.1135  0.2218  1.7373
 9393TIP3   OH249669   6.555   6.407   4.215  0.3884 -0.2243 -0.1860
 9393TIP3    H149670   6.604   6.353   4.277 -0.2123 -0.6526 -0.0801
 9393TIP3    H249671   6.465   6.404   4.247  0.2925  0.5767 -0.3675
 9394TIP3   OH249672   3.541   5.562  16.164 -0.8227 -0.2863  0.1401
 9394TIP3    H149673   3.532   5.467  16.170  1.0508 -0.4735  0.1373
 9394TIP3    H249674   3.608   5.584  16.228 -0.9368  0.9908 -0.1679
 9395TIP3   OH249675   1.810   1.236  15.634  0.2403 -0.2830  0.0092
 9395TIP3    H149676   1.811   1.186  15.716 -2.5392 -0.6341 -0.1361
 9395TIP3    H249677   1.899   1.228  15.601  0.8087 -2.0860  1.8373
 9396TIP3   OH249678   1.072   1.303   3.141  0.2340 -0.0530 -0.2337
 9396TIP3    H149679   1.011   1.252   3.088 -0.0118  1.9860 -1.9401
 9396TIP3    H249680   1.018   1.335   3.214 -0.5811  1.1710 -1.3658
 9397TIP3   OH249681   5.927   0.973  10.684 -0.4836 -0.2493 -0.0914
 9397TIP3    H149682   5.931   0.984  10.589  1.3305  1.2517  0.1369
 9397TIP3    H249683   6.016   0.947  10.710 -0.2114  2.1107  1.5066
 9398TIP3   OH249684   1.920   5.400   0.316  0.7006 -1.0817 -0.4814
 9398TIP3    H149685   1.900   5.460   0.388 -1.5546 -2.0217 -0.2758
 9398TIP3    H249686   2.015   5.406   0.306  1.0676 -0.9246  2.5654
 9399TIP3   OH249687   2.691   5.982  11.632  0.0007  0.4645  0.5503
 9399TIP3    H149688   2.616   6.010  11.684  2.0805  2.7720  2.4058
 9399TIP3    H249689   2.661   5.903  11.587 -3.0264  0.4904  2.4161
 9400TIP3   OH249690   0.516   2.337  13.551  0.3812  0.3214 -0.0238
 9400TIP3    H149691   0.596   2.285  13.561 -0.6612 -1.2091  0.5631
 9400TIP3    H249692   0.487   2.352  13.641  0.2194  1.2097 -0.2254
 9401TIP3   OH249693   4.307   1.784  11.852 -0.0890 -0.1270 -0.4474
 9401TIP3    H149694   4.389   1.806  11.806  0.3364 -0.9828 -0.1150
 9401TIP3    H249695   4.336   1.750  11.936 -0.8576  1.2731  0.4069
 9402TIP3   OH249696   2.409   1.017   1.294 -0.0975  0.2772  0.3371
 9402TIP3    H149697   2.482   1.034   1.352 -0.1048 -0.3447  0.5373
 9402TIP3    H249698   2.340   1.077   1.321  0.9703  2.1618 -1.0444
 9403TIP3   OH249699   1.027   5.921  14.554  0.1713 -0.9476  0.5447
 9403TIP3    H149700   1.008   5.853  14.618 -1.7273 -0.6865  0.2772
 9403TIP3    H249701   1.023   6.003  14.603 -1.0885 -0.7636  0.1439
 9404TIP3   OH249702   4.195   1.793   3.918  0.0371  0.0827 -0.3856
 9404TIP3    H149703   4.127   1.773   3.982  2.2876  0.0658  2.0892
 9404TIP3    H249704   4.148   1.807   3.835 -2.8819 -0.3860  1.1577
 9405TIP3   OH249705   0.106   6.642   0.137  0.1695  0.3705 -0.0542
 9405TIP3    H149706   0.055   6.592   0.074 -1.0787 -0.3423  1.4926
 9405TIP3    H249707   0.092   6.734   0.111  1.6101  0.0259 -2.2318
 9406TIP3   OH249708   0.595   6.194   0.733  0.2290  0.1808  0.2556
 9406TIP3    H149709   0.577   6.175   0.825  0.5336 -1.3686 -0.0012
 9406TIP3    H249710   0.538   6.135   0.684  0.0794  0.9848 -0.5582
 9407TIP3   OH249711   1.944   6.761  15.569  0.1977 -0.4177  0.4315
 9407TIP3    H149712   1.874   6.696  15.559  0.2162 -0.2714 -0.6894
 9407TIP3    H249713   1.912   6.819  15.639 -0.6627 -0.5427  0.1565
 9408TIP3   OH249714   3.094   3.559  13.162 -0.2480 -0.3702 -0.1358
 9408TIP3    H149715   3.057   3.473  13.184  0.7162 -0.5634  0.7839
 9408TIP3    H249716   3.112   3.554  13.068 -1.1619 -0.7966 -0.2989
 9409TIP3   OH249717   0.015   3.178   1.585 -0.0913  0.0072  0.0784
 9409TIP3    H149718   0.093   3.213   1.627 -1.5470  2.5877  0.7286
 9409TIP3    H249719   0.044   3.154   1.497  1.6421  0.0345  0.6270
 9410TIP3   OH249720   3.530   2.325  12.905  0.0973 -0.3233 -0.2082
 9410TIP3    H149721   3.540   2.418  12.925  3.1017 -0.7836  0.6215
 9410TIP3    H249722   3.517   2.322  12.810 -0.7624  0.9720 -0.1472
 9411TIP3   OH249723   2.663   4.844   0.697  0.1147 -0.3669 -0.2367
 9411TIP3    H149724   2.586   4.887   0.659  0.3061 -0.4902 -0.7707
 9411TIP3    H249725   2.710   4.915   0.740  2.2832  0.7056 -4.1346
 9412TIP3   OH249726   4.620   3.603   4.254 -0.1000  0.2439  0.3981
 9412TIP3    H149727   4.638   3.517   4.216 -0.1719 -0.3527  1.6841
 9412TIP3    H249728   4.686   3.661   4.217 -0.9660 -0.0306 -1.6459
 9413TIP3   OH249729   2.946   0.192   0.934  0.4350 -0.1533  0.3992
 9413TIP3    H149730   2.926   0.098   0.939  0.3521 -0.2189 -0.9008
 9413TIP3    H249731   3.033   0.199   0.972 -0.3070 -0.4804  2.2085
 9414TIP3   OH249732   4.169   5.318  14.478  0.3061 -0.0163  0.0354
 9414TIP3    H149733   4.101   5.356  14.422 -0.3663 -0.5820  0.4605
 9414TIP3    H249734   4.145   5.226  14.487  1.5292 -0.3902 -0.3907
 9415TIP3   OH249735   3.626   1.049   2.706  0.7994 -0.2376 -0.2302
 9415TIP3    H149736   3.641   1.109   2.633  0.3870  0.6365  0.3919
 9415TIP3    H249737   3.622   1.106   2.783 -1.2951 -0.8807  0.1726
 9416TIP3   OH249738   0.774   6.793   5.084 -0.5449  0.1156  0.1181
 9416TIP3    H149739   0.726   6.791   5.001 -0.5816  1.1688  0.1074
 9416TIP3    H249740   0.861   6.759   5.063 -0.0322  1.8874 -0.7045
 9417TIP3   OH249741   2.806   0.518   0.570  0.0053  0.4869  0.1290
 9417TIP3    H149742   2.734   0.562   0.614  0.4178  0.7889  0.5049
 9417TIP3    H249743   2.885   0.550   0.614  0.2267 -2.0502  1.6908
 9418TIP3   OH249744   4.615   4.432   0.938 -0.1156  0.0402 -0.0993
 9418TIP3    H149745   4.540   4.390   0.979  0.3892 -0.7678  0.0096
 9418TIP3    H249746   4.590   4.441   0.846 -0.3908 -0.1226 -0.0409
 9419TIP3   OH249747   3.719   5.971   4.845 -0.4029 -0.4240  0.3596
 9419TIP3    H149748   3.748   6.014   4.764 -2.4865  0.3664 -0.0116
 9419TIP3    H249749   3.742   5.879   4.832 -1.6000 -0.4880 -1.6074
 9420TIP3   OH249750   4.562   0.659   2.733 -0.0576 -0.0367  0.2077
 9420TIP3    H149751   4.476   0.630   2.763  0.5979 -2.1609  0.1721
 9420TIP3    H249752   4.561   0.645   2.639  0.4321 -0.4373  0.2547
 9421TIP3   OH249753   4.727   0.913   3.280 -0.0536  0.0291  0.7748
 9421TIP3    H149754   4.632   0.920   3.269  0.0180  2.2439  1.3100
 9421TIP3    H249755   4.756   1.003   3.296  2.2413 -0.5255 -0.0978
 9422TIP3   OH249756   5.698   5.143   0.762 -0.6684 -0.4340  0.0468
 9422TIP3    H149757   5.714   5.235   0.744 -0.8539 -0.2879  0.6241
 9422TIP3    H249758   5.785   5.102   0.760 -0.7645 -0.5781 -1.9974
 9423TIP3   OH249759   4.433   0.090  15.215  0.3206 -0.3526 -0.0625
 9423TIP3    H149760   4.347   0.048  15.212  0.2455 -0.1355 -1.1620
 9423TIP3    H249761   4.477   0.049  15.289 -0.2161 -1.4672 -0.3458
 9424TIP3   OH249762   3.230   0.463   1.633  0.0881  0.0915  0.0820
 9424TIP3    H149763   3.261   0.460   1.723 -1.5683  2.6213  0.8008
 9424TIP3    H249764   3.307   0.488   1.582  0.5933  0.5703  1.0705
 9425TIP3   OH249765   6.676   5.754   4.334 -0.2137  0.2054 -0.0464
 9425TIP3    H149766   6.733   5.786   4.404  0.0545  0.2890 -0.2992
 9425TIP3    H249767   6.672   5.659   4.347 -1.0038  0.3291  0.7040
 9426TIP3   OH249768   1.527   6.307   4.947 -0.1704 -0.1231  0.1588
 9426TIP3    H149769   1.442   6.350   4.934 -0.3811 -0.4135  0.5387
 9426TIP3    H249770   1.563   6.298   4.859 -0.4318  0.2098  0.0161
 9427TIP3   OH249771   2.862   0.436   4.350 -0.3255 -0.4270  0.0159
 9427TIP3    H149772   2.825   0.379   4.282 -1.4350  0.9711 -0.5925
 9427TIP3    H249773   2.789   0.453   4.409 -1.1013  3.3646 -1.8648
 9428TIP3   OH249774   3.809   3.079  15.168 -0.4786  0.4308  0.4679
 9428TIP3    H149775   3.833   3.020  15.239  0.1972 -0.3936 -0.4253
 9428TIP3    H249776   3.890   3.124  15.145 -0.2477 -0.6893 -1.0184
 9429TIP3   OH249777   3.848   5.021   5.125  0.6793  0.0068  0.5015
 9429TIP3    H149778   3.846   5.116   5.137  0.5762  0.4750 -2.6623
 9429TIP3    H249779   3.939   5.002   5.099  0.4308 -0.6103  0.0764
 9430TIP3   OH249780   1.186   2.586  14.237 -0.1033  0.0618  0.4447
 9430TIP3    H149781   1.233   2.653  14.187 -1.9642 -0.3184 -1.9279
 9430TIP3    H249782   1.255   2.531  14.274  1.3956 -0.3496 -2.7472
 9431TIP3   OH249783   6.530   5.174   5.629  0.0295 -0.1524 -0.3790
 9431TIP3    H149784   6.498   5.199   5.715  1.4652 -1.3031  0.5114
 9431TIP3    H249785   6.610   5.226   5.617  0.9730 -1.5031 -0.1037
 9432TIP3   OH249786   4.863   3.267   2.989 -0.3982 -0.0108  0.2182
 9432TIP3    H149787   4.952   3.249   2.959  0.4090  0.6922  2.0874
 9432TIP3    H249788   4.865   3.358   3.017 -2.2513  0.5973 -1.5097
 9433TIP3   OH249789   0.951   6.602  12.981 -0.5878 -0.1100  0.7873
 9433TIP3    H149790   0.930   6.665  13.049 -1.4422 -0.3223  0.7364
 9433TIP3    H249791   1.022   6.642  12.931 -0.6393  0.4883  1.1894
 9434TIP3   OH249792   0.500   6.039  11.000  0.1618  0.5161 -0.0273
 9434TIP3    H149793   0.460   6.125  10.994  0.9720  0.8773 -0.3679
 9434TIP3    H249794   0.570   6.040  10.934 -0.7484 -0.9094 -1.0404
 9435TIP3   OH249795   6.233   1.268   3.251  0.2237  1.1501 -0.0311
 9435TIP3    H149796   6.245   1.178   3.221 -1.0097  0.5793  1.1314
 9435TIP3    H249797   6.311   1.287   3.303 -1.0218 -0.4359  2.5123
 9436TIP3   OH249798   3.372   5.696   6.137  0.4368 -0.4362 -0.0429
 9436TIP3    H149799   3.403   5.786   6.126 -1.2330  0.1593 -0.0102
 9436TIP3    H249800   3.387   5.656   6.051 -0.0181  0.2600 -0.4564
 9437TIP3   OH249801   0.529   1.908  11.665 -0.9756 -0.0182  0.0867
 9437TIP3    H149802   0.577   1.826  11.650  1.1755  1.4987 -1.8285
 9437TIP3    H249803   0.547   1.930  11.756  0.8725 -0.2308 -0.1996
 9438TIP3   OH249804   0.205   5.044  17.116  0.8168 -0.5893 -0.1991
 9438TIP3    H149805   0.168   5.081  17.036 -0.6650 -1.1751  0.1972
 9438TIP3    H249806   0.260   5.114  17.151 -1.4583  1.0630  0.2093
 9439TIP3   OH249807   6.802   6.037  16.568 -0.0630 -0.0967  0.6470
 9439TIP3    H149808   6.832   5.960  16.519 -0.6039  1.0794 -1.5819
 9439TIP3    H249809   6.707   6.031  16.567 -0.1535  1.1663 -0.5399
 9440TIP3   OH249810   3.065   6.382   1.159  0.0876  0.8209 -0.1529
 9440TIP3    H149811   3.104   6.468   1.145  0.4151  1.2040  2.8575
 9440TIP3    H249812   3.135   6.320   1.138  1.7045  1.4601  2.9887
 9441TIP3   OH249813   3.235   1.248  16.242  0.4511 -0.0960  0.4808
 9441TIP3    H149814   3.309   1.196  16.272 -0.0862 -1.6493 -0.8483
 9441TIP3    H249815   3.193   1.279  16.322  1.1572 -1.1586  1.2658
 9442TIP3   OH249816   4.949   2.361  15.799  0.1694  0.0429 -0.4791
 9442TIP3    H149817   5.016   2.406  15.748 -0.0384 -0.2059 -0.9704
 9442TIP3    H249818   4.880   2.427  15.813  0.3310  0.1778 -0.3192
 9443TIP3   OH249819   1.357   0.114   5.144 -0.0213  0.0995  0.5262
 9443TIP3    H149820   1.385   0.113   5.235 -1.4865 -1.7534  0.9917
 9443TIP3    H249821   1.285   0.178   5.142 -1.0008 -0.9707  1.0087
 9444TIP3   OH249822   1.495   6.462  13.578  0.4141 -0.1544 -0.4383
 9444TIP3    H149823   1.530   6.391  13.632  0.6569 -1.5768 -2.3998
 9444TIP3    H249824   1.572   6.500  13.535  0.0724 -0.1349 -1.0447
 9445TIP3   OH249825   1.539   0.806  12.462 -0.1794 -0.0907 -0.1650
 9445TIP3    H149826   1.564   0.839  12.548 -1.6061  1.6727 -0.3965
 9445TIP3    H249827   1.577   0.868  12.400 -0.4872 -0.4685 -0.7342
 9446TIP3   OH249828   5.473   4.535  13.235  0.6118  0.1963  0.3444
 9446TIP3    H149829   5.468   4.441  13.217  2.8854 -0.1055  1.0592
 9446TIP3    H249830   5.446   4.544  13.326  2.1127 -0.0245  0.8300
 9447TIP3   OH249831   2.042   4.228  14.362  0.0771  0.2696  0.7773
 9447TIP3    H149832   2.124   4.179  14.370  0.0699 -0.1166 -1.3102
 9447TIP3    H249833   2.025   4.232  14.268 -1.5623  1.5897  1.1018
 9448TIP3   OH249834   4.931   2.329  12.151  0.2128  0.4752 -0.7366
 9448TIP3    H149835   4.905   2.420  12.132  1.3168  1.0165  0.2617
 9448TIP3    H249836   4.911   2.281  12.071  0.9098  1.8819 -1.7793
 9449TIP3   OH249837   5.436   3.353  13.273  0.6269  0.7191 -0.5209
 9449TIP3    H149838   5.367   3.395  13.324  0.4112 -2.3112  1.7587
 9449TIP3    H249839   5.390   3.288  13.219  1.5117 -0.1295 -0.2614
 9450TIP3   OH249840   1.385   5.580   3.338  0.0021  1.1156  0.4243
 9450TIP3    H149841   1.313   5.542   3.388 -0.3502  1.4437  0.1719
 9450TIP3    H249842   1.348   5.596   3.251  0.6050  0.5558  0.0588
 9451TIP3   OH249843   3.000   5.221   6.343  0.3726 -0.2728  0.1275
 9451TIP3    H149844   2.909   5.228   6.370  0.2085 -1.2757 -0.1640
 9451TIP3    H249845   3.030   5.138   6.380  0.7442 -0.6561 -1.0092
 9452TIP3   OH249846   0.082   4.767   6.101  0.7678 -0.4046  0.0203
 9452TIP3    H149847   0.150   4.718   6.055  0.3285 -0.1872 -0.8653
 9452TIP3    H249848   0.107   4.761   6.193  2.4474  0.3808 -0.3661
 9453TIP3   OH249849   1.716   4.848   4.541  0.1418 -0.0773 -0.7526
 9453TIP3    H149850   1.772   4.795   4.484  0.5350  1.3766 -1.7687
 9453TIP3    H249851   1.627   4.823   4.516  0.3195 -0.9511 -0.5409
 9454TIP3   OH249852   5.021   6.691  16.059 -0.6862  0.2869  0.4087
 9454TIP3    H149853   5.030   6.732  16.145  0.5241  1.9400 -0.4771
 9454TIP3    H249854   5.054   6.602  16.071 -1.4212  0.1998  1.8764
 9455TIP3   OH249855   0.690   1.019   3.124  0.3296 -0.0614  0.1696
 9455TIP3    H149856   0.618   1.045   3.067  1.4257 -0.4003 -1.3885
 9455TIP3    H249857   0.652   1.023   3.212 -1.4271  0.3106 -0.5659
 9456TIP3   OH249858   3.050   3.503   5.691  0.0504  0.1370  0.7463
 9456TIP3    H149859   3.052   3.505   5.595 -0.6963 -0.0340  0.7247
 9456TIP3    H249860   3.127   3.553   5.717 -0.9790  2.1411  0.0593
 9457TIP3   OH249861   6.034   5.458   6.298 -0.1638  0.1921  0.0868
 9457TIP3    H149862   6.119   5.497   6.318  0.7267 -1.8923  0.5351
 9457TIP3    H249863   6.004   5.422   6.382 -0.5618 -0.8036 -0.4730
 9458TIP3   OH249864   6.086   3.024   5.361  0.5475  0.0000 -0.0256
 9458TIP3    H149865   6.119   3.037   5.449  2.8060  1.2374 -1.0089
 9458TIP3    H249866   6.014   3.086   5.352  1.5535  1.2250  0.3115
 9459TIP3   OH249867   0.627   0.930  15.096 -0.4188  1.0275 -0.3389
 9459TIP3    H149868   0.615   0.914  15.189 -3.2423  1.7469 -0.5428
 9459TIP3    H249869   0.577   0.862  15.052  0.1432  1.2365 -1.3326
 9460TIP3   OH249870   6.590   5.262  12.306  0.2070 -0.3776  0.5317
 9460TIP3    H149871   6.524   5.232  12.244 -0.1745  0.8719  0.3144
 9460TIP3    H249872   6.553   5.241  12.392  0.8152 -2.2682  0.3631
 9461TIP3   OH249873   4.235   3.260   5.793 -0.1724  0.0245 -0.3534
 9461TIP3    H149874   4.305   3.196   5.778 -1.4229 -1.5387  0.3482
 9461TIP3    H249875   4.155   3.215   5.766 -0.9121  1.8338 -1.2285
 9462TIP3   OH249876   0.127   0.098  12.058  0.2327 -0.3687 -0.0886
 9462TIP3    H149877   0.036   0.068  12.059  1.3070 -3.9225  0.4024
 9462TIP3    H249878   0.136   0.144  11.975 -1.9683 -0.0952 -0.2034
 9463TIP3   OH249879   0.486   5.302   0.420  0.4427  0.1689 -0.4340
 9463TIP3    H149880   0.485   5.292   0.515 -0.6649 -2.2057 -0.6585
 9463TIP3    H249881   0.453   5.390   0.404 -3.0473 -0.7818  1.2273
 9464TIP3   OH249882   4.170   0.608   3.883  0.4199  0.1903 -0.4013
 9464TIP3    H149883   4.159   0.684   3.827 -1.6537 -0.1754 -0.5251
 9464TIP3    H249884   4.115   0.540   3.843  2.3551 -1.4391 -0.3946
 9465TIP3   OH249885   0.661   2.915  12.772 -0.3894  0.1318 -0.2301
 9465TIP3    H149886   0.726   2.872  12.717  0.2383  2.8306 -1.7141
 9465TIP3    H249887   0.608   2.966  12.711 -1.1568  1.3756  1.4215
 9466TIP3   OH249888   0.360   6.125  12.983 -0.6995  0.2352 -0.3113
 9466TIP3    H149889   0.311   6.088  12.909  1.6034  0.8612 -2.2447
 9466TIP3    H249890   0.334   6.217  12.986 -3.4440 -0.5538  1.9681
 9467TIP3   OH249891   4.842   6.514   5.815 -0.5537 -0.2640 -0.0005
 9467TIP3    H149892   4.880   6.475   5.893  0.4714  1.4107  0.3734
 9467TIP3    H249893   4.755   6.544   5.843 -0.7527 -0.9451  0.1084
 9468TIP3   OH249894   3.506   6.249  16.857  0.5213 -0.1952 -0.7780
 9468TIP3    H149895   3.596   6.248  16.823  0.7531 -1.4275 -0.1356
 9468TIP3    H249896   3.459   6.187  16.802  0.6871 -1.5210  0.5314
 9469TIP3   OH249897   5.756   2.443   0.406  0.0575 -0.2525 -0.1141
 9469TIP3    H149898   5.663   2.443   0.430  0.3453 -1.2211  0.9971
 9469TIP3    H249899   5.779   2.536   0.402 -1.3144  0.0479 -1.8390
 9470TIP3   OH249900   2.743   3.856   5.315 -0.6207 -0.5015  0.3155
 9470TIP3    H149901   2.825   3.888   5.277 -1.0974 -1.1440 -1.3249
 9470TIP3    H249902   2.771   3.795   5.384  0.2697  0.8598  1.1755
 9471TIP3   OH249903   2.519   1.546   5.169 -0.2952 -0.0078 -0.0979
 9471TIP3    H149904   2.462   1.509   5.101 -0.1745  0.6817 -0.5756
 9471TIP3    H249905   2.594   1.488   5.172 -0.1331  0.1645 -0.8052
 9472TIP3   OH249906   4.064   1.167   5.642  0.4783 -0.1765  0.5631
 9472TIP3    H149907   4.027   1.109   5.576  2.2197 -1.0659  0.3237
 9472TIP3    H249908   3.998   1.235   5.656 -0.1697 -0.3531 -1.5974
 9473TIP3   OH249909   3.303   4.048   3.440  0.4294  0.4818  0.3259
 9473TIP3    H149910   3.209   4.041   3.424  0.4631  1.6945 -0.5280
 9473TIP3    H249911   3.318   4.001   3.522 -0.6239 -1.2652 -0.4784
 9474TIP3   OH249912   0.068   4.507   3.129 -0.2608  0.1088 -0.0870
 9474TIP3    H149913   0.088   4.571   3.062  0.4165  1.0461  0.9856
 9474TIP3    H249914   0.005   4.551   3.187 -1.2761 -0.8901 -0.4169
 9475TIP3   OH249915   1.304   4.843  13.691 -0.0459 -0.1104  0.1104
 9475TIP3    H149916   1.316   4.935  13.714  0.8692  0.2942 -1.8733
 9475TIP3    H249917   1.392   4.806  13.694 -0.3206 -0.7604  0.2366
 9476TIP3   OH249918   4.018   3.446   5.035 -0.1838  0.1207 -0.1151
 9476TIP3    H149919   3.940   3.500   5.045  0.2699  0.9719 -1.0934
 9476TIP3    H249920   4.017   3.418   4.943 -0.0297 -0.9489  0.1949
 9477TIP3   OH249921   3.965   5.633  17.080 -0.0379  0.6759 -0.1987
 9477TIP3    H149922   3.871   5.638  17.062 -0.1091 -1.3539 -0.5734
 9477TIP3    H249923   3.997   5.722  17.067 -1.7864  1.2495 -0.7662
 9478TIP3   OH249924   4.485   5.885  16.033 -0.2189 -0.2068  0.0357
 9478TIP3    H149925   4.522   5.973  16.030  0.4080 -0.4354  0.7722
 9478TIP3    H249926   4.484   5.863  16.127 -1.4336 -0.5378 -0.0556
 9479TIP3   OH249927   5.777   0.285  10.991 -0.1484  0.1297  0.1704
 9479TIP3    H149928   5.852   0.233  11.021  0.2429 -0.4125 -1.6566
 9479TIP3    H249929   5.813   0.372  10.974 -0.5184  0.6335  1.9197
 9480TIP3   OH249930   2.867   1.036  16.569  0.5735 -0.4509 -0.1468
 9480TIP3    H149931   2.853   0.965  16.632  0.9713 -1.0454 -0.7113
 9480TIP3    H249932   2.948   1.012  16.524  0.2906 -0.0453 -0.8873
 9481TIP3   OH249933   4.553   4.494  12.521  0.2448  0.6481 -0.5008
 9481TIP3    H149934   4.580   4.502  12.429  1.0524  0.0958 -0.3135
 9481TIP3    H249935   4.612   4.429  12.558 -0.2756  0.6491  0.3418
 9482TIP3   OH249936   1.626   5.654   5.645  0.1284 -0.3711 -0.2435
 9482TIP3    H149937   1.566   5.649   5.720 -0.7339 -3.2673 -1.0795
 9482TIP3    H249938   1.603   5.736   5.602 -1.2678 -0.0291  1.0859
 9483TIP3   OH249939   4.941   3.486  14.750 -0.6697  0.0730 -0.1333
 9483TIP3    H149940   4.973   3.493  14.660  0.2998 -0.6878  0.1337
 9483TIP3    H249941   4.910   3.573  14.772  3.1089  1.4289  0.2493
 9484TIP3   OH249942   3.614   0.200   4.595 -0.2651 -0.5318  0.5305
 9484TIP3    H149943   3.601   0.261   4.668  0.9166  0.5925 -0.1718
 9484TIP3    H249944   3.685   0.143   4.624  1.8497  1.4050 -0.6029
 9485TIP3   OH249945   6.352   0.768   5.400  0.0287 -0.0106 -0.1194
 9485TIP3    H149946   6.321   0.752   5.489  0.8054 -0.3237  0.0999
 9485TIP3    H249947   6.300   0.709   5.345  0.8867 -1.2374  0.3614
 9486TIP3   OH249948   2.151   5.007   1.913 -0.0954  0.1412  0.2421
 9486TIP3    H149949   2.056   5.016   1.915 -0.1883 -0.1816 -1.9827
 9486TIP3    H249950   2.166   4.913   1.903  0.3752  0.4958 -2.6681
 9487TIP3   OH249951   4.816   0.489  15.252  0.8582  0.1776  0.7025
 9487TIP3    H149952   4.803   0.418  15.190  2.1236 -1.4155  2.2012
 9487TIP3    H249953   4.733   0.537  15.251  0.2889 -0.7906 -0.9702
 9488TIP3   OH249954   2.162   1.022  16.036 -0.7506 -0.1337  0.0600
 9488TIP3    H149955   2.165   0.985  15.947  0.6441  0.7513 -0.2740
 9488TIP3    H249956   2.080   1.069  16.039 -0.0901  1.1591 -1.3149
 9489TIP3   OH249957   1.329   3.164  15.608 -0.3381  0.5177 -0.2093
 9489TIP3    H149958   1.352   3.248  15.649 -0.8395  0.0791  0.9869
 9489TIP3    H249959   1.249   3.182  15.559 -0.8696  0.5547  0.6722
 9490TIP3   OH249960   6.551   1.621   5.569 -0.6160 -0.0288  0.0689
 9490TIP3    H149961   6.643   1.601   5.551 -0.3867  0.8363  0.2457
 9490TIP3    H249962   6.505   1.598   5.488 -0.5878 -2.5702  0.7231
 9491TIP3   OH249963   0.003   1.305  12.397 -0.2482 -0.3063 -0.0212
 9491TIP3    H149964   0.064   1.280  12.328  0.5316 -0.2097  0.6276
 9491TIP3    H249965   0.058   1.332  12.470 -1.0161 -2.9131  1.6004
 9492TIP3   OH249966   6.113   5.925  16.929  0.5577  0.1336 -0.2268
 9492TIP3    H149967   6.144   6.015  16.940 -0.2735  0.2126  1.8323
 9492TIP3    H249968   6.078   5.921  16.840  1.5711  1.5435 -0.6955
 9493TIP3   OH249969   4.295   1.052  14.880 -0.1433  0.4168  0.1642
 9493TIP3    H149970   4.206   1.028  14.853  0.1085  1.1695 -1.3804
 9493TIP3    H249971   4.349   1.033  14.804  1.3594 -1.8663  1.7648
 9494TIP3   OH249972   2.068   3.286  11.823  0.3202 -1.2129  0.1687
 9494TIP3    H149973   2.022   3.249  11.747 -1.0846  4.3021 -1.9595
 9494TIP3    H249974   1.998   3.305  11.886  0.4609  0.9187 -0.2665
 9495TIP3   OH249975   1.339   2.291   2.063 -0.6319 -0.4401 -0.5318
 9495TIP3    H149976   1.275   2.230   2.027 -0.7561 -0.4604 -0.2753
 9495TIP3    H249977   1.364   2.346   1.989 -1.7869  0.3032 -0.3807
 9496TIP3   OH249978   0.649   3.151  13.620 -0.4289  0.0062  0.1716
 9496TIP3    H149979   0.669   3.057  13.621 -0.2561  0.0425  0.1446
 9496TIP3    H249980   0.568   3.158  13.568 -0.2456 -0.0900 -0.1269
 9497TIP3   OH249981   0.054   1.137  13.563 -0.5704  0.4697 -0.1055
 9497TIP3    H149982  -0.001   1.146  13.641  1.7925 -2.3005  1.9891
 9497TIP3    H249983   0.141   1.163  13.592 -0.1128  1.7176 -2.5064
 9498TIP3   OH249984   0.761   6.172  10.524 -0.0608  0.2653 -0.1358
 9498TIP3    H149985   0.695   6.230  10.560 -2.0933 -1.1564 -1.4914
 9498TIP3    H249986   0.770   6.101  10.588 -0.9958 -0.3487 -0.6769
 9499TIP3   OH249987   2.908   2.581  16.901 -0.1015 -0.3936  0.5805
 9499TIP3    H149988   2.954   2.661  16.924 -2.1148  0.8860  0.2547
 9499TIP3    H249989   2.850   2.565  16.975  0.3960 -1.6512  0.7089
 9500TIP3   OH249990   6.642   4.704  15.830 -0.0881 -0.2622  0.0486
 9500TIP3    H149991   6.660   4.610  15.829 -0.2346 -0.2896 -0.1531
 9500TIP3    H249992   6.608   4.721  15.917  2.2415  0.0462  0.9269
 9501TIP3   OH249993   3.025   5.159   0.496  0.5250  0.2192 -0.0572
 9501TIP3    H149994   3.026   5.190   0.586 -0.4616  0.6062 -0.1776
 9501TIP3    H249995   3.097   5.205   0.454  0.1978  0.9889  0.2200
 9502TIP3   OH249996   3.475   5.657   4.662  0.1466 -0.4512  0.3129
 9502TIP3    H149997   3.447   5.572   4.628 -0.5084 -1.1148  2.4215
 9502TIP3    H249998   3.570   5.651   4.668  0.2611 -0.3880 -1.1694
 9503TIP3   OH249999   5.402   6.751   3.536 -0.4830 -0.3034  0.3008
 9503TIP3    H150000   5.425   6.811   3.465 -0.3770  0.2676  0.8198
 9503TIP3    H250001   5.360   6.677   3.491 -0.2376 -0.0391 -0.3758
 9504TIP3   OH250002   2.470   1.960   1.942 -0.5081 -0.1475  0.0479
 9504TIP3    H150003   2.540   2.025   1.940 -0.4261 -0.2353  0.1119
 9504TIP3    H250004   2.390   2.011   1.957 -0.3503 -0.1440  0.9106
 9505TIP3   OH250005   3.536   2.249   2.663 -0.5922  0.8912 -0.7384
 9505TIP3    H150006   3.452   2.242   2.618 -0.6731 -0.0054 -0.4479
 9505TIP3    H250007   3.513   2.254   2.756 -0.5382  4.6667 -0.8605
 9506TIP3   OH250008   4.089   4.511  17.266  0.6282 -0.1216 -0.4524
 9506TIP3    H150009   4.123   4.542  17.182  0.5042  0.2542 -0.3654
 9506TIP3    H250010   4.098   4.415  17.262 -1.3429 -0.2823 -1.7591
 9507TIP3   OH250011   0.268   3.280  14.136 -0.0525 -0.4241 -0.6089
 9507TIP3    H150012   0.296   3.207  14.081 -0.4360  0.0161 -1.3930
 9507TIP3    H250013   0.173   3.269  14.143  0.0563 -0.7903  0.4247
 9508TIP3   OH250014   2.076   0.523   0.433  0.1640 -0.3978  0.4919
 9508TIP3    H150015   2.089   0.615   0.456 -1.0861  0.0325 -0.4897
 9508TIP3    H250016   2.005   0.494   0.489  0.1115 -0.5819  0.3288
 9509TIP3   OH250017   0.026   4.441  14.297  0.7807  0.2092 -0.3487
 9509TIP3    H150018  -0.052   4.434  14.351 -0.3619  1.0743 -1.8686
 9509TIP3    H250019   0.088   4.491  14.351 -0.3912  1.1651  0.1294
 9510TIP3   OH250020   0.365   5.201   2.591 -0.2258  0.0757 -0.7415
 9510TIP3    H150021   0.351   5.123   2.537  1.4241 -1.7053  1.3215
 9510TIP3    H250022   0.283   5.214   2.637  0.4223 -2.3444  1.2326
 9511TIP3   OH250023   2.582   6.365   0.879 -0.1296  0.2241  0.1228
 9511TIP3    H150024   2.672   6.370   0.911  0.4062 -2.4646 -0.7748
 9511TIP3    H250025   2.527   6.384   0.955  1.1669 -2.0273  1.6884
 9512TIP3   OH250026   4.221   6.135  15.702  0.2022 -0.1379  0.0909
 9512TIP3    H150027   4.314   6.154  15.695  0.0663  0.0772 -1.2821
 9512TIP3    H250028   4.185   6.210  15.751  0.2456  1.4650 -2.2199
 9513TIP3   OH250029   6.344   3.101   0.805 -0.1133 -0.4028 -0.4231
 9513TIP3    H150030   6.298   3.181   0.831 -0.7140 -0.6346 -0.7454
 9513TIP3    H250031   6.360   3.055   0.887  1.8440  0.8839 -0.0561
 9514TIP3   OH250032   3.417   0.136   1.617  0.1047  0.5294 -0.1693
 9514TIP3    H150033   3.432   0.047   1.586  2.5115  1.1168 -0.7762
 9514TIP3    H250034   3.445   0.136   1.708  0.1341  0.6754 -0.1768
 9515TIP3   OH250035   0.212   4.649   4.816  0.2306  0.0529 -0.0646
 9515TIP3    H150036   0.224   4.712   4.745  1.2011  0.6337  0.6055
 9515TIP3    H250037   0.231   4.699   4.896 -0.7056 -0.6287  0.5962
 9516TIP3   OH250038   4.030   1.297   0.514 -0.6512 -0.3068 -0.2558
 9516TIP3    H150039   3.971   1.267   0.443 -1.5979 -0.6309  0.6545
 9516TIP3    H250040   4.060   1.216   0.555 -0.5357 -0.1015  0.0646
 9517TIP3   OH250041   4.368   1.609   3.269 -0.1551 -0.1743  0.3190
 9517TIP3    H150042   4.410   1.693   3.249 -1.0668  1.0136  3.1302
 9517TIP3    H250043   4.439   1.556   3.306 -0.0058  0.0379  0.3391
 9518TIP3   OH250044   3.206   3.807  14.205  0.1732 -0.0032 -0.4563
 9518TIP3    H150045   3.278   3.762  14.161  0.7909  0.0621  0.4829
 9518TIP3    H250046   3.132   3.798  14.145  0.9367 -0.1500 -1.3878
 9519TIP3   OH250047   2.486   2.530  11.748 -0.2693 -0.1941 -0.7331
 9519TIP3    H150048   2.567   2.493  11.713 -0.3808 -0.1249 -1.0588
 9519TIP3    H250049   2.498   2.625  11.741 -0.2840 -0.1788 -0.5654
 9520TIP3   OH250050   6.295   2.212  14.982  0.0866  1.0595 -0.4735
 9520TIP3    H150051   6.346   2.169  15.051 -0.7566 -0.6424 -0.8707
 9520TIP3    H250052   6.204   2.202  15.010 -0.3331 -0.5361 -2.2810
 9521TIP3   OH250053   6.650   3.386   0.193 -0.0983  0.2988  0.7508
 9521TIP3    H150054   6.604   3.469   0.205 -0.4377  0.7271 -2.8505
 9521TIP3    H250055   6.743   3.409   0.198 -0.2045  0.4831  2.0053
 9522TIP3   OH250056   2.405   0.879   4.721 -0.0061 -0.2550 -0.0547
 9522TIP3    H150057   2.476   0.872   4.784 -0.3128 -0.1853  0.2992
 9522TIP3    H250058   2.396   0.973   4.706  0.6851 -0.3146 -0.9108
 9523TIP3   OH250059   1.546   0.984   5.299  0.0665 -0.3327  0.2637
 9523TIP3    H150060   1.455   0.959   5.287 -0.1084  0.1617  0.5795
 9523TIP3    H250061   1.594   0.932   5.233 -0.4667 -0.3894 -0.0809
 9524TIP3   OH250062   3.386   0.499  16.759  0.0315 -0.7051 -0.2489
 9524TIP3    H150063   3.432   0.567  16.809  1.4415 -2.2178  0.5574
 9524TIP3    H250064   3.341   0.547  16.690 -0.3266  1.2329  1.2620
 9525TIP3   OH250065   1.464   3.862   3.736 -0.8288 -0.0815 -0.5320
 9525TIP3    H150066   1.431   3.947   3.765  1.8170  0.8959 -0.2449
 9525TIP3    H250067   1.559   3.873   3.731 -0.4233 -3.0312 -0.4895
 9526TIP3   OH250068   0.758   2.131   1.861  0.3102 -0.0090 -0.0020
 9526TIP3    H150069   0.800   2.045   1.851 -0.1726 -0.1585 -0.7865
 9526TIP3    H250070   0.829   2.189   1.889  0.5137 -0.7855  1.1323
 9527TIP3   OH250071   1.818   4.486   2.602 -0.1432 -0.2778  0.0422
 9527TIP3    H150072   1.815   4.467   2.696 -0.3528  2.7739  0.6829
 9527TIP3    H250073   1.904   4.525   2.588  0.1514 -1.3164 -1.1804
 9528TIP3   OH250074   2.117   6.011   1.124  0.5772  0.3320  0.2247
 9528TIP3    H150075   2.176   6.080   1.154  1.9108 -0.4472 -0.5928
 9528TIP3    H250076   2.165   5.966   1.055 -1.0743 -0.1566 -0.6253
 9529TIP3   OH250077   5.496   0.986  17.186  0.4292 -0.2396  1.2635
 9529TIP3    H150078   5.573   1.039  17.205  0.8112 -1.0908  2.0790
 9529TIP3    H250079   5.531   0.907  17.145 -0.1773  0.3560 -0.4658
 9530TIP3   OH250080   1.335   2.737  14.086 -0.1824 -0.4408  0.0812
 9530TIP3    H150081   1.316   2.831  14.088 -1.2487 -0.6593  0.1878
 9530TIP3    H250082   1.390   2.727  14.008 -0.2392  0.2341 -0.0559
 9531TIP3   OH250083   3.285   6.219   1.103 -0.2128 -0.2278  0.0678
 9531TIP3    H150084   3.338   6.183   1.032  1.5963  1.6404  0.4374
 9531TIP3    H250085   3.348   6.258   1.163 -1.7874 -1.0492  2.3168
 9532TIP3   OH250086   3.223   0.606   4.112  0.8522  0.3534  0.4941
 9532TIP3    H150087   3.178   0.638   4.190 -0.7109 -0.2274 -0.1498
 9532TIP3    H250088   3.214   0.678   4.049  0.8813  0.2535  0.3758
 9533TIP3   OH250089   2.017   6.027  15.467  0.0316  0.1821  0.0038
 9533TIP3    H150090   1.957   5.954  15.482  2.6780 -1.8728  1.0298
 9533TIP3    H250091   1.997   6.090  15.537 -1.4187 -0.1228 -0.1281
 9534TIP3   OH250092   5.806   1.660  12.998  0.5674 -0.2894  0.0244
 9534TIP3    H150093   5.744   1.727  12.970 -1.2060 -1.8285  0.2035
 9534TIP3    H250094   5.850   1.698  13.074  0.3809  1.0966 -0.5480
 9535TIP3   OH250095   6.160   6.212  12.827 -0.6849  0.2691 -0.0443
 9535TIP3    H150096   6.169   6.135  12.884  0.2824  0.5868  0.2504
 9535TIP3    H250097   6.240   6.212  12.774 -1.3041  0.3187 -0.9741
 9536TIP3   OH250098   5.489   2.537  16.512 -0.1536 -0.0272 -0.2226
 9536TIP3    H150099   5.570   2.487  16.509  0.3224  0.6968  0.3154
 9536TIP3    H250100   5.475   2.553  16.606 -2.0219 -1.9149 -0.1504
 9537TIP3   OH250101   6.206   0.742   2.571  0.1194  0.6209  0.2591
 9537TIP3    H150102   6.225   0.653   2.599  1.2545  0.7389 -0.1002
 9537TIP3    H250103   6.292   0.780   2.551 -0.4215  1.5047 -0.4506
 9538TIP3   OH250104   1.736   4.627  13.062 -0.1822 -0.3055  0.2258
 9538TIP3    H150105   1.829   4.651  13.059 -0.2245 -0.2558 -0.9310
 9538TIP3    H250106   1.691   4.708  13.084 -0.2214  0.4691 -2.4921
 9539TIP3   OH250107   5.939   1.542  13.760 -0.2989  0.0976 -0.5788
 9539TIP3    H150108   5.866   1.485  13.735  0.2128 -1.0759  0.5391
 9539TIP3    H250109   5.937   1.542  13.856  0.7233  0.6366 -0.5559
 9540TIP3   OH250110   6.461   2.466  14.101 -0.1833 -0.3014  0.3491
 9540TIP3    H150111   6.528   2.480  14.169 -0.7659 -2.1890  1.3445
 9540TIP3    H250112   6.429   2.377  14.117 -0.2012 -0.8448 -2.5398
 9541TIP3   OH250113   6.329   1.362  16.790  0.1184  0.0704 -0.0917
 9541TIP3    H150114   6.359   1.341  16.878 -1.1989 -0.9787  0.1295
 9541TIP3    H250115   6.337   1.279  16.742 -0.2717  0.3470 -0.6431
 9542TIP3   OH250116   6.392   3.832  15.175 -0.0741  0.7706 -0.2105
 9542TIP3    H150117   6.455   3.900  15.150  0.8665  0.3010  0.8630
 9542TIP3    H250118   6.398   3.768  15.104  2.7671 -0.6734  1.2729
 9543TIP3   OH250119   0.167   2.904   1.553  0.0919  0.3730  0.4540
 9543TIP3    H150120   0.134   2.953   1.628  0.0237 -0.4657  0.9683
 9543TIP3    H250121   0.262   2.905   1.564  0.1512  1.3277 -0.1208
 9544TIP3   OH250122   0.087   1.565  16.801  0.1972  0.2957 -0.1860
 9544TIP3    H150123   0.076   1.628  16.872  1.4508  0.0505  0.2260
 9544TIP3    H250124   0.007   1.576  16.748 -1.6391 -0.8552  2.2602
 9545TIP3   OH250125   4.516   0.768  16.190  0.6503 -0.0113 -0.4270
 9545TIP3    H150126   4.421   0.772  16.204  0.7392 -0.6432  0.4781
 9545TIP3    H250127   4.551   0.842  16.240  0.7416 -0.6494  0.4806
 9546TIP3   OH250128   5.184   3.192  13.726 -0.1331  0.0658  0.0724
 9546TIP3    H150129   5.203   3.146  13.645  0.4027 -1.4105  1.0196
 9546TIP3    H250130   5.121   3.260  13.701 -0.7095 -0.9810 -1.3892
 9547TIP3   OH250131   0.572   4.715   5.846 -0.1216 -0.0678 -0.4654
 9547TIP3    H150132   0.564   4.634   5.797  2.0467 -0.0842 -0.8364
 9547TIP3    H250133   0.589   4.688   5.936  0.7069 -0.0484 -0.6078
 9548TIP3   OH250134   6.036   5.009   5.436 -0.3926 -0.3561 -0.1470
 9548TIP3    H150135   5.986   4.946   5.489  1.3997 -2.6099 -1.0783
 9548TIP3    H250136   6.091   5.055   5.499 -2.0819  0.7199  0.6094
 9549TIP3   OH250137   5.090   6.224   4.851 -0.2731  1.0088  0.5698
 9549TIP3    H150138   5.079   6.177   4.768 -0.9587  0.0008  1.2295
 9549TIP3    H250139   5.176   6.197   4.882 -0.2654  0.9353  0.4849
 9550TIP3   OH250140   3.936   1.054  13.797  0.7225  0.7648  0.2626
 9550TIP3    H150141   3.891   1.136  13.778  0.2628  0.8122  1.5258
 9550TIP3    H250142   3.914   0.997  13.723 -1.2599  0.8449  0.7556
 9551TIP3   OH250143   0.813   5.396   2.927 -0.0700  0.1851 -0.4680
 9551TIP3    H150144   0.755   5.320   2.931 -1.0306  0.9284 -0.2777
 9551TIP3    H250145   0.894   5.365   2.968 -0.5780 -0.6198 -0.0464
 9552TIP3   OH250146   1.509   1.491   1.434 -0.2990 -0.3106  0.5633
 9552TIP3    H150147   1.505   1.490   1.338 -1.6448 -1.8695  0.6180
 9552TIP3    H250148   1.420   1.473   1.462  0.1402 -0.1173  2.1185
 9553TIP3   OH250149   1.203   3.020  12.148  0.3412 -0.3696  0.0216
 9553TIP3    H150150   1.160   2.991  12.067 -0.6216 -1.5708  0.9223
 9553TIP3    H250151   1.158   3.101  12.171 -0.2825 -0.7075  0.0266
 9554TIP3   OH250152   2.040   3.117  14.175 -0.7900 -0.3367 -0.2204
 9554TIP3    H150153   2.122   3.096  14.219 -1.0346 -1.6633 -0.3712
 9554TIP3    H250154   2.032   3.212  14.183  0.5813 -0.2373  0.0965
 9555TIP3   OH250155   6.407   1.105  12.580  0.7568  0.2138 -0.0748
 9555TIP3    H150156   6.363   1.128  12.498  2.2823 -1.2286 -1.3457
 9555TIP3    H250157   6.379   1.014  12.596 -1.5481  1.2993  2.3970
 9556TIP3   OH250158   3.767   0.822   1.836 -0.5554 -0.0511  0.2670
 9556TIP3    H150159   3.799   0.846   1.923 -0.8809  1.8445 -0.1260
 9556TIP3    H250160   3.674   0.804   1.849 -0.6781  0.5688  0.2429
 9557TIP3   OH250161   4.450   5.469  12.580 -0.0189 -0.0019 -0.1811
 9557TIP3    H150162   4.499   5.419  12.515 -1.6650 -1.1903 -0.5547
 9557TIP3    H250163   4.499   5.551  12.590  1.3409 -0.6398 -1.4228
 9558TIP3   OH250164   3.081   0.397  14.698 -0.0544 -0.1333 -0.2391
 9558TIP3    H150165   3.026   0.467  14.732  0.0666 -0.2806  0.2597
 9558TIP3    H250166   3.027   0.354  14.632 -0.3064  0.1239 -0.1991
 9559TIP3   OH250167   2.969   6.248   4.098 -0.4242  0.1920 -0.0985
 9559TIP3    H150168   2.952   6.302   4.021 -0.9297 -0.8970 -0.7772
 9559TIP3    H250169   2.884   6.238   4.141 -0.0277  1.3182  0.9603
 9560TIP3   OH250170   0.489   3.069  16.680  0.1929  0.0768 -0.1223
 9560TIP3    H150171   0.520   3.004  16.617 -1.0258 -1.9576  1.3358
 9560TIP3    H250172   0.399   3.087  16.654  0.2805  0.6405 -0.0524
 9561TIP3   OH250173   0.039   0.602  13.423 -0.2336  0.6968  0.0016
 9561TIP3    H150174   0.027   0.523  13.476 -0.4387  0.1488 -0.8510
 9561TIP3    H250175  -0.047   0.643  13.421 -0.2063  0.7642  0.1536
 9562TIP3   OH250176   3.480   3.429   2.449  0.0473 -1.0678  0.3641
 9562TIP3    H150177   3.540   3.498   2.476 -0.1121 -1.2024  1.0978
 9562TIP3    H250178   3.454   3.452   2.360  0.9734 -0.8677  0.1462
 9563TIP3   OH250179   3.252   3.877  15.569  0.2252 -0.0049 -0.0541
 9563TIP3    H150180   3.161   3.887  15.597  0.9505 -0.5732  2.6837
 9563TIP3    H250181   3.289   3.815  15.632  2.0674 -1.1234 -2.1707
 9564TIP3   OH250182   5.256   4.994  13.488 -0.8566  0.0223  0.0807
 9564TIP3    H150183   5.327   5.032  13.437 -0.0442 -0.9532  0.4553
 9564TIP3    H250184   5.298   4.924  13.539 -1.8553  0.2666  1.2574
 9565TIP3   OH250185   5.837   0.941  14.985  0.2742  0.5234 -0.3132
 9565TIP3    H150186   5.916   0.887  14.991 -0.7291 -0.8761  0.6889
 9565TIP3    H250187   5.827   0.979  15.072 -0.8146 -0.2610 -0.0921
 9566TIP3   OH250188   5.454   1.698  14.298 -0.0621 -0.0380  0.5069
 9566TIP3    H150189   5.492   1.754  14.230  1.2834 -0.6893  0.7126
 9566TIP3    H250190   5.523   1.692  14.365  0.5398 -3.4480 -0.3492
 9567TIP3   OH250191   2.576   5.294   1.199 -0.5836  0.6839  0.8365
 9567TIP3    H150192   2.603   5.227   1.262 -0.5880  1.2858  1.4869
 9567TIP3    H250193   2.572   5.375   1.250 -1.9621  0.9258  0.3791
 9568TIP3   OH250194   3.288   3.427   3.877  0.5588  0.0733  0.3467
 9568TIP3    H150195   3.279   3.331   3.876 -0.6165  0.1849  0.2757
 9568TIP3    H250196   3.305   3.448   3.969 -0.4802 -0.0921  0.5854
 9569TIP3   OH250197   2.789   0.347  14.996  0.3624 -0.1032 -0.1360
 9569TIP3    H150198   2.800   0.280  14.928 -4.0816 -0.1587 -0.9196
 9569TIP3    H250199   2.779   0.429  14.948 -1.3082  0.0780  0.5058
 9570TIP3   OH250200   3.772   3.121  13.860 -0.2744  0.0460 -0.5356
 9570TIP3    H150201   3.784   3.176  13.783  2.1037  1.6855  0.9657
 9570TIP3    H250202   3.750   3.182  13.930 -2.7530 -1.4637  0.0654
 9571TIP3   OH250203   0.236   3.418  12.455  0.3638 -0.2430 -0.6315
 9571TIP3    H150204   0.193   3.495  12.417  0.1997  0.0878  0.2100
 9571TIP3    H250205   0.188   3.344  12.419  2.0739 -0.0740 -3.3852
 9572TIP3   OH250206   4.748   3.322  17.178 -0.3537  0.0007  0.0804
 9572TIP3    H150207   4.752   3.335  17.083 -0.2401 -0.5637  0.0045
 9572TIP3    H250208   4.816   3.380  17.213  0.1158 -0.3485 -0.2439
 9573TIP3   OH250209   3.724   0.321  16.640  0.2061  0.2999 -0.4485
 9573TIP3    H150210   3.803   0.364  16.608  1.2816  0.8893  2.7926
 9573TIP3    H250211   3.755   0.240  16.680 -1.1857 -0.8189 -1.5660
 9574TIP3   OH250212   1.686   3.575  11.435 -0.9305 -0.4863 -0.2539
 9574TIP3    H150213   1.746   3.520  11.484 -1.0713 -0.1580  0.2876
 9574TIP3    H250214   1.725   3.662  11.437 -2.4945  0.1977  1.9650
 9575TIP3   OH250215   1.541   0.862  15.451  0.3031  0.4984 -0.1608
 9575TIP3    H150216   1.521   0.950  15.421  1.4736  0.3343 -1.4750
 9575TIP3    H250217   1.472   0.842  15.514 -0.3666  2.0803 -0.3661
 9576TIP3   OH250218   4.414   6.708   3.193 -0.0027  0.5581 -0.5066
 9576TIP3    H150219   4.443   6.617   3.201  1.3000  1.0011  0.0577
 9576TIP3    H250220   4.324   6.703   3.162 -0.1433 -0.9388  0.1338
 9577TIP3   OH250221   5.138   2.739   5.893  0.0303  0.2914 -0.5270
 9577TIP3    H150222   5.171   2.667   5.948 -0.7571  0.1421 -0.2467
 9577TIP3    H250223   5.217   2.775   5.853  0.7683  1.1114  1.5571
 9578TIP3   OH250224   6.494   3.449   5.863 -0.0009 -0.3547  0.9637
 9578TIP3    H150225   6.514   3.356   5.860 -0.3293 -0.3851 -0.2542
 9578TIP3    H250226   6.577   3.491   5.887  0.2781 -0.9046  0.9605
 9579TIP3   OH250227   4.001   3.518  11.785 -0.2848  0.0244  0.0761
 9579TIP3    H150228   4.032   3.608  11.783 -0.5348  0.0934 -0.7414
 9579TIP3    H250229   4.007   3.493  11.877  0.0894  0.7661  0.2606
 9580TIP3   OH250230   1.716   2.649  14.350  0.1271 -0.2002  0.2800
 9580TIP3    H150231   1.639   2.650  14.405 -0.3039  0.5986 -0.3337
 9580TIP3    H250232   1.769   2.577  14.385 -1.6249 -1.8195 -0.2973
 9581TIP3   OH250233   5.219   3.173   4.627 -0.1376  0.6251  0.2308
 9581TIP3    H150234   5.260   3.138   4.706  0.0500 -1.4631 -0.7667
 9581TIP3    H250235   5.145   3.224   4.659  0.5929  0.7335  1.7974
 9582TIP3   OH250236   3.332   6.574  14.201  0.2471 -0.0978 -0.0146
 9582TIP3    H150237   3.242   6.568  14.169  0.3783 -0.1865 -0.3728
 9582TIP3    H250238   3.367   6.652  14.159  0.5495 -0.4448 -0.4175
 9583TIP3   OH250239   4.593   0.525  16.343 -0.2623  0.2918 -0.1396
 9583TIP3    H150240   4.571   0.436  16.316 -1.7686  0.6079 -0.0011
 9583TIP3    H250241   4.544   0.581  16.283  0.8348  1.0427 -0.3495
 9584TIP3   OH250242   3.345   4.672   2.216  0.0252  0.2140 -0.0247
 9584TIP3    H150243   3.298   4.589   2.221  3.9896 -2.1220  1.4125
 9584TIP3    H250244   3.393   4.666   2.133  1.5615  0.3190  0.8397
 9585TIP3   OH250245   5.002   5.260   5.279 -0.2156 -0.2410  0.1928
 9585TIP3    H150246   5.052   5.238   5.357  2.4249  2.6696 -0.5591
 9585TIP3    H250247   5.062   5.244   5.206 -1.7217 -0.3636 -1.0500
 9586TIP3   OH250248   2.133   3.768   3.300  1.1742  0.2844 -0.2338
 9586TIP3    H150249   2.207   3.733   3.350  0.6404 -0.2579  0.1944
 9586TIP3    H250250   2.059   3.764   3.362  0.2576 -1.3873 -1.3857
 9587TIP3   OH250251   4.813   3.340   0.556  0.2039  0.3234 -0.0208
 9587TIP3    H150252   4.891   3.395   0.569 -0.9975  1.9362  0.4588
 9587TIP3    H250253   4.819   3.275   0.626 -0.2537  2.0725  1.7065
 9588TIP3   OH250254   0.121   2.873   6.011  0.1095  0.1941 -0.0414
 9588TIP3    H150255   0.095   2.845   6.098 -1.9829  0.1051 -0.6538
 9588TIP3    H250256   0.155   2.794   5.969 -0.7295 -0.2324  0.0527
 9589TIP3   OH250257   5.944   2.551   3.278 -0.1856 -0.2432 -0.2950
 9589TIP3    H150258   6.014   2.615   3.269 -0.5697  0.1827 -0.2775
 9589TIP3    H250259   5.986   2.475   3.319  0.7961 -0.8860 -2.4004
 9590TIP3   OH250260   2.700   6.455  13.552  0.1508 -0.5595  0.3997
 9590TIP3    H150261   2.650   6.398  13.494 -0.9715  0.2311  0.5792
 9590TIP3    H250262   2.638   6.481  13.621  0.8798  0.1951  0.7907
 9591TIP3   OH250263   1.466   1.244   2.118 -0.7727  0.0530 -0.4051
 9591TIP3    H150264   1.547   1.217   2.161 -2.1489 -0.3172  2.0163
 9591TIP3    H250265   1.445   1.172   2.058 -0.9374 -1.2989  1.2293
 9592TIP3   OH250266   1.416   0.300  16.641 -0.0032 -0.1067 -0.3000
 9592TIP3    H150267   1.360   0.371  16.672 -0.4330 -0.6495  0.1858
 9592TIP3    H250268   1.494   0.305  16.697  0.5815  0.8411 -1.1769
 9593TIP3   OH250269   5.643   5.037   5.772 -0.3827 -0.3477 -0.0966
 9593TIP3    H150270   5.628   4.943   5.772  0.4818 -0.4911  0.4064
 9593TIP3    H250271   5.645   5.062   5.865 -1.8868  0.3845 -0.2395
 9594TIP3   OH250272   2.390   6.296  11.359 -0.0160 -0.7025  0.6912
 9594TIP3    H150273   2.483   6.294  11.335 -0.1217 -1.5430  0.3032
 9594TIP3    H250274   2.350   6.354  11.295 -0.2468 -2.7140 -1.0407
 9595TIP3   OH250275   5.963   2.672  13.625 -0.2221  0.2163 -0.3110
 9595TIP3    H150276   6.006   2.709  13.548  0.3260 -1.2495 -0.7301
 9595TIP3    H250277   6.010   2.590  13.641 -3.7086 -2.1959 -1.6779
 9596TIP3   OH250278   1.562   5.791   3.476 -0.6010 -0.2431  0.5200
 9596TIP3    H150279   1.649   5.777   3.437 -0.2805 -0.1360  1.1896
 9596TIP3    H250280   1.517   5.708   3.462 -1.9056  1.0286 -3.5921
 9597TIP3   OH250281   3.104   1.175   5.630  0.0040 -0.7675  0.0191
 9597TIP3    H150282   3.182   1.225   5.604  0.4511 -1.7619 -0.5843
 9597TIP3    H250283   3.049   1.173   5.551  0.3947 -1.9718 -0.2420
 9598TIP3   OH250284   4.250   5.597   1.509  0.8630 -0.2430 -0.1542
 9598TIP3    H150285   4.327   5.652   1.524  1.3198 -0.4973 -1.5079
 9598TIP3    H250286   4.285   5.515   1.475 -0.1002  0.2684 -2.4566
 9599TIP3   OH250287   2.974   0.542  12.230  0.1254  0.0682 -0.2178
 9599TIP3    H150288   2.896   0.550  12.175  0.2553 -0.6196 -0.5101
 9599TIP3    H250289   2.968   0.454  12.268  0.8485 -0.0579 -0.3841
 9600TIP3   OH250290   5.406   5.458   4.911 -0.3048  0.3876  0.0802
 9600TIP3    H150291   5.400   5.540   4.862  0.0807 -0.7793 -1.9826
 9600TIP3    H250292   5.498   5.450   4.934 -0.3185  0.4534  0.1565
 9601TIP3   OH250293   1.290   3.353  11.307  0.0975  0.4752 -0.3783
 9601TIP3    H150294   1.259   3.443  11.297  0.5402  0.5894 -0.7512
 9601TIP3    H250295   1.384   3.358  11.290  0.4303  0.2234  1.2343
 9602TIP3   OH250296   6.478   3.872  12.684 -0.4992  0.1358  0.2937
 9602TIP3    H150297   6.496   3.790  12.637 -0.3954 -0.0359  0.6353
 9602TIP3    H250298   6.508   3.856  12.773 -2.1029 -0.0705  0.8097
 9603TIP3   OH250299   5.849   4.195  12.085  0.1000 -0.3130  0.0670
 9603TIP3    H150300   5.778   4.244  12.125 -1.0646 -1.4318 -0.6145
 9603TIP3    H250301   5.833   4.199  11.991  0.9181 -0.5999 -0.0979
 9604TIP3   OH250302   4.919   4.695   6.247  0.2759 -0.0161  0.4875
 9604TIP3    H150303   4.940   4.787   6.233  0.6202 -0.1911 -0.1767
 9604TIP3    H250304   5.001   4.657   6.281 -0.0400  0.0421  1.3337
 9605TIP3   OH250305   2.271   2.742  12.414  0.4351 -0.4851  0.6754
 9605TIP3    H150306   2.215   2.805  12.369 -0.1765 -1.3971  0.1499
 9605TIP3    H250307   2.296   2.787  12.495  0.3012  0.5709  0.1435
 9606TIP3   OH250308   4.690   2.404  16.037  0.4103  0.2275  0.4667
 9606TIP3    H150309   4.724   2.447  15.958 -0.3462 -2.0530 -1.1478
 9606TIP3    H250310   4.763   2.351  16.069 -0.0394 -0.7655 -0.1304
 9607TIP3   OH250311   4.333   5.416   2.694  0.5378  0.0562 -0.5635
 9607TIP3    H150312   4.391   5.354   2.739 -1.5559 -1.2723  0.3354
 9607TIP3    H250313   4.271   5.444   2.760  0.5726  2.0536 -1.3421
 9608TIP3   OH250314   4.901   5.005   2.299  0.4026 -0.0151  0.0370
 9608TIP3    H150315   4.928   5.071   2.364 -1.6024  0.7899  0.0703
 9608TIP3    H250316   4.978   4.995   2.243  0.8601  2.1342  0.2241
 9609TIP3   OH250317   2.503   1.234  14.143  0.1127  0.2132 -0.2158
 9609TIP3    H150318   2.416   1.218  14.108  0.1039  2.4054 -1.3135
 9609TIP3    H250319   2.491   1.243  14.237 -0.3721 -2.4701  0.0099
 9610TIP3   OH250320   3.158   4.090  14.553 -0.1027 -0.6834  0.8583
 9610TIP3    H150321   3.203   4.006  14.551 -0.1173 -0.7003 -3.0613
 9610TIP3    H250322   3.068   4.069  14.575  0.1968 -1.5049  1.3211
 9611TIP3   OH250323   4.009   0.511   5.900 -0.6597  0.8555  0.0639
 9611TIP3    H150324   4.053   0.509   5.985  1.1216 -0.9930 -0.8606
 9611TIP3    H250325   4.070   0.558   5.842 -1.4387  1.2866 -0.4172
 9612TIP3   OH250326   4.450   1.931  14.176  0.3601  0.3143 -0.2803
 9612TIP3    H150327   4.364   1.893  14.193  1.4946 -1.2725  2.0993
 9612TIP3    H250328   4.460   2.000  14.241  1.1766 -0.0272 -0.0297
 9613TIP3   OH250329   0.708   5.199   3.288 -0.1764  0.3768 -0.4058
 9613TIP3    H150330   0.803   5.199   3.295 -0.0736  2.9304 -1.1894
 9613TIP3    H250331   0.677   5.175   3.375  1.1776  0.2418  0.0428
 9614TIP3   OH250332   3.827   5.623  12.691  0.1484 -0.0840  0.2736
 9614TIP3    H150333   3.804   5.692  12.628  3.3376  2.3660  1.5867
 9614TIP3    H250334   3.897   5.574  12.648 -0.1653 -0.7137  0.4744
 9615TIP3   OH250335   0.015   4.542   5.908  0.1207 -0.3583  0.1325
 9615TIP3    H150336   0.074   4.485   5.958  0.4702 -0.0985  0.0179
 9615TIP3    H250337   0.067   4.620   5.890 -0.0628 -0.3777 -0.4931
 9616TIP3   OH250338   0.421   6.674   4.011 -0.3278  0.3563 -0.3500
 9616TIP3    H150339   0.504   6.719   4.025 -0.2969  0.7130 -1.6402
 9616TIP3    H250340   0.363   6.709   4.079  1.1538 -1.4544  1.9604
 9617TIP3   OH250341   6.674   3.731  11.343  0.8659  0.3656 -0.2241
 9617TIP3    H150342   6.724   3.717  11.262  0.6153  0.9308 -0.4855
 9617TIP3    H250343   6.603   3.668  11.339  1.7571 -0.6889  0.3203
 9618TIP3   OH250344   3.383   3.108  12.750 -0.5450  0.3712  0.7380
 9618TIP3    H150345   3.366   3.147  12.835 -0.5753  0.1006  0.8566
 9618TIP3    H250346   3.299   3.115  12.703 -0.1219  1.8662  0.1888
 9619TIP3   OH250347   1.578   0.331   3.077  0.0378  0.5325  0.2012
 9619TIP3    H150348   1.670   0.308   3.089  0.0468 -0.2513 -1.2648
 9619TIP3    H250349   1.539   0.253   3.038 -1.0417  1.1944 -0.0591
 9620TIP3   OH250350   4.427   2.605  16.381 -0.3254  0.1803 -0.1551
 9620TIP3    H150351   4.357   2.596  16.316  0.2176 -3.2811 -0.3872
 9620TIP3    H250352   4.382   2.599  16.465 -0.4281 -1.1621 -0.2941
 9621TIP3   OH250353   1.534   6.327   3.580  0.0337 -0.3826  0.0448
 9621TIP3    H150354   1.591   6.252   3.560 -0.4676 -1.1940  1.5555
 9621TIP3    H250355   1.595   6.400   3.594  0.6238 -0.8952  0.1692
 9622TIP3   OH250356   5.266   6.337   5.059 -0.2499  0.5549  0.3527
 9622TIP3    H150357   5.296   6.417   5.016  3.4729 -0.5625  0.6821
 9622TIP3    H250358   5.288   6.267   4.998 -0.3433 -0.5062  1.5159
 9623TIP3   OH250359   4.846   3.025  11.472 -0.3420  0.2476 -0.2619
 9623TIP3    H150360   4.871   2.978  11.552 -1.1779 -1.7975 -1.1638
 9623TIP3    H250361   4.753   3.003  11.460  0.3383 -1.2708 -3.0028
 9624TIP3   OH250362   0.064   1.728   4.194 -0.4372  0.2211 -0.3911
 9624TIP3    H150363   0.101   1.772   4.117  0.0839 -1.8906 -1.3575
 9624TIP3    H250364   0.085   1.787   4.266  0.3093  1.5477 -1.6430
 9625TIP3   OH250365   2.701   3.270   1.431  0.5218 -0.2421 -0.0122
 9625TIP3    H150366   2.674   3.193   1.381 -0.2462 -0.7147  1.1012
 9625TIP3    H250367   2.642   3.339   1.402  1.9500  0.2380 -1.8447
 9626TIP3   OH250368   3.896   1.831  15.077 -0.3171 -0.3579 -0.0974
 9626TIP3    H150369   3.850   1.752  15.106 -0.0260 -0.4689  0.0682
 9626TIP3    H250370   3.837   1.871  15.014 -0.9205 -0.1485  0.5975
 9627TIP3   OH250371   6.507   4.667  12.427 -0.2503 -0.1019  0.9772
 9627TIP3    H150372   6.425   4.623  12.448 -0.6270 -0.2033 -0.5993
 9627TIP3    H250373   6.576   4.610  12.462 -0.7741 -1.3809 -0.0217
 9628TIP3   OH250374   4.949   0.981  13.609 -0.6431 -0.1639  0.4153
 9628TIP3    H150375   4.873   0.966  13.554  1.9257  0.7493 -3.5642
 9628TIP3    H250376   4.965   1.075  13.603  1.9223 -0.5992 -0.4585
 9629TIP3   OH250377   1.125   5.233   5.118 -0.2034 -0.2377 -0.1905
 9629TIP3    H150378   1.078   5.251   5.200  0.9790  0.3965  0.3745
 9629TIP3    H250379   1.209   5.277   5.130  0.1102 -0.4434 -1.6189
 9630TIP3   OH250380   5.139   2.649  11.582 -0.4184  0.2108  0.2255
 9630TIP3    H150381   5.082   2.651  11.505 -0.3472 -0.2965  0.1592
 9630TIP3    H250382   5.227   2.636  11.546 -0.1794  1.5611  0.2836
 9631TIP3   OH250383   1.437   4.566  12.216 -0.0472 -0.2417 -0.6848
 9631TIP3    H150384   1.399   4.649  12.245  1.4311  0.2858 -0.1919
 9631TIP3    H250385   1.409   4.557  12.125 -1.4122  0.0739 -0.3117
 9632TIP3   OH250386   2.008   3.633   3.080 -0.3013  0.2884  0.1258
 9632TIP3    H150387   2.046   3.670   3.160 -2.6025 -1.0332  1.9060
 9632TIP3    H250388   1.913   3.642   3.091 -0.7091 -1.0697 -1.8698
 9633TIP3   OH250389   5.265   0.850   0.957 -0.3746  0.2099 -0.3022
 9633TIP3    H150390   5.174   0.821   0.969 -0.8181  0.7318 -2.2026
 9633TIP3    H250391   5.317   0.785   1.003 -1.6271 -1.1140 -0.7149
 9634TIP3   OH250392   5.793   0.208  15.652 -0.5604  0.3553  0.0930
 9634TIP3    H150393   5.873   0.253  15.624 -0.4773  0.5295  0.6058
 9634TIP3    H250394   5.731   0.279  15.669 -0.9484  0.2016 -0.6885
 9635TIP3   OH250395   2.372   6.495  12.846  0.2721 -0.1748 -0.1604
 9635TIP3    H150396   2.311   6.551  12.893 -2.2813  0.2450 -3.8115
 9635TIP3    H250397   2.422   6.555  12.791  2.0115 -0.8572  0.6103
 9636TIP3   OH250398   5.223   5.185  12.278  0.0599 -0.0974 -0.0003
 9636TIP3    H150399   5.250   5.208  12.189 -1.0546  0.8618 -0.0939
 9636TIP3    H250400   5.285   5.230  12.335 -1.4682  2.3764 -0.2086
 9637TIP3   OH250401   3.826   0.068  14.251 -0.3232  0.2035 -0.7624
 9637TIP3    H150402   3.753   0.086  14.191 -1.0029 -0.5893 -0.1975
 9637TIP3    H250403   3.784   0.024  14.326  0.8622 -1.0459 -0.8257
 9638TIP3   OH250404   1.028   1.970  12.950 -0.4669  0.0351 -0.5741
 9638TIP3    H150405   1.007   1.969  12.856 -0.9030 -0.2202 -0.4740
 9638TIP3    H250406   1.034   2.063  12.972  0.8189  0.0964 -1.1145
 9639TIP3   OH250407   6.157   0.606  14.534 -0.5616 -0.3768  0.1844
 9639TIP3    H150408   6.146   0.587  14.441  0.4150  3.0735 -0.6871
 9639TIP3    H250409   6.241   0.566  14.557  0.1546  0.4601 -0.9259
 9640TIP3   OH250410   5.624   5.812  12.271 -0.2095 -0.1812  0.0768
 9640TIP3    H150411   5.686   5.862  12.325 -0.6686  0.4091  0.0581
 9640TIP3    H250412   5.544   5.808  12.323 -0.6981  0.5030 -0.6154
 9641TIP3   OH250413   5.851   4.222  13.064 -0.3848 -0.6807 -0.5546
 9641TIP3    H150414   5.856   4.317  13.068 -0.0163 -0.7840  1.5178
 9641TIP3    H250415   5.904   4.199  12.988  0.3475  0.6978 -0.4727
 9642TIP3   OH250416   5.806   6.464   3.413  0.0169  0.5940  0.2791
 9642TIP3    H150417   5.744   6.536   3.403  0.9118  1.3010 -0.1988
 9642TIP3    H250418   5.860   6.468   3.334  0.6495 -0.0532  0.6762
 9643TIP3   OH250419   1.546   1.764  12.865  0.7238 -0.0116 -0.2225
 9643TIP3    H150420   1.577   1.822  12.935 -0.9137  1.8805 -1.0030
 9643TIP3    H250421   1.596   1.792  12.788 -0.4091  0.6917 -0.7078
 9644TIP3   OH250422   3.297   1.063   2.394  0.0976 -0.5381 -0.1356
 9644TIP3    H150423   3.381   1.051   2.348  0.4582 -2.0406  0.8425
 9644TIP3    H250424   3.240   0.995   2.357 -1.1230  1.3204 -1.7246
 9645TIP3   OH250425   0.933   1.064   5.795 -0.3022  0.6856 -0.3849
 9645TIP3    H150426   0.922   1.040   5.887 -0.5995  0.9688 -0.3430
 9645TIP3    H250427   0.999   1.004   5.762  0.7621  1.4284  0.3509
 9646TIP3   OH250428   3.261   0.507   0.419  0.3990  0.2008  0.4312
 9646TIP3    H150429   3.333   0.464   0.373  1.4091  1.6954  0.5710
 9646TIP3    H250430   3.275   0.601   0.403 -0.0295  0.6628  2.6139
 9647TIP3   OH250431   3.786   0.543   2.321  0.4410  0.2080  0.1566
 9647TIP3    H150432   3.771   0.453   2.293  1.7641 -0.5489  1.7768
 9647TIP3    H250433   3.852   0.536   2.390  1.5533  2.5454 -0.5972
 9648TIP3   OH250434   6.177   2.933  13.380 -0.5865  0.1996 -0.0870
 9648TIP3    H150435   6.090   2.901  13.356 -0.5288 -2.1836  2.6058
 9648TIP3    H250436   6.237   2.881  13.327 -0.6789 -1.0464  1.0000
 9649TIP3   OH250437   5.090   5.787   1.951  0.5472 -0.2280  0.0467
 9649TIP3    H150438   5.072   5.864   1.898 -1.1930  0.1182  1.0916
 9649TIP3    H250439   5.049   5.715   1.902  2.1351 -0.5094 -0.9075
 9650TIP3   OH250440   3.891   5.427   3.043 -0.3349 -0.8483  0.1839
 9650TIP3    H150441   3.908   5.521   3.048  0.0172 -0.8160 -1.3732
 9650TIP3    H250442   3.834   5.409   3.118  0.7289  0.3443  1.3134
 9651TIP3   OH250443   6.581   4.799  14.408 -0.1092 -0.2860 -0.8982
 9651TIP3    H150444   6.654   4.798  14.345  0.9904 -1.8024  0.3582
 9651TIP3    H250445   6.590   4.882  14.454  1.8977 -1.2082  0.4336
 9652TIP3   OH250446   3.687   4.798   5.920  0.4206  0.3970 -0.4442
 9652TIP3    H150447   3.629   4.739   5.872 -1.3576  1.1238  0.7430
 9652TIP3    H250448   3.775   4.773   5.892 -0.3491 -2.0366 -0.8240
 9653TIP3   OH250449   1.348   2.777   2.247  0.1077 -0.5081 -0.6520
 9653TIP3    H150450   1.408   2.711   2.283  2.0471  1.2321 -0.5657
 9653TIP3    H250451   1.263   2.735   2.246  1.0282 -2.4591  0.8785
 9654TIP3   OH250452   3.259   4.531  17.111 -0.1133  0.2177 -0.2482
 9654TIP3    H150453   3.253   4.436  17.121  1.0419  0.3833  2.3014
 9654TIP3    H250454   3.225   4.567  17.193  0.9566  1.9655 -0.5296
 9655TIP3   OH250455   5.192   4.962   0.325  0.3124 -0.3724  0.4413
 9655TIP3    H150456   5.184   4.951   0.230  0.6804  1.6840  0.1388
 9655TIP3    H250457   5.123   5.024   0.348  1.1859  0.3160  1.2593
 9656TIP3   OH250458   3.819   4.600  16.472  0.4254 -0.6760 -0.1477
 9656TIP3    H150459   3.901   4.581  16.517 -0.1187 -0.4961  0.9649
 9656TIP3    H250460   3.752   4.584  16.539 -0.6237 -3.1282 -1.7200
 9657TIP3   OH250461   2.118   3.503   1.954  0.1205 -0.3401 -0.2998
 9657TIP3    H150462   2.181   3.432   1.945 -0.5521 -1.0785  0.7030
 9657TIP3    H250463   2.036   3.460   1.979 -0.3826  0.7452 -0.0384
 9658TIP3   OH250464   6.513   4.110  13.316 -0.3346  0.0008 -0.4717
 9658TIP3    H150465   6.564   4.171  13.262  1.1267 -0.2091  0.6460
 9658TIP3    H250466   6.453   4.068  13.254 -0.5505  1.7043 -1.4647
 9659TIP3   OH250467   6.766   5.532   2.963 -0.0328 -0.2842  0.1358
 9659TIP3    H150468   6.737   5.620   2.988  0.6242 -0.1407  0.3936
 9659TIP3    H250469   6.693   5.475   2.988 -0.8905  0.3073 -0.9652
 9660TIP3   OH250470   4.528   3.891  13.839 -0.3008 -0.2492  0.0334
 9660TIP3    H150471   4.502   3.894  13.932 -0.1693  0.7119  0.0396
 9660TIP3    H250472   4.610   3.842  13.839  0.0704  0.3641  0.5169
 9661TIP3   OH250473   4.921   4.077  14.925 -0.2302 -0.5857 -0.9948
 9661TIP3    H150474   4.864   4.153  14.918 -0.3999 -0.6862 -0.7442
 9661TIP3    H250475   4.876   4.009  14.874  0.8553  0.0113 -2.8061
 9662TIP3   OH250476   2.748   6.478  15.581 -0.2832  0.3717  0.3563
 9662TIP3    H150477   2.705   6.562  15.593 -1.4179 -0.3176  1.2547
 9662TIP3    H250478   2.774   6.476  15.489 -2.8863  0.4921 -0.4009
 9663TIP3   OH250479   5.109   3.274   0.770  0.2115 -0.2615 -0.4635
 9663TIP3    H150480   5.047   3.264   0.698  0.9598  0.9063 -1.2733
 9663TIP3    H250481   5.186   3.226   0.742  0.4375  0.0391 -0.3520
 9664TIP3   OH250482   4.464   0.111   4.579  0.1017 -0.4058 -0.3203
 9664TIP3    H150483   4.532   0.078   4.521 -0.9427 -0.2731 -1.6535
 9664TIP3    H250484   4.470   0.206   4.571 -1.0107 -0.4158 -1.3703
 9665TIP3   OH250485   4.665   6.684  14.231  0.3484  0.0696 -0.5416
 9665TIP3    H150486   4.691   6.647  14.316 -2.7513 -0.0456  0.3998
 9665TIP3    H250487   4.691   6.776  14.236 -1.4987  0.5271  1.3086
 9666TIP3   OH250488   0.563   2.000   3.476 -0.0801 -0.0192  0.2670
 9666TIP3    H150489   0.616   2.033   3.549 -0.1874  0.0165  0.3287
 9666TIP3    H250490   0.579   1.905   3.475  0.4674  0.0715 -0.1008
 9667TIP3   OH250491   6.479   1.918   0.744  0.4223 -0.3362 -0.0136
 9667TIP3    H150492   6.423   1.996   0.748  1.3278  0.2713  1.7297
 9667TIP3    H250493   6.424   1.846   0.773  0.5398  0.2767  1.7899
 9668TIP3   OH250494   5.591   0.345   1.343  0.3719 -0.2734  0.3175
 9668TIP3    H150495   5.594   0.250   1.358  2.0154 -0.2669  0.1615
 9668TIP3    H250496   5.541   0.355   1.262 -1.8122 -0.8288  1.5397
 9669TIP3   OH250497   2.664   4.982  12.854 -0.3415  0.2940 -0.3011
 9669TIP3    H150498   2.590   5.038  12.829 -0.1554  1.3914  1.4531
 9669TIP3    H250499   2.709   4.962  12.772 -3.3035 -1.4538 -1.5690
 9670TIP3   OH250500   5.119   2.936  15.566  0.3859  0.2584 -0.0811
 9670TIP3    H150501   5.075   2.999  15.509  1.2298  1.6884  0.8196
 9670TIP3    H250502   5.059   2.926  15.640 -0.7259 -1.6250 -1.1870
 9671TIP3   OH250503   3.208   2.433   0.768 -0.1366  0.4441  0.0041
 9671TIP3    H150504   3.301   2.441   0.747 -0.3213 -0.0322 -1.0182
 9671TIP3    H250505   3.178   2.523   0.777  0.3665  0.6056  0.0981
 9672TIP3   OH250506   4.972   4.619   2.794  0.5166  0.4106 -0.2966
 9672TIP3    H150507   5.009   4.700   2.758  0.3354  1.8840  2.6463
 9672TIP3    H250508   5.043   4.555   2.786  2.3229  2.0978  1.4562
 9673TIP3   OH250509   5.387   0.018  13.361  0.0234 -0.1668 -0.0067
 9673TIP3    H150510   5.396   0.044  13.452 -1.6850 -0.8915  0.3975
 9673TIP3    H250511   5.468   0.046  13.319  1.0570 -0.3098  1.8472
 9674TIP3   OH250512   6.209   1.210  11.753 -0.2995  0.0585 -0.0723
 9674TIP3    H150513   6.282   1.214  11.690 -1.2339 -0.4225 -1.2077
 9674TIP3    H250514   6.246   1.244  11.834  0.8972  0.8546 -0.9212
 9675TIP3   OH250515   4.243   2.304  11.811  0.1864 -0.2046  0.0775
 9675TIP3    H150516   4.167   2.352  11.777  1.3699  0.8895 -1.1019
 9675TIP3    H250517   4.233   2.216  11.776  1.1066  0.7667 -2.7700
 9676TIP3   OH250518   5.934   0.409   4.337  0.1284  0.1707 -0.2167
 9676TIP3    H150519   5.857   0.354   4.349  0.3986 -0.1484  0.0458
 9676TIP3    H250520   5.965   0.388   4.249  0.7134 -0.6996  0.1973
 9677TIP3   OH250521   1.112   0.288   5.169  0.3446 -0.1573  0.1947
 9677TIP3    H150522   1.155   0.357   5.219 -0.8835  1.7959 -1.4002
 9677TIP3    H250523   1.044   0.254   5.227  0.0936  0.8815  0.5085
 9678TIP3   OH250524   4.527   0.384   0.204 -0.2466  0.5401  0.2461
 9678TIP3    H150525   4.602   0.436   0.235  0.1456  0.0953  0.0495
 9678TIP3    H250526   4.533   0.388   0.109  0.2781 -0.5668  0.2256
 9679TIP3   OH250527   5.042   4.454  12.193  0.3031  0.1424 -0.3000
 9679TIP3    H150528   4.985   4.512  12.141 -0.4030 -0.2858 -0.0164
 9679TIP3    H250529   5.098   4.513  12.243 -0.6197  0.5831  0.2162
 9680TIP3   OH250530   0.697   6.774   6.422  0.1058 -0.1584 -0.4471
 9680TIP3    H150531   0.636   6.808   6.356 -0.4371 -0.1027  0.0839
 9680TIP3    H250532   0.733   6.694   6.383 -0.4971 -0.3299 -0.6511
 9681TIP3   OH250533   6.371   2.920  11.125 -0.8729  0.1486  0.1403
 9681TIP3    H150534   6.383   2.995  11.184  1.4847 -0.7824  0.8733
 9681TIP3    H250535   6.440   2.929  11.060 -0.7555 -1.2470  0.0601
 9682TIP3   OH250536   2.327   4.411  12.806 -0.6923  0.0564 -0.5084
 9682TIP3    H150537   2.251   4.414  12.865 -1.0845  0.6963 -1.0481
 9682TIP3    H250538   2.322   4.492  12.756 -0.1683 -0.3359 -1.1979
 9683TIP3   OH250539   1.751   5.142  14.536 -0.9140  0.2414 -0.6242
 9683TIP3    H150540   1.743   5.227  14.580  0.4172 -0.3036  0.6925
 9683TIP3    H250541   1.679   5.090  14.570 -0.7576  0.3065 -0.1947
 9684TIP3   OH250542   1.945   1.589  12.553 -0.2408 -0.5829  0.1177
 9684TIP3    H150543   2.014   1.655  12.560 -1.4926  0.7364  0.3832
 9684TIP3    H250544   1.959   1.547  12.469  1.4708 -1.0067  0.6024
 9685TIP3   OH250545   0.892   6.317  17.072 -0.5411  0.0925 -0.1683
 9685TIP3    H150546   0.810   6.348  17.034  0.2493  0.0914 -1.9318
 9685TIP3    H250547   0.960   6.358  17.018  0.5914 -0.5918  0.7270
 9686TIP3   OH250548   1.415   2.931   5.375 -0.1396  0.0779  0.4503
 9686TIP3    H150549   1.474   2.962   5.444  1.9938  0.3823 -1.4530
 9686TIP3    H250550   1.441   2.840   5.360  0.7264  0.5726 -1.2387
 9687TIP3   OH250551   1.543   1.296   1.147 -0.2538  0.1620 -0.5626
 9687TIP3    H150552   1.606   1.239   1.192  0.1377 -1.1532 -2.6786
 9687TIP3    H250553   1.594   1.373   1.122  0.2244 -0.3386 -1.1545
 9688TIP3   OH250554   2.844   3.550  16.666  0.0619 -0.4054 -0.5979
 9688TIP3    H150555   2.829   3.585  16.754  1.6249  0.0461 -0.4958
 9688TIP3    H250556   2.884   3.623  16.618  0.7147 -1.1552 -1.2114
 9689TIP3   OH250557   1.031   3.048   1.278  0.4106 -0.5696  0.5023
 9689TIP3    H150558   0.951   3.070   1.326  0.2603  1.3372 -0.5543
 9689TIP3    H250559   1.002   2.985   1.211  0.0724 -0.9851  1.0353
 9690TIP3   OH250560   3.006   0.669   4.598 -0.2703 -0.2541 -0.2344
 9690TIP3    H150561   2.994   0.624   4.682 -2.5362  0.1207 -0.3206
 9690TIP3    H250562   2.941   0.740   4.600 -1.4931 -1.2670 -2.9842
 9691TIP3   OH250563   0.511   4.241  13.418 -0.1332  0.4249 -0.1671
 9691TIP3    H150564   0.423   4.265  13.447 -0.1024 -2.1347  2.2295
 9691TIP3    H250565   0.498   4.169  13.357  0.2561  0.8725 -0.7894
 9692TIP3   OH250566   4.593   4.956  16.377 -0.1087 -0.2678  0.6791
 9692TIP3    H150567   4.638   4.875  16.353 -1.4730 -1.0437  0.6646
 9692TIP3    H250568   4.621   5.020  16.311  1.4340 -0.5544  1.0373
 9693TIP3   OH250569   1.805   6.462  13.147 -0.4205  0.1239  0.7225
 9693TIP3    H150570   1.813   6.375  13.187  2.8276  0.4554  0.8613
 9693TIP3    H250571   1.799   6.445  13.053  1.4559 -0.2295  0.6495
 9694TIP3   OH250572   0.737   4.680  11.804  0.3688 -0.4477 -0.2515
 9694TIP3    H150573   0.712   4.659  11.894  0.5522 -3.1680 -0.8059
 9694TIP3    H250574   0.666   4.737  11.772 -0.1788 -0.2541  1.2746
 9695TIP3   OH250575   2.752   5.168   4.906  0.3655  0.0503 -0.2621
 9695TIP3    H150576   2.814   5.235   4.879  1.1260  0.2665  1.8994
 9695TIP3    H250577   2.776   5.090   4.856  1.2161  0.6479 -0.7805
 9696TIP3   OH250578   4.082   1.484   4.323 -0.2857 -0.3996 -0.0682
 9696TIP3    H150579   4.080   1.562   4.379 -0.6947 -0.7534  0.4156
 9696TIP3    H250580   4.148   1.503   4.257  0.8879 -0.3652  1.0974
 9697TIP3   OH250581   6.671   3.576  14.079 -0.0288 -0.2342  0.0329
 9697TIP3    H150582   6.759   3.583  14.042  1.3370 -1.9689  2.8069
 9697TIP3    H250583   6.629   3.506  14.028  0.1340  0.6764 -1.3744
 9698TIP3   OH250584   2.185   1.258   2.782  0.0386 -0.0538 -0.4736
 9698TIP3    H150585   2.114   1.211   2.827  2.0319 -1.6639  1.1079
 9698TIP3    H250586   2.179   1.229   2.691 -1.6094  0.1848 -0.4500
 9699TIP3   OH250587   4.241   5.605  10.755 -0.1709  0.0053 -0.5114
 9699TIP3    H150588   4.294   5.671  10.711 -1.4404  1.5102  0.1781
 9699TIP3    H250589   4.167   5.654  10.791 -0.5290 -1.6235  0.9985
 9700TIP3   OH250590   4.453   0.313  16.705 -0.2855 -0.4098  0.7909
 9700TIP3    H150591   4.526   0.350  16.755 -1.8680  2.0695  1.3329
 9700TIP3    H250592   4.376   0.336  16.756 -1.7563  0.1469 -1.6098
 9701TIP3   OH250593   4.611   3.875   2.138 -1.0700  0.3791 -0.4409
 9701TIP3    H150594   4.667   3.952   2.148 -2.0882  1.2559 -1.3531
 9701TIP3    H250595   4.657   3.805   2.184 -0.7173  1.8131  1.4038
 9702TIP3   OH250596   2.679   1.626  11.845  0.4891  0.5900  0.1856
 9702TIP3    H150597   2.682   1.605  11.752  2.1976  0.9256  0.1492
 9702TIP3    H250598   2.767   1.607  11.877 -0.2311 -0.0397  1.8529
 9703TIP3   OH250599   1.221   1.850  16.265 -0.3337  0.0975 -0.6213
 9703TIP3    H150600   1.148   1.826  16.322 -1.0146  0.9585 -1.1254
 9703TIP3    H250601   1.212   1.792  16.190  0.7955 -1.3123  0.3065
 9704TIP3   OH250602   2.808   1.936  14.194  0.3091 -0.4881 -0.0585
 9704TIP3    H150603   2.740   1.955  14.129  1.1452  0.5009 -0.6589
 9704TIP3    H250604   2.865   1.873  14.151  0.8597  0.1617 -0.2934
 9705TIP3   OH250605   3.663   2.831   3.042 -0.2835 -0.3654 -0.2354
 9705TIP3    H150606   3.650   2.806   3.133 -0.8346 -2.1157 -0.7725
 9705TIP3    H250607   3.747   2.878   3.042  1.0557 -2.6715  0.7646
 9706TIP3   OH250608   4.189   3.229   3.711 -0.0616 -0.4162 -0.0055
 9706TIP3    H150609   4.262   3.241   3.651 -0.4616 -1.1771 -0.6524
 9706TIP3    H250610   4.126   3.297   3.686 -0.9005 -1.7238 -1.4838
 9707TIP3   OH250611   2.250   3.390  16.153  0.1762 -0.0135  0.1540
 9707TIP3    H150612   2.307   3.371  16.228  0.8375 -0.2015 -0.3932
 9707TIP3    H250613   2.162   3.394  16.191  0.5677  0.4461  1.0291
 9708TIP3   OH250614   6.083   3.534  16.147  0.3626  0.2217 -0.6007
 9708TIP3    H150615   5.999   3.567  16.178  1.2486 -0.3275  2.6057
 9708TIP3    H250616   6.062   3.453  16.101 -0.8973  0.3416 -0.2537
 9709TIP3   OH250617   1.074   5.781  16.764  0.0109 -0.1626 -0.0123
 9709TIP3    H150618   1.044   5.703  16.717  1.8139 -0.2147 -1.1230
 9709TIP3    H250619   1.169   5.779  16.755  0.3585  0.1438  3.1964
 9710TIP3   OH250620   5.778   2.451   1.861  0.0747 -0.3101  0.1260
 9710TIP3    H150621   5.737   2.395   1.795 -1.7276  0.1065  0.8569
 9710TIP3    H250622   5.853   2.490   1.817 -0.4843 -0.8730 -1.3426
 9711TIP3   OH250623   5.899   1.263  16.546  0.1306 -0.3579  0.1384
 9711TIP3    H150624   5.949   1.313  16.611  0.7557  0.0772 -0.6616
 9711TIP3    H250625   5.966   1.229  16.487 -0.4096 -1.0001 -0.1052
 9712TIP3   OH250626   4.634   5.554  10.699 -0.2619 -0.5095 -0.1538
 9712TIP3    H150627   4.633   5.492  10.625  2.2032 -0.7509 -0.0110
 9712TIP3    H250628   4.561   5.613  10.681 -0.2725 -1.1374 -2.3050
 9713TIP3   OH250629   2.352   6.324  17.032 -0.0360 -0.4760  0.0991
 9713TIP3    H150630   2.388   6.269  17.102 -0.2877 -1.1047 -0.2632
 9713TIP3    H250631   2.360   6.270  16.953  0.6296  0.3868 -0.4321
 9714TIP3   OH250632   0.443   4.079   0.788 -0.0139  0.1976  0.2672
 9714TIP3    H150633   0.390   4.032   0.724 -0.2913  0.5643  0.2241
 9714TIP3    H250634   0.405   4.055   0.873 -0.1143  0.2894  0.2490
 9715TIP3   OH250635   0.874   3.100  16.880 -0.4120 -0.3410  0.0728
 9715TIP3    H150636   0.902   3.037  16.947 -0.5375 -0.4102  0.0584
 9715TIP3    H250637   0.903   3.061  16.797 -0.0889 -0.1661  0.1008
 9716TIP3   OH250638   5.994   1.596   2.253  0.2386 -0.6083 -0.6644
 9716TIP3    H150639   6.021   1.505   2.240 -0.5644 -0.8034 -1.0062
 9716TIP3    H250640   6.017   1.640   2.171  1.6354 -0.2514 -0.0879
 9717TIP3   OH250641   4.871   1.755   3.916  0.2538  0.2268 -0.0427
 9717TIP3    H150642   4.948   1.812   3.920  1.0753 -0.9290  0.9648
 9717TIP3    H250643   4.906   1.667   3.915 -1.0964 -0.3794  2.2054
 9718TIP3   OH250644   1.354   3.639  13.692 -0.0233 -0.0980  0.8019
 9718TIP3    H150645   1.378   3.607  13.779 -3.4837  1.7744  2.5845
 9718TIP3    H250646   1.314   3.564  13.648 -1.3538 -0.2036  2.1533
 9719TIP3   OH250647   2.640   0.287  16.116  0.0374  0.0087 -0.1613
 9719TIP3    H150648   2.691   0.211  16.144  0.0810  0.4055  0.8765
 9719TIP3    H250649   2.587   0.254  16.044  0.5694 -0.8279 -0.1873
 9720TIP3   OH250650   1.854   5.528  15.231  0.5107  0.0857  0.5621
 9720TIP3    H150651   1.790   5.596  15.248  1.3047  0.2670  3.0684
 9720TIP3    H250652   1.931   5.555  15.281  1.0198 -2.3370  1.1558
 9721TIP3   OH250653   4.646   6.511  15.385 -0.4272  0.0419 -0.0126
 9721TIP3    H150654   4.612   6.523  15.297 -1.1849 -0.7548  0.1657
 9721TIP3    H250655   4.741   6.504  15.374 -0.3837  1.4988 -0.5954
 9722TIP3   OH250656   2.974   0.639  11.530  0.2236 -0.7296  0.0716
 9722TIP3    H150657   2.890   0.666  11.567  0.2322  0.3530 -0.6831
 9722TIP3    H250658   2.999   0.710  11.471  2.3415 -0.3997  1.3080
 9723TIP3   OH250659   1.858   2.545  12.059  0.1033  0.1488  0.0752
 9723TIP3    H150660   1.946   2.509  12.073  0.8375  1.7653 -0.2603
 9723TIP3    H250661   1.833   2.581  12.144 -0.7808 -1.4295  0.5062
 9724TIP3   OH250662   0.550   4.674   3.735  0.2634 -0.2843 -0.0623
 9724TIP3    H150663   0.485   4.700   3.670 -0.7563 -2.0129  0.2418
 9724TIP3    H250664   0.634   4.683   3.690 -0.3806 -0.6895 -1.3674
 9725TIP3   OH250665   2.109   3.145  15.634  0.2264 -0.1769 -0.3599
 9725TIP3    H150666   2.060   3.200  15.573 -2.1878 -1.4203  0.4021
 9725TIP3    H250667   2.092   3.183  15.720 -0.1088 -1.1373 -0.0014
 9726TIP3   OH250668   3.278   5.430  13.491  0.1116 -0.0123 -0.2927
 9726TIP3    H150669   3.287   5.370  13.566  1.8389  0.0533 -0.4150
 9726TIP3    H250670   3.198   5.402  13.448 -0.7753 -0.2251  1.4317
 9727TIP3   OH250671   6.572   5.204   3.977 -0.3068  0.0659  0.0829
 9727TIP3    H150672   6.498   5.232   3.924 -0.4127 -1.1036 -0.4069
 9727TIP3    H250673   6.647   5.251   3.940 -0.6092  0.3300 -0.1934
 9728TIP3   OH250674   2.159   3.051   1.702  0.0493  0.4108  0.0032
 9728TIP3    H150675   2.201   3.090   1.626 -0.3505  0.8680  0.0183
 9728TIP3    H250676   2.065   3.060   1.686 -0.0778 -1.4565 -0.4718
 9729TIP3   OH250677   1.115   1.014   3.894 -0.0069 -0.4319 -0.1006
 9729TIP3    H150678   1.127   0.921   3.878  3.8775 -0.0619  0.3690
 9729TIP3    H250679   1.126   1.055   3.808 -1.1251 -0.3285 -0.2048
 9730TIP3   OH250680   2.173   0.997  10.683 -0.0952  0.1535 -0.2000
 9730TIP3    H150681   2.216   0.935  10.624  0.1187  0.6604 -0.5798
 9730TIP3    H250682   2.093   1.023  10.637 -0.4188 -0.1904  0.1620
 9731TIP3   OH250683   4.869   5.241  12.813 -0.2230  0.2676  0.9433
 9731TIP3    H150684   4.930   5.260  12.884 -0.1307  2.2667  0.3615
 9731TIP3    H250685   4.803   5.310  12.819 -1.0984 -0.4830  0.0867
 9732TIP3   OH250686   4.295   0.770   1.247  0.2756 -0.0422 -0.0034
 9732TIP3    H150687   4.352   0.758   1.323  0.8871  1.3081 -0.2301
 9732TIP3    H250688   4.238   0.843   1.271 -1.1403 -1.1640  0.0800
 9733TIP3   OH250689   1.810   3.798   2.769 -0.8950 -0.3099 -0.5058
 9733TIP3    H150690   1.810   3.781   2.675 -0.7122  0.0277 -0.5671
 9733TIP3    H250691   1.854   3.882   2.779  0.8063 -1.2350  0.0425
 9734TIP3   OH250692   1.575   1.267   3.004 -0.0246  0.7151 -0.3335
 9734TIP3    H150693   1.589   1.174   3.024  0.3332  0.8259 -0.0608
 9734TIP3    H250694   1.624   1.281   2.923 -1.7182  0.1950 -1.4600
 9735TIP3   OH250695   0.940   0.126  11.602  0.5531 -0.4325 -0.0168
 9735TIP3    H150696   0.971   0.112  11.692 -0.9913  0.9184  0.7455
 9735TIP3    H250697   1.013   0.099  11.547  1.1693 -2.1897  1.6271
 9736TIP3   OH250698   2.168   5.407   0.720  0.1306  0.4952 -0.7425
 9736TIP3    H150699   2.105   5.408   0.792  0.2344  0.3878 -0.6500
 9736TIP3    H250700   2.159   5.493   0.680 -0.5127  0.2544 -1.1128
 9737TIP3   OH250701   3.836   6.705  13.215 -0.0900  0.0817  0.2201
 9737TIP3    H150702   3.769   6.734  13.153  1.0423 -1.2262 -1.6618
 9737TIP3    H250703   3.918   6.741  13.181  0.0657  2.6831  3.1591
 9738TIP3   OH250704   2.331   3.398  17.290  0.2573 -0.0477 -0.3167
 9738TIP3    H150705   2.376   3.470  17.335  0.8003 -0.7358  0.2423
 9738TIP3    H250706   2.387   3.322  17.304 -0.2817 -0.5723 -0.9685
 9739TIP3   OH250707   1.406   5.197  17.071 -0.4386  0.2301  0.3174
 9739TIP3    H150708   1.321   5.164  17.041 -0.2749 -0.6697  0.8163
 9739TIP3    H250709   1.450   5.225  16.991 -0.4188 -1.1674 -0.1726
 9740TIP3   OH250710   0.463   0.951   4.307 -0.2474 -0.0229 -0.0676
 9740TIP3    H150711   0.525   1.020   4.286  0.7993 -0.8049  0.3551
 9740TIP3    H250712   0.478   0.884   4.240 -1.4749  0.2891 -0.6671
 9741TIP3   OH250713   5.733   1.690  11.989  0.3687  0.2220 -0.6421
 9741TIP3    H150714   5.824   1.713  11.973  0.3573  0.2095 -0.7269
 9741TIP3    H250715   5.718   1.612  11.936 -0.0616  1.0069 -1.6762
 9742TIP3   OH250716   5.825   3.420  12.703  0.3902  0.3562  0.1815
 9742TIP3    H150717   5.744   3.368  12.706  0.3922 -0.2232 -4.8651
 9742TIP3    H250718   5.799   3.506  12.734 -1.5981 -0.4946  0.9587
 9743TIP3   OH250719   2.688   6.553  17.241  0.8654 -0.5578 -0.4849
 9743TIP3    H150720   2.720   6.478  17.190  2.7605  0.1997 -0.4306
 9743TIP3    H250721   2.602   6.524  17.273  0.4067 -1.7110 -2.6284
 9744TIP3   OH250722   2.831   0.873  15.231  0.8560  0.1293  0.1326
 9744TIP3    H150723   2.775   0.933  15.181 -0.6884 -0.9229  0.5672
 9744TIP3    H250724   2.889   0.835  15.165  1.0876  1.2649 -0.3275
 9745TIP3   OH250725   2.305   1.960  10.666  0.3830 -0.1274  0.2672
 9745TIP3    H150726   2.333   2.052  10.664 -0.4086  0.1160  0.0665
 9745TIP3    H250727   2.386   1.910  10.665  0.8409  0.5209 -3.0874
 9746TIP3   OH250728   2.620   1.858   5.995  0.3124 -0.8575  0.5380
 9746TIP3    H150729   2.610   1.906   5.912  0.3426  0.9590  1.5439
 9746TIP3    H250730   2.531   1.827   6.015  0.3038 -1.3071 -0.1620
 9747TIP3   OH250731   6.399   5.180  17.137 -0.0968 -0.7355 -0.1808
 9747TIP3    H150732   6.390   5.097  17.183 -1.3510 -0.0452  0.8759
 9747TIP3    H250733   6.428   5.157  17.049 -0.6428 -2.2982  0.0462
 9748TIP3   OH250734   6.345   1.012  13.603 -0.0550  0.3170 -0.3495
 9748TIP3    H150735   6.346   1.102  13.638  0.7131 -0.1219  0.8134
 9748TIP3    H250736   6.253   0.992  13.588 -0.1701  1.6365 -1.5214
 9749TIP3   OH250737   4.979   0.645  15.948  0.1601  0.0824  0.0151
 9749TIP3    H150738   4.900   0.625  15.999 -0.1580  1.2306 -0.0106
 9749TIP3    H250739   5.029   0.704  16.004  0.1734  0.7435 -0.6979
 9750TIP3   OH250740   1.638   0.750  17.177  0.0188 -0.0005  0.0085
 9750TIP3    H150741   1.563   0.770  17.233 -1.4123  0.5435 -2.0335
 9750TIP3    H250742   1.661   0.833  17.136  1.4191 -0.2676  0.2328
 9751TIP3   OH250743   1.631   5.611   4.623  0.5495 -0.4424  0.8247
 9751TIP3    H150744   1.654   5.628   4.532 -1.6069 -1.0336  0.1315
 9751TIP3    H250745   1.611   5.518   4.625 -1.8768  0.0538  1.3051
 9752TIP3   OH250746   1.585   0.556  10.964  0.4370 -0.2885  1.0103
 9752TIP3    H150747   1.559   0.570  11.055 -1.6153  0.9676  0.2631
 9752TIP3    H250748   1.616   0.642  10.934 -0.1763 -0.3542  0.1522
 9753TIP3   OH250749   5.277   2.268  16.479 -0.0568 -0.4324  0.0745
 9753TIP3    H150750   5.234   2.350  16.457  1.4916  0.4647  0.3217
 9753TIP3    H250751   5.326   2.287  16.559 -0.0939 -1.7371  0.4155
 9754TIP3   OH250752   4.727   4.625   1.140 -0.5780 -0.3205  0.2312
 9754TIP3    H150753   4.809   4.581   1.163  0.0517 -0.6053 -2.4686
 9754TIP3    H250754   4.702   4.588   1.056 -1.4461  2.5366 -0.8376
 9755TIP3   OH250755   0.465   0.585   5.259 -0.2321 -0.1501 -0.2666
 9755TIP3    H150756   0.489   0.640   5.333  2.4286 -1.1924 -0.3145
 9755TIP3    H250757   0.493   0.497   5.284  0.7467 -0.5062 -2.5200
 9756TIP3   OH250758   1.694   5.896  16.594  0.2845 -0.3769  0.4224
 9756TIP3    H150759   1.600   5.903  16.580  0.3972  2.0856  0.5926
 9756TIP3    H250760   1.705   5.817  16.647 -1.5200 -1.5652 -0.9099
 9757TIP3   OH250761   0.354   4.871   3.887  0.2289  0.4723 -0.1159
 9757TIP3    H150762   0.323   4.905   3.803  1.0915  2.3158  0.2844
 9757TIP3    H250763   0.282   4.819   3.921 -0.8805  1.3876 -1.0596
 9758TIP3   OH250764   1.113   0.442   2.277 -0.1594  0.0579  0.4755
 9758TIP3    H150765   1.177   0.488   2.223 -2.3555  0.3753 -1.9883
 9758TIP3    H250766   1.054   0.510   2.309 -1.3840 -0.5769 -0.3335
 9759TIP3   OH250767   3.511   3.662   6.670 -0.7104 -0.0537  0.6286
 9759TIP3    H150768   3.433   3.608   6.659 -1.5479  0.8627  1.9211
 9759TIP3    H250769   3.503   3.729   6.603 -1.0535  0.0516  0.7737
 9760TIP3   OH250770   3.385   4.357   4.850 -0.0354  1.1363 -0.4631
 9760TIP3    H150771   3.357   4.434   4.800  0.2537  0.1255 -2.2515
 9760TIP3    H250772   3.310   4.297   4.843 -0.0946  1.0837  0.5659
 9761TIP3   OH250773   1.895   4.601  16.585  0.2778 -0.2280 -0.1970
 9761TIP3    H150774   1.949   4.666  16.629 -0.3299 -0.5630  1.0745
 9761TIP3    H250775   1.825   4.652  16.544 -1.1703 -0.1470  2.2142
 9762TIP3   OH250776   4.431   6.195   3.026  0.1021 -0.4742 -0.6188
 9762TIP3    H150777   4.405   6.275   2.980 -1.3364 -1.1302 -1.0022
 9762TIP3    H250778   4.377   6.195   3.105 -1.0519 -1.8271 -1.3827
 9763TIP3   OH250779   2.906   1.340  16.750  0.5465 -0.3434  0.0337
 9763TIP3    H150780   2.948   1.286  16.817  0.7510 -0.1919  0.0273
 9763TIP3    H250781   2.822   1.364  16.787  1.2072  0.8422  0.7748
 9764TIP3   OH250782   3.944   2.744  11.923 -0.0265  0.0066 -0.4928
 9764TIP3    H150783   3.997   2.767  11.847  1.9952 -0.9117  0.5939
 9764TIP3    H250784   3.912   2.655  11.905  0.5551 -0.2597 -0.2356
 9765TIP3   OH250785   6.310   3.829   5.984  0.9265 -0.5482  0.6012
 9765TIP3    H150786   6.376   3.816   6.052  1.4788 -1.8685 -0.1781
 9765TIP3    H250787   6.227   3.804   6.027  1.2100 -0.9403  0.9242
 9766TIP3   OH250788   2.338   4.963  15.125 -0.0787  0.0732  0.4222
 9766TIP3    H150789   2.308   4.965  15.034 -1.1599  0.7718  0.7815
 9766TIP3    H250790   2.378   4.877  15.136  0.6031  0.2031 -0.8803
 9767TIP3   OH250791   0.729   4.179  14.421  0.1904 -0.8465  0.0496
 9767TIP3    H150792   0.643   4.149  14.391 -0.0793 -1.9137  1.8195
 9767TIP3    H250793   0.792   4.132  14.366 -0.3461  0.3079 -1.5784
 9768TIP3   OH250794   5.084   0.592  13.279  0.2658 -0.2834 -0.4591
 9768TIP3    H150795   5.068   0.517  13.337  1.8922  0.5179  1.0743
 9768TIP3    H250796   5.002   0.641  13.280  0.0574 -0.6383  0.6331
 9769TIP3   OH250797   2.645   5.975   2.747  0.1792  0.2860 -0.1533
 9769TIP3    H150798   2.689   6.059   2.764  2.2107 -0.3441 -2.0118
 9769TIP3    H250799   2.686   5.943   2.667  0.1413 -2.9589  1.0495
 9770TIP3   OH250800   5.532   0.074  15.403 -0.2998 -0.1912  0.2316
 9770TIP3    H150801   5.603   0.138  15.400 -1.9011  1.6097 -0.4020
 9770TIP3    H250802   5.462   0.118  15.450 -1.0305 -1.9442  0.8305
 9771TIP3   OH250803   0.339   3.154  13.895  0.3085 -0.1250 -0.3252
 9771TIP3    H150804   0.272   3.201  13.847  0.6820  0.6469 -0.1111
 9771TIP3    H250805   0.361   3.079  13.840 -1.0602 -0.6523 -0.1719
 9772TIP3   OH250806   4.405   0.222   5.303  0.3814 -0.5891  0.2362
 9772TIP3    H150807   4.437   0.181   5.384  2.0088  1.2867  0.5725
 9772TIP3    H250808   4.448   0.173   5.233 -0.6297 -1.8830  0.4894
 9773TIP3   OH250809   4.097   1.017   0.615 -0.7555  0.2137  0.5151
 9773TIP3    H150810   4.126   0.933   0.579  0.2782  0.9388 -0.3776
 9773TIP3    H250811   4.025   0.994   0.674  1.8310 -1.6903  3.0548
 9774TIP3   OH250812   1.186   6.043  12.153 -0.3493  0.1624  0.9462
 9774TIP3    H150813   1.160   6.125  12.112 -0.0410  0.0520  0.5391
 9774TIP3    H250814   1.167   5.976  12.088 -0.3793 -0.0685  1.1898
 9775TIP3   OH250815   2.525   3.160  15.310  0.4203 -0.4534 -0.3549
 9775TIP3    H150816   2.485   3.164  15.398  0.3295  0.4206 -0.4270
 9775TIP3    H250817   2.533   3.067  15.291 -1.8037 -0.6520 -0.4291
 9776TIP3   OH250818   1.730   2.660   3.137 -0.2571  0.0971 -0.3754
 9776TIP3    H150819   1.700   2.642   3.226  0.3762  0.2467 -0.1256
 9776TIP3    H250820   1.825   2.652   3.142 -0.2130  0.1694 -1.0254
 9777TIP3   OH250821   1.269   5.313  14.131  0.5799 -0.5642  0.0056
 9777TIP3    H150822   1.267   5.383  14.198  1.6582 -1.3355  0.8604
 9777TIP3    H250823   1.358   5.278  14.136  1.1923  0.3979 -2.9520
 9778TIP3   OH250824   2.974   2.353  16.755 -0.3340 -0.8528 -0.3539
 9778TIP3    H150825   3.053   2.388  16.796  0.3992 -2.1079 -0.6848
 9778TIP3    H250826   2.946   2.422  16.695  0.9700 -0.7364 -0.8413
 9779TIP3   OH250827   0.999   6.677  11.322  0.1668  0.1185  0.1176
 9779TIP3    H150828   1.029   6.724  11.244 -2.1773 -0.1680 -1.0010
 9779TIP3    H250829   0.998   6.743  11.391 -0.8501  1.1750 -0.8805
 9780TIP3   OH250830   1.998   0.726  11.176  0.5069  0.0058 -0.0786
 9780TIP3    H150831   2.058   0.706  11.105  1.3369 -1.5475  1.0232
 9780TIP3    H250832   1.913   0.739  11.133  1.8414  3.5017 -1.7693
 9781TIP3   OH250833   3.404   0.882  16.284  0.4271  0.3512  0.4009
 9781TIP3    H150834   3.411   0.855  16.375 -1.4978  0.5460  0.6276
 9781TIP3    H250835   3.392   0.799  16.236  0.4029  0.3314  0.4395
 9782TIP3   OH250836   0.128   4.361  16.564  0.3638  0.2304 -0.2356
 9782TIP3    H150837   0.125   4.395  16.474  0.2490  1.6589  0.2994
 9782TIP3    H250838   0.214   4.319  16.571  0.8581  1.1708 -0.6272
 9783TIP3   OH250839   1.443   2.495  15.953 -0.2852 -0.0438 -0.4929
 9783TIP3    H150840   1.359   2.504  15.909 -0.5849 -1.5053 -0.2284
 9783TIP3    H250841   1.495   2.569  15.921 -1.7184  0.9654 -0.5251
 9784TIP3   OH250842   4.269   1.557  13.440  0.1434  0.2943 -0.7413
 9784TIP3    H150843   4.318   1.509  13.506 -0.9807 -0.2330 -0.2884
 9784TIP3    H250844   4.331   1.567  13.367  0.5747 -1.3039 -0.6076
 9785TIP3   OH250845   4.352   4.386   0.354  0.1958 -0.2396  0.3261
 9785TIP3    H150846   4.312   4.302   0.377 -0.2220 -0.1514 -0.0697
 9785TIP3    H250847   4.418   4.364   0.288 -1.4121 -0.0100 -1.4086
 9786TIP3   OH250848   4.646   5.035   6.378 -0.2922 -0.6584 -0.1367
 9786TIP3    H150849   4.627   5.040   6.284  1.0240  0.4095 -0.3664
 9786TIP3    H250850   4.656   4.942   6.395 -0.2372 -0.8418 -1.1160
 9787TIP3   OH250851   0.820   1.591  14.862 -0.4676  0.1691  0.5122
 9787TIP3    H150852   0.904   1.634  14.851 -0.1039 -1.1468 -2.0518
 9787TIP3    H250853   0.841   1.507  14.902 -0.9568  1.2781  3.2487
 9788TIP3   OH250854   6.543   6.391  14.401 -0.0425  0.4656  0.3587
 9788TIP3    H150855   6.588   6.389  14.317  1.5870 -0.7349  1.2347
 9788TIP3    H250856   6.466   6.336  14.390  0.3851 -0.0083 -0.2233
 9789TIP3   OH250857   1.952   6.740  15.251 -0.3462 -0.3089 -0.2739
 9789TIP3    H150858   1.867   6.727  15.292 -1.0271  1.3787 -1.1266
 9789TIP3    H250859   1.939   6.710  15.161 -0.1745  0.4162 -0.5380
 9790TIP3   OH250860   4.856   5.072   3.858 -0.5443  0.4067 -0.1014
 9790TIP3    H150861   4.870   5.145   3.798 -2.1191  1.0313  0.2958
 9790TIP3    H250862   4.923   5.083   3.926 -2.2546  2.8167  1.2388
 9791TIP3   OH250863   6.552   3.680   0.931 -0.1014  0.2211 -0.2446
 9791TIP3    H150864   6.607   3.603   0.947 -0.4167  0.2148  0.8753
 9791TIP3    H250865   6.594   3.725   0.858  1.4151  0.2413  0.6179
 9792TIP3   OH250866   1.591   5.197   4.008 -0.5658 -0.1986 -0.5377
 9792TIP3    H150867   1.656   5.208   4.077 -2.2905  0.4478  1.0363
 9792TIP3    H250868   1.625   5.125   3.954  2.1553  1.1267 -0.6527
 9793TIP3   OH250869   1.351   3.384  13.343 -0.0781 -0.2547  0.7834
 9793TIP3    H150870   1.317   3.440  13.273 -1.1318 -1.2393  0.4831
 9793TIP3    H250871   1.444   3.374  13.322 -0.3732 -0.5343 -0.4849
 9794TIP3   OH250872   1.685   6.714  15.336  0.2790 -0.1004 -0.2342
 9794TIP3    H150873   1.694   6.640  15.395  1.4354 -0.8017 -1.2605
 9794TIP3    H250874   1.641   6.781  15.388 -1.2344 -1.6631  0.5630
 9795TIP3   OH250875   3.688   5.116   4.252 -0.3181  0.5113  0.3254
 9795TIP3    H150876   3.624   5.063   4.299 -0.3510  0.1590 -0.1119
 9795TIP3    H250877   3.769   5.107   4.302 -0.2475 -0.1922  0.0981
 9796TIP3   OH250878   1.610   1.414  14.986 -0.2994 -0.4069  0.3410
 9796TIP3    H150879   1.666   1.378  14.917 -0.3396  0.1354  0.0264
 9796TIP3    H250880   1.532   1.444  14.941 -0.4005 -0.2073  0.6467
 9797TIP3   OH250881   0.694   0.747   1.807 -0.3484  0.3911 -0.1775
 9797TIP3    H150882   0.624   0.804   1.839 -0.0257  1.0095 -0.5785
 9797TIP3    H250883   0.690   0.755   1.712 -0.7002 -0.7304 -0.2614
 9798TIP3   OH250884   1.991   3.509  16.534  0.6286 -0.4779 -0.3103
 9798TIP3    H150885   2.049   3.521  16.459  2.1171  1.1441  1.0742
 9798TIP3    H250886   1.916   3.565  16.516  0.5699 -0.7793 -1.0002
 9799TIP3   OH250887   1.855   3.781   5.160 -0.2082  0.7497 -0.1715
 9799TIP3    H150888   1.902   3.801   5.079  2.7895 -1.9693  0.8005
 9799TIP3    H250889   1.921   3.786   5.228 -1.8680 -0.8162  1.5966
 9800TIP3   OH250890   2.088   5.602  10.841 -0.2864  0.1840  0.5389
 9800TIP3    H150891   2.145   5.670  10.877  0.3514 -0.1270  0.1248
 9800TIP3    H250892   2.046   5.643  10.765  3.0614 -1.0607 -2.0973
 9801TIP3   OH250893   2.256   6.759   5.981  0.0208  0.6252 -0.6876
 9801TIP3    H150894   2.225   6.669   5.982  0.2659  0.5252  1.3085
 9801TIP3    H250895   2.193   6.807   6.035  1.5858  1.0179  0.8368
 9802TIP3   OH250896   4.306   1.461   1.211  0.0806 -0.4569 -0.2450
 9802TIP3    H150897   4.346   1.375   1.199 -1.2713 -1.2782  1.0365
 9802TIP3    H250898   4.273   1.484   1.125 -0.5749 -1.7497 -0.3487
 9803TIP3   OH250899   2.651   0.445   1.162  0.1187  0.2333 -0.5305
 9803TIP3    H150900   2.644   0.540   1.159  0.8659  0.2861 -0.5180
 9803TIP3    H250901   2.709   0.422   1.089  1.1870 -0.0930  0.4195
 9804TIP3   OH250902   5.327   6.815   5.128 -0.2633 -0.8911 -0.5120
 9804TIP3    H150903   5.289   6.732   5.155 -1.6280  0.0296  0.4523
 9804TIP3    H250904   5.418   6.811   5.158  0.0446 -2.5421 -1.6074
 9805TIP3   OH250905   1.428   4.409   4.619 -0.1520 -0.2949  0.0343
 9805TIP3    H150906   1.349   4.435   4.573 -0.3737 -2.5616 -0.9352
 9805TIP3    H250907   1.489   4.383   4.550  0.1705 -1.9522  0.8936
 9806TIP3   OH250908   1.032   4.196  15.408  0.2571  0.2992 -0.0103
 9806TIP3    H150909   1.105   4.144  15.442  0.7217  1.2240  0.4277
 9806TIP3    H250910   0.956   4.166  15.458  0.3719 -0.4928 -0.2954
 9807TIP3   OH250911   4.384   4.269   3.838  0.3711 -0.0688  0.0236
 9807TIP3    H150912   4.448   4.339   3.845  0.7223 -0.2302 -1.3768
 9807TIP3    H250913   4.407   4.223   3.758 -0.2957 -1.3502  0.5486
 9808TIP3   OH250914   3.196   6.360   2.157 -0.2040 -0.7322  0.1510
 9808TIP3    H150915   3.186   6.357   2.062  0.1894  0.4469  0.0599
 9808TIP3    H250916   3.175   6.271   2.186 -2.3961 -0.5752 -0.8316
 9809TIP3   OH250917   4.407   4.052   2.230 -0.5939  0.3856  0.0540
 9809TIP3    H150918   4.373   4.062   2.319  0.5190  2.2537  0.2992
 9809TIP3    H250919   4.484   3.997   2.240 -0.6706  0.3037  0.1968
 9810TIP3   OH250920   5.530   3.056  12.150  0.5214 -0.5272 -0.0814
 9810TIP3    H150921   5.491   3.029  12.233 -1.6316 -0.5714 -1.0495
 9810TIP3    H250922   5.473   3.016  12.083  1.8529 -0.0010 -1.5658
 9811TIP3   OH250923   5.130   0.625   4.036  0.4901 -0.6552  0.1948
 9811TIP3    H150924   5.140   0.687   4.108 -2.0733  0.5138 -0.3614
 9811TIP3    H250925   5.175   0.666   3.962  2.3035 -1.4061  0.8750
 9812TIP3   OH250926   4.130   0.029  14.762 -0.2156 -0.2003  0.7813
 9812TIP3    H150927   4.073   0.016  14.686  2.1188  1.8189 -1.3707
 9812TIP3    H250928   4.166  -0.058  14.780  1.0100 -0.2871 -1.9055
 9813TIP3   OH250929   5.782   1.400   6.256  0.4572  0.1849 -0.5312
 9813TIP3    H150930   5.755   1.308   6.245  0.8384 -0.0316  0.2831
 9813TIP3    H250931   5.874   1.394   6.282  0.1631  0.7629  0.6312
 9814TIP3   OH250932   3.202   0.735   5.141 -0.1221 -0.0250  0.6421
 9814TIP3    H150933   3.260   0.730   5.217 -0.2620 -0.7626  0.7037
 9814TIP3    H250934   3.197   0.645   5.108  0.3519  0.3842 -0.5539
 9815TIP3   OH250935   3.133   3.603   5.998  0.1335 -0.4069 -0.1762
 9815TIP3    H150936   3.075   3.548   5.947  0.9928 -0.8065 -0.7372
 9815TIP3    H250937   3.197   3.542   6.036  1.0576  0.1759 -0.7545
 9816TIP3   OH250938   1.866   0.633  12.683  0.2134  0.1591 -0.7072
 9816TIP3    H150939   1.780   0.591  12.675 -0.3294  0.7479  1.5446
 9816TIP3    H250940   1.853   0.700  12.750  2.6292 -0.2257  0.1741
 9817TIP3   OH250941   3.765   4.255   0.404 -0.3129  0.2922  0.0024
 9817TIP3    H150942   3.840   4.285   0.455  0.3325 -1.9361  0.4308
 9817TIP3    H250943   3.799   4.242   0.316 -0.3661 -0.0083  0.0239
 9818TIP3   OH250944   2.275   5.166   6.135  0.1301 -0.1361 -0.3056
 9818TIP3    H150945   2.356   5.187   6.180 -0.2810 -2.0737  1.4057
 9818TIP3    H250946   2.206   5.207   6.187 -0.0832  0.8814 -1.3474
 9819TIP3   OH250947   0.093   0.096  14.089  0.3716 -0.0964 -0.1553
 9819TIP3    H150948   0.026   0.127  14.150 -0.5758  0.2149 -1.3298
 9819TIP3    H250949   0.045   0.081  14.007  1.4524 -1.3767 -0.5693
 9820TIP3   OH250950   1.550   2.958  11.829  0.2291 -0.6550  0.1923
 9820TIP3    H150951   1.594   2.912  11.758 -1.4325  1.1509 -2.1004
 9820TIP3    H250952   1.464   2.915  11.835  1.1012 -2.1703  2.5759
 9821TIP3   OH250953   4.212   6.152   4.953  0.3476  0.0390 -0.4060
 9821TIP3    H150954   4.250   6.076   4.910 -0.0485 -0.8011  0.7281
 9821TIP3    H250955   4.154   6.190   4.887  0.3158 -0.8168 -0.8747
 9822TIP3   OH250956   0.166   2.230   1.703 -0.3094 -0.2402 -0.5878
 9822TIP3    H150957   0.235   2.295   1.690  0.8648 -1.0506  1.4355
 9822TIP3    H250958   0.198   2.152   1.659  0.7690 -1.0685  1.6321
 9823TIP3   OH250959   0.061   5.062   0.912  0.5628  0.4058  0.2651
 9823TIP3    H150960   0.130   5.097   0.968  1.7391 -0.8754 -0.3472
 9823TIP3    H250961  -0.015   5.052   0.970  0.6721  2.4622  0.7889
 9824TIP3   OH250962   6.712   6.546  13.942 -0.2526 -0.1466 -0.2467
 9824TIP3    H150963   6.696   6.472  13.883 -1.2121  0.2308 -0.4649
 9824TIP3    H250964   6.653   6.615  13.910 -0.9258 -0.0105  1.2681
 9825TIP3   OH250965   6.697   0.738  13.664 -0.3367 -0.0446  0.1834
 9825TIP3    H150966   6.607   0.721  13.636 -0.3647 -0.3566  0.4657
 9825TIP3    H250967   6.693   0.824  13.706 -0.3759  0.2357 -0.3835
 9826TIP3   OH250968   1.384   6.127   5.617 -0.0197  0.5198  0.5867
 9826TIP3    H150969   1.298   6.116   5.577  0.1963 -2.2205  0.7807
 9826TIP3    H250970   1.372   6.195   5.682 -2.2909 -0.4904  1.2681
 9827TIP3   OH250971   3.961   3.178   2.217 -0.4398 -0.0226  0.2365
 9827TIP3    H150972   3.930   3.212   2.133 -1.4705  0.3749  0.7654
 9827TIP3    H250973   4.055   3.195   2.216 -0.8420  2.4656  0.2770
 9828TIP3   OH250974   1.961   2.166   2.075 -0.1765  0.4671 -0.5416
 9828TIP3    H150975   1.964   2.073   2.100  0.8066  0.7283  0.3167
 9828TIP3    H250976   2.039   2.179   2.022 -0.2491  0.8472 -0.5527
 9829TIP3   OH250977   3.475   2.334  16.559  0.4423  0.2937  0.3583
 9829TIP3    H150978   3.568   2.333  16.583  1.3443 -0.2407 -2.8789
 9829TIP3    H250979   3.453   2.242  16.544  0.4155  0.7030 -2.3571
 9830TIP3   OH250980   2.889   5.605   2.577  0.2658  0.0616  0.0698
 9830TIP3    H150981   2.957   5.673   2.579  0.0324  0.3166 -0.8189
 9830TIP3    H250982   2.924   5.536   2.634 -0.6745  2.0237  3.1417
 9831TIP3   OH250983   5.966   4.211  11.590 -0.7886 -0.0579  0.5113
 9831TIP3    H150984   5.993   4.164  11.511 -0.9158 -1.2668  1.1720
 9831TIP3    H250985   5.919   4.146  11.641  0.1323  0.4410  2.0268
 9832TIP3   OH250986   3.928   1.957  15.315 -0.0630  0.2475 -0.2481
 9832TIP3    H150987   3.930   1.906  15.234 -0.6901 -0.0445 -0.0852
 9832TIP3    H250988   3.982   2.034  15.296  1.0788 -0.5791 -0.4210
 9833TIP3   OH250989   5.616   4.420  14.424  0.7899  0.0153 -0.0435
 9833TIP3    H150990   5.585   4.414  14.515  1.9012 -0.7704  0.2987
 9833TIP3    H250991   5.640   4.512  14.413 -1.7217  0.6528 -0.3476
 9834TIP3   OH250992   1.311   5.725   5.437  0.0158 -0.3894  1.0292
 9834TIP3    H150993   1.252   5.787   5.394 -0.4675 -1.7954 -0.3776
 9834TIP3    H250994   1.330   5.765   5.522 -0.5336  1.5232  0.2779
 9835TIP3   OH250995   0.541   5.602   3.052 -0.3488  1.3977 -0.1122
 9835TIP3    H150996   0.529   5.511   3.079  5.6246  0.5592  0.2782
 9835TIP3    H250997   0.454   5.641   3.060 -2.4870 -3.5043  2.5249
 9836TIP3   OH250998   5.921   2.890  11.399  0.0887  0.7578 -0.2693
 9836TIP3    H150999   5.928   2.968  11.454  0.7004  0.7366 -0.3136
 9836TIP3    H251000   6.011   2.870  11.374 -0.2255  1.0326 -1.6588
 9837TIP3   OH251001   1.960   0.348  17.103 -1.2736 -0.4197 -0.0741
 9837TIP3    H151002   1.873   0.308  17.111 -1.6612  0.5361  0.6874
 9837TIP3    H251003   1.966   0.406  17.179  0.6426 -1.6132  0.7300
 9838TIP3   OH251004   5.144   6.068  12.467 -0.1157 -0.7192 -0.1354
 9838TIP3    H151005   5.095   6.005  12.520 -0.9441 -0.9952 -1.2063
 9838TIP3    H251006   5.222   6.020  12.439  0.0447 -0.7519  0.3587
 9839TIP3   OH251007   2.195   3.168  12.500 -0.0781 -0.3381 -0.0286
 9839TIP3    H151008   2.210   3.262  12.495  0.2744 -0.4283 -0.6277
 9839TIP3    H251009   2.112   3.154  12.453 -0.1142 -0.3332  0.0332
 9840TIP3   OH251010   1.398   1.561  11.285 -0.3023 -0.2959  0.4486
 9840TIP3    H151011   1.430   1.542  11.197  1.2250  1.4390  0.6091
 9840TIP3    H251012   1.316   1.607  11.271 -0.6725 -1.0800 -0.0288
 9841TIP3   OH251013   6.799   0.732   2.386 -0.0998  0.0528  0.5186
 9841TIP3    H151014   6.888   0.750   2.355  0.3581 -0.0658  1.7481
 9841TIP3    H251015   6.777   0.647   2.347 -1.0117  1.6438 -2.6101
 9842TIP3   OH251016   2.124   3.328  13.744 -0.0624 -0.0862 -0.6130
 9842TIP3    H151017   2.137   3.419  13.772  1.0466 -0.5463  0.4178
 9842TIP3    H251018   2.056   3.294  13.802  0.5122 -0.3081 -0.0487
 9843TIP3   OH251019   1.313   0.584  13.229  0.2132 -0.1219  0.6138
 9843TIP3    H151020   1.363   0.551  13.154 -1.8649 -0.9950 -0.4081
 9843TIP3    H251021   1.299   0.677  13.210 -1.0696 -0.5401 -0.5205
 9844TIP3   OH251022   0.909   3.061   6.859  0.0343 -0.1930 -0.3301
 9844TIP3    H151023   0.885   3.116   6.933 -0.3235 -0.3870 -0.3025
 9844TIP3    H251024   0.932   3.123   6.790 -0.8745 -0.0020 -0.4661
 9845TIP3   OH251025   2.434   5.822  12.765 -0.1021  0.3175  0.2380
 9845TIP3    H151026   2.401   5.891  12.708  0.8057  1.1762  0.7290
 9845TIP3    H251027   2.524   5.807  12.736 -0.3101 -0.6915  0.1073
 9846TIP3   OH251028   3.761   5.436  12.883 -0.2286 -0.2968  0.0156
 9846TIP3    H151029   3.719   5.359  12.846  0.2164 -0.4512 -0.1625
 9846TIP3    H251030   3.762   5.500  12.811  2.5747 -1.3261 -0.9150
 9847TIP3   OH251031   3.916   4.462  13.419  0.3469 -0.6315  0.4041
 9847TIP3    H151032   3.839   4.504  13.457  0.3544 -0.1618 -0.0932
 9847TIP3    H251033   3.948   4.525  13.355  0.0491 -1.6224 -0.7309
 9848TIP3   OH251034   3.300   5.311  11.630  0.0013 -0.3018 -0.4991
 9848TIP3    H151035   3.382   5.354  11.652  0.5742 -2.0027  0.8765
 9848TIP3    H251036   3.261   5.365  11.562 -0.3200  3.5059  2.5884
 9849TIP3   OH251037   5.112   4.614   1.618 -0.4311 -0.2139 -0.0336
 9849TIP3    H151038   5.180   4.564   1.573 -1.4333 -0.9122 -0.7854
 9849TIP3    H251039   5.138   4.611   1.710  1.5691  1.1285 -0.5097
 9850TIP3   OH251040   4.934   0.737   5.956 -0.2365 -0.3943  0.1274
 9850TIP3    H151041   4.870   0.717   5.888 -1.0910 -0.1814  0.8553
 9850TIP3    H251042   4.986   0.658   5.965  0.4612 -0.1280 -1.3930
 9851TIP3   OH251043   6.283   2.914   0.616 -0.1574 -0.4814 -0.1533
 9851TIP3    H151044   6.284   2.994   0.668  0.3134 -0.6347  0.0733
 9851TIP3    H251045   6.246   2.940   0.532 -0.1076 -0.0514 -0.0401
 9852TIP3   OH251046   3.544   3.943  14.764  0.1419 -0.2054 -0.4334
 9852TIP3    H151047   3.531   4.038  14.754  1.5209  0.1346  0.7961
 9852TIP3    H251048   3.519   3.925  14.854  1.4298 -0.7284 -0.1676
 9853TIP3   OH251049   4.566   1.536   5.731 -0.1509 -0.0231  0.2146
 9853TIP3    H151050   4.657   1.552   5.706  0.4635  0.2063  2.4571
 9853TIP3    H251051   4.559   1.441   5.738 -0.0975 -0.0429  0.0096
 9854TIP3   OH251052   1.637   4.957   3.501 -0.1417  0.0965  0.2976
 9854TIP3    H151053   1.590   4.988   3.423 -1.2268 -0.6071  0.6668
 9854TIP3    H251054   1.727   4.987   3.488 -0.6851  1.4410 -0.4217
 9855TIP3   OH251055   4.908   0.370  16.008 -0.0043 -0.2940 -0.0481
 9855TIP3    H151056   4.930   0.449  15.960  1.2471 -0.7601 -0.2616
 9855TIP3    H251057   4.990   0.344  16.051 -1.2210  0.4507  2.8421
 9856TIP3   OH251058   5.336   5.568   3.818 -0.1668  0.0436  0.5079
 9856TIP3    H151059   5.290   5.609   3.890  1.6576 -1.0182  2.3386
 9856TIP3    H251060   5.429   5.579   3.839  0.3915 -2.7849 -0.1766
 9857TIP3   OH251061   3.206   1.144   0.957 -0.2789 -0.6563  0.2382
 9857TIP3    H151062   3.297   1.120   0.977 -0.7131 -1.4991  1.1931
 9857TIP3    H251063   3.176   1.075   0.898 -0.8617 -1.3530  1.3340
 9858TIP3   OH251064   5.980   2.844   2.119  0.0905  0.6432  0.6244
 9858TIP3    H151065   5.908   2.801   2.165 -0.8154  2.3662  0.8391
 9858TIP3    H251066   6.028   2.890   2.188  1.0351  0.0064  0.3908
 9859TIP3   OH251067   0.290   6.606   1.399 -0.0161  0.8832 -0.0311
 9859TIP3    H151068   0.210   6.577   1.443 -0.4404 -0.3702 -1.5748
 9859TIP3    H251069   0.359   6.551   1.436  0.0291  1.4981  0.8083
 9860TIP3   OH251070   2.151   0.432   5.161  0.3684  0.5007 -0.3096
 9860TIP3    H151071   2.231   0.485   5.156 -0.1833  1.6261  1.9609
 9860TIP3    H251072   2.093   0.471   5.095  0.9934  0.9492 -0.5993
 9861TIP3   OH251073   6.265   6.237  14.567 -0.0481  0.6400 -0.4133
 9861TIP3    H151074   6.247   6.306  14.631  0.4139 -0.8500  1.3849
 9861TIP3    H251075   6.186   6.181  14.569 -0.1712  0.7626 -1.4037
 9862TIP3   OH251076   1.874   3.643  17.176  0.6464 -0.0692 -0.0745
 9862TIP3    H151077   1.890   3.674  17.265 -1.5944  2.9759 -0.6187
 9862TIP3    H251078   1.891   3.720  17.121 -2.5495 -0.5047 -1.7808
 9863TIP3   OH251079   1.340   1.341  15.480 -0.2005  0.3864  0.1147
 9863TIP3    H151080   1.339   1.434  15.458  0.6515  0.3347 -0.1721
 9863TIP3    H251081   1.409   1.332  15.545 -0.8858  0.0933  0.8094
 9864TIP3   OH251082   5.406   5.112   6.000  0.2257  0.2462  0.2304
 9864TIP3    H151083   5.389   5.077   5.913  0.4357  0.4623  0.1003
 9864TIP3    H251084   5.492   5.078   6.024  0.3558  0.5289  0.1734
 9865TIP3   OH251085   1.144   6.775   5.804  0.0587  0.0792 -0.4058
 9865TIP3    H151086   1.135   6.729   5.721 -1.1756  0.6633 -0.6043
 9865TIP3    H251087   1.178   6.708   5.864 -0.7830 -0.8452 -0.9310
 9866TIP3   OH251088   1.769   3.585  13.215  0.0514  0.0049  0.1617
 9866TIP3    H151089   1.825   3.663  13.216  1.2155 -0.8308  2.0852
 9866TIP3    H251090   1.685   3.616  13.249 -0.1234  0.8516 -0.9928
 9867TIP3   OH251091   1.187   0.091   3.926 -0.7595 -0.3643 -0.7491
 9867TIP3    H151092   1.122   0.064   3.991 -0.1723 -1.2178 -0.4903
 9867TIP3    H251093   1.247   0.148   3.974  0.1549 -1.6722 -0.3069
 9868TIP3   OH251094   6.249   0.700   2.952  0.2603 -0.4458 -0.0705
 9868TIP3    H151095   6.284   0.788   2.962  0.7641 -0.1476 -3.8795
 9868TIP3    H251096   6.164   0.713   2.909 -0.7810 -1.7156  1.5161
 9869TIP3   OH251097   3.050   5.840   0.152 -0.2203  0.0470 -0.8845
 9869TIP3    H151098   3.069   5.782   0.225  2.2531 -0.6194 -1.9996
 9869TIP3    H251099   2.971   5.803   0.111 -0.4189 -0.7420  0.2065
 9870TIP3   OH251100   6.085   1.328   3.548  0.7332  0.0572 -0.0360
 9870TIP3    H151101   6.092   1.317   3.643  0.9187  1.0151  0.0586
 9870TIP3    H251102   6.167   1.291   3.513 -0.1001 -1.9454  0.0299
 9871TIP3   OH251103   4.692   0.138   2.746 -0.4614  0.2944 -0.0173
 9871TIP3    H151104   4.705   0.174   2.834  0.0846 -0.0333  0.0416
 9871TIP3    H251105   4.597   0.133   2.735 -0.5583  2.0170 -0.1294
 9872TIP3   OH251106   1.440   2.369   3.335  0.1043 -0.1534 -0.2151
 9872TIP3    H151107   1.444   2.313   3.258  1.1195 -0.6344  0.1798
 9872TIP3    H251108   1.407   2.453   3.302 -1.9265 -1.1094 -0.7189
 9873TIP3   OH251109   3.882   1.509  16.102  0.3631 -0.6676  0.0103
 9873TIP3    H151110   3.965   1.524  16.148 -0.0471 -1.5312  1.0373
 9873TIP3    H251111   3.837   1.594  16.106  0.7306 -0.4892  0.3829
 9874TIP3   OH251112   0.801   3.203  12.892  0.7826 -0.2373  0.0092
 9874TIP3    H151113   0.871   3.140  12.871  0.4035 -0.2956 -1.1038
 9874TIP3    H251114   0.843   3.289  12.884  0.4022 -0.2033 -2.0681
 9875TIP3   OH251115   6.675   3.516   1.749 -0.0510  0.1684 -0.2681
 9875TIP3    H151116   6.761   3.484   1.776  0.0882 -0.5429 -1.5211
 9875TIP3    H251117   6.694   3.585   1.685 -0.4192 -0.0947 -0.6637
 9876TIP3   OH251118   0.142   4.592  12.787 -0.0860  0.0251 -0.3608
 9876TIP3    H151119   0.164   4.595  12.694 -1.5887 -0.9870 -0.7579
 9876TIP3    H251120   0.134   4.684  12.813  6.4111  0.6728  0.2942
 9877TIP3   OH251121   5.999   4.206  16.930 -1.0918  0.3804  0.0117
 9877TIP3    H151122   6.072   4.253  16.972 -1.8382  1.5526  0.0166
 9877TIP3    H251123   5.966   4.147  16.997 -0.9896  0.8036  0.4348
 9878TIP3   OH251124   5.087   0.487   4.656 -0.2262 -0.0612  0.1606
 9878TIP3    H151125   5.131   0.481   4.571  1.7706 -2.7834  1.3141
 9878TIP3    H251126   5.114   0.572   4.692  1.3452 -0.2247 -0.6283
 9879TIP3   OH251127   6.218   6.500   1.027 -0.7937 -0.0799 -0.0247
 9879TIP3    H151128   6.164   6.485   0.949  0.9237  0.8238 -1.4070
 9879TIP3    H251129   6.240   6.593   1.024 -0.5369 -0.0783  1.4429
 9880TIP3   OH251130   0.774   4.629   4.270  0.4742 -0.6737  0.1054
 9880TIP3    H151131   0.793   4.561   4.335 -1.6629 -1.7451 -0.3134
 9880TIP3    H251132   0.683   4.653   4.287  0.8717  1.3489 -0.4526
 9881TIP3   OH251133   6.649   1.161   2.683 -0.2705  0.4013 -0.5994
 9881TIP3    H151134   6.740   1.177   2.710 -0.1690 -0.3417 -0.4847
 9881TIP3    H251135   6.654   1.082   2.630 -0.8387  0.4283 -0.6881
 9882TIP3   OH251136   6.770   5.617  15.004  0.1207 -0.4331 -0.0335
 9882TIP3    H151137   6.838   5.675  15.040 -0.1381 -1.4556  2.1502
 9882TIP3    H251138   6.764   5.643  14.912  1.6485  1.4326  0.3457
 9883TIP3   OH251139   4.765   2.119  16.461  0.0188 -0.1583 -0.2692
 9883TIP3    H151140   4.828   2.101  16.392  3.2277  1.9868  1.9654
 9883TIP3    H251141   4.749   2.213  16.456 -2.0252 -0.4583  0.0520
 9884TIP3   OH251142   4.286   4.142   4.742 -0.7282 -0.1081  0.4163
 9884TIP3    H151143   4.378   4.117   4.727 -1.0884 -0.0704 -1.9086
 9884TIP3    H251144   4.250   4.156   4.655 -3.0145 -0.2874  1.3068
 9885TIP3   OH251145   5.304   6.393   4.415  0.3430 -0.1395  0.6053
 9885TIP3    H151146   5.386   6.423   4.374  0.0012 -1.0079 -0.7370
 9885TIP3    H251147   5.240   6.461   4.394 -0.1256 -1.1555 -1.3649
 9886TIP3   OH251148   2.504   5.189  11.383 -0.3491 -0.2967  0.2591
 9886TIP3    H151149   2.455   5.125  11.435  0.0439 -2.4109 -1.9154
 9886TIP3    H251150   2.595   5.175  11.407 -0.1051 -1.7268 -1.4504
 9887TIP3   OH251151   2.123   0.910  14.062  0.2908  0.3844  0.5508
 9887TIP3    H151152   2.033   0.900  14.030  0.3409  0.0025  0.5174
 9887TIP3    H251153   2.177   0.898  13.984  0.3711  0.5130  0.5873
 9888TIP3   OH251154   4.485   3.075   0.723  0.1771 -0.2220 -0.2202
 9888TIP3    H151155   4.498   2.981   0.717  0.7236 -0.1700  0.0436
 9888TIP3    H251156   4.533   3.101   0.802 -0.8802  0.1210  0.3219
 9889TIP3   OH251157   0.095   6.652   3.122 -0.1606 -0.4200 -0.3182
 9889TIP3    H151158   0.063   6.577   3.072 -1.1171 -2.8857  3.8317
 9889TIP3    H251159   0.017   6.706   3.136 -0.2852 -0.6990  0.0864
 9890TIP3   OH251160   5.196   1.231  15.131  0.2456 -0.3170 -0.1964
 9890TIP3    H151161   5.138   1.288  15.080 -1.6284 -0.3166  1.8292
 9890TIP3    H251162   5.234   1.289  15.197  1.7115 -0.5497 -0.8333
 9891TIP3   OH251163   2.805   1.685  10.715 -0.0805  0.0638 -0.1839
 9891TIP3    H151164   2.791   1.780  10.719 -0.2581 -0.0349  2.3681
 9891TIP3    H251165   2.717   1.648  10.726  0.1216 -0.4148 -0.1926
 9892TIP3   OH251166   2.972   3.199  14.941  0.7141 -0.1254  0.0630
 9892TIP3    H151167   3.020   3.244  15.010  2.5541 -0.3977 -0.9838
 9892TIP3    H251168   2.952   3.112  14.977 -1.3292  0.9080  1.4594
 9893TIP3   OH251169   0.066   4.068  14.388  0.1256  0.1078 -0.1466
 9893TIP3    H151170   0.115   4.044  14.467 -2.9825  0.1551  1.8861
 9893TIP3    H251171  -0.005   4.003  14.384 -1.0367  1.4378 -1.6416
 9894TIP3   OH251172   1.859   5.733   5.838  0.1169  0.1424  0.2919
 9894TIP3    H151173   1.927   5.773   5.784 -0.8338 -0.5595 -1.4849
 9894TIP3    H251174   1.779   5.740   5.785 -1.4446  1.8822  2.7520
 9895TIP3   OH251175   5.683   4.613  13.526  0.1619 -0.3214  0.3577
 9895TIP3    H151176   5.599   4.624  13.482 -0.3472  0.3333  1.4569
 9895TIP3    H251177   5.680   4.525  13.563 -0.3344 -0.0506  0.9773
 9896TIP3   OH251178   0.072   6.716   4.771  0.1935 -0.4129  0.1861
 9896TIP3    H151179  -0.014   6.717   4.728 -0.4568  0.4838  1.4773
 9896TIP3    H251180   0.090   6.808   4.790  0.7776 -0.7399  1.2258
 9897TIP3   OH251181   4.790   0.617   1.556  0.3302 -0.0583  0.3158
 9897TIP3    H151182   4.825   0.599   1.468 -0.5732  0.1655 -0.0999
 9897TIP3    H251183   4.816   0.542   1.609 -0.7745 -1.1451 -0.6312
 9898TIP3   OH251184   3.204   3.004  13.491  0.3038 -0.1009 -0.5439
 9898TIP3    H151185   3.201   2.933  13.427  0.3495  0.5501 -1.2674
 9898TIP3    H251186   3.143   2.976  13.560  0.7631 -1.1192 -0.5279
 9899TIP3   OH251187   6.332   3.096  16.697 -0.2057 -0.3179 -0.2426
 9899TIP3    H151188   6.412   3.148  16.687 -0.3951  0.5425  2.3485
 9899TIP3    H251189   6.363   3.005  16.698  0.9111  0.0466  1.7300
 9900TIP3   OH251190   5.907   6.191   4.351 -0.6167 -0.4027  0.2515
 9900TIP3    H151191   5.884   6.221   4.263  2.7569  0.3003 -0.4654
 9900TIP3    H251192   5.863   6.253   4.410  0.2161  1.4578 -1.0518
 9901TIP3   OH251193   4.251   6.016  12.334  0.0279  0.0265  0.5756
 9901TIP3    H151194   4.203   5.978  12.407 -0.0314 -0.7421  0.1389
 9901TIP3    H251195   4.313   5.948  12.307  1.9221  1.2769  1.6172
 9902TIP3   OH251196   0.223   2.880   0.051 -0.3953  0.3165 -0.3343
 9902TIP3    H151197   0.175   2.852  -0.027  0.4309 -1.5130 -0.2215
 9902TIP3    H251198   0.166   2.857   0.124 -0.9295  1.5319 -0.3498
 9903TIP3   OH251199   4.910   3.548  13.144  0.3862  0.1658  0.0103
 9903TIP3    H151200   4.817   3.547  13.169  0.5322 -1.7898  0.5964
 9903TIP3    H251201   4.910   3.517  13.053  0.3664  1.4522 -0.4378
 9904TIP3   OH251202   0.135   6.130  11.766 -0.5802  0.3924  0.0439
 9904TIP3    H151203   0.074   6.189  11.723 -0.0097  1.0326  0.1045
 9904TIP3    H251204   0.187   6.093  11.694 -1.3581 -0.5267 -0.0526
 9905TIP3   OH251205   4.149   1.424  12.105  0.2617 -0.2639  0.0240
 9905TIP3    H151206   4.060   1.451  12.129  0.3749 -0.6706  0.9426
 9905TIP3    H251207   4.137   1.357  12.038 -0.0507  1.2949 -1.4809
 9906TIP3   OH251208   0.988   2.009  12.648 -0.4929  0.4429 -0.6404
 9906TIP3    H151209   1.062   2.022  12.589  0.9903  0.4257  1.1572
 9906TIP3    H251210   0.979   1.914  12.655  1.2795  0.4173  1.5009
 9907TIP3   OH251211   1.806   3.460  16.004 -0.3583 -0.5784  0.1922
 9907TIP3    H151212   1.812   3.544  15.957  0.7465 -0.7800 -0.0496
 9907TIP3    H251213   1.806   3.394  15.934  0.7126 -0.8555  0.4443
 9908TIP3   OH251214   1.859   4.064  15.769  0.1183 -0.6746  0.7803
 9908TIP3    H151215   1.793   4.125  15.735  0.7388  0.2566  1.2042
 9908TIP3    H251216   1.861   3.993  15.705 -0.8350 -0.3993  0.4282
 9909TIP3   OH251217   6.301   0.153   0.823  0.0694 -0.4217 -0.0110
 9909TIP3    H151218   6.291   0.059   0.811 -0.9801 -0.3218  0.0783
 9909TIP3    H251219   6.396   0.166   0.828  0.1806 -1.7597  2.3073
 9910TIP3   OH251220   4.131   5.570  14.377  0.0564  0.7713 -0.0383
 9910TIP3    H151221   4.097   5.627  14.446 -1.3438  1.0968 -0.9800
 9910TIP3    H251222   4.218   5.546  14.407 -1.3434 -0.9164  2.9531
 9911TIP3   OH251223   1.829   0.237  15.558 -0.3967  0.3652 -0.6606
 9911TIP3    H151224   1.822   0.311  15.618 -0.0043 -1.5460  1.8022
 9911TIP3    H251225   1.757   0.178  15.584 -1.4948  0.4116 -3.3944
 9912TIP3   OH251226   6.504   6.710   0.623 -0.0391  0.3362 -0.3555
 9912TIP3    H151227   6.440   6.779   0.605  0.0649  0.4700 -0.2155
 9912TIP3    H251228   6.488   6.644   0.555 -0.7550  0.0674  0.0657
 9913TIP3   OH251229   2.462   5.054   5.696 -0.1485 -0.6487 -0.4614
 9913TIP3    H151230   2.452   5.045   5.601  0.1914 -0.9444 -0.4686
 9913TIP3    H251231   2.514   4.978   5.723 -0.4550 -0.7004 -0.0019
 9914TIP3   OH251232   0.001   5.782  12.495  0.1930 -0.7199 -0.0399
 9914TIP3    H151233   0.005   5.757  12.402 -1.1164  0.4883 -0.4467
 9914TIP3    H251234   0.090   5.807  12.517  0.4930 -0.9134 -1.0225
 9915TIP3   OH251235   2.497   4.502   3.036  0.7839  0.2517  0.2717
 9915TIP3    H151236   2.538   4.531   2.955  2.1556 -1.2481  0.3996
 9915TIP3    H251237   2.447   4.425   3.012 -1.0925  1.4326  0.3345
 9916TIP3   OH251238   2.540   4.447  11.618 -0.1632  0.2286 -0.0620
 9916TIP3    H151239   2.579   4.438  11.531 -2.2106  0.6310 -1.0324
 9916TIP3    H251240   2.568   4.369  11.665  0.9564  0.0103 -1.0557
 9917TIP3   OH251241   6.513   2.925  13.755  0.3092 -0.3622 -0.4939
 9917TIP3    H151242   6.448   2.855  13.763 -0.2977  0.2266 -0.2045
 9917TIP3    H251243   6.462   3.006  13.759  1.0289  0.1016 -0.5854
 9918TIP3   OH251244   5.454   4.999  15.191  0.3959  0.0874 -0.3351
 9918TIP3    H151245   5.486   4.994  15.281  4.1593  1.1436 -1.5194
 9918TIP3    H251246   5.373   5.050  15.197  0.2003 -0.4774  2.5255
 9919TIP3   OH251247   1.546   3.792  15.187  0.0990 -0.1825  0.1121
 9919TIP3    H151248   1.464   3.745  15.205 -0.2328  0.2306 -0.2866
 9919TIP3    H251249   1.581   3.813  15.274 -0.6711  0.4008  0.2899
 9920TIP3   OH251250   4.528   5.302   0.421 -0.5965 -0.0305 -0.0221
 9920TIP3    H151251   4.602   5.242   0.434 -1.0021 -0.3268  0.9853
 9920TIP3    H251252   4.549   5.378   0.475 -2.5108 -1.4571  2.9021
 9921TIP3   OH251253   6.456   2.794  11.960 -0.4108  0.2030  0.8373
 9921TIP3    H151254   6.408   2.799  11.877 -0.3200  0.5914  0.8081
 9921TIP3    H251255   6.388   2.777  12.026 -0.4027 -0.7954  0.6026
 9922TIP3   OH251256   6.114   4.574  14.954  0.0673 -0.2700 -0.0030
 9922TIP3    H151257   6.106   4.662  14.990 -0.5840 -0.7840  1.1305
 9922TIP3    H251258   6.074   4.580  14.867 -0.3341  0.4542  0.2265
 9923TIP3   OH251259   6.519   5.488   6.150  0.2553 -0.7050 -0.2563
 9923TIP3    H151260   6.558   5.422   6.208  1.4547 -0.7267 -1.0708
 9923TIP3    H251261   6.581   5.560   6.150  0.8066 -1.1561 -2.3680
 9924TIP3   OH251262   4.405   2.773   4.794  0.1130 -0.3890 -1.0663
 9924TIP3    H151263   4.384   2.839   4.728  0.2109  2.1034  1.2953
 9924TIP3    H251264   4.325   2.767   4.847  1.3065  0.4895  0.8844
 9925TIP3   OH251265   3.647   1.887  14.913 -0.4706 -0.2285 -0.2822
 9925TIP3    H151266   3.678   1.940  14.839 -0.5081 -2.3185 -1.8363
 9925TIP3    H251267   3.577   1.939  14.951 -2.1184 -0.1755 -3.2238
 9926TIP3   OH251268   2.800   5.907   6.139  0.6594  0.2179 -0.1945
 9926TIP3    H151269   2.811   5.985   6.192  0.1123  1.9914 -2.5911
 9926TIP3    H251270   2.741   5.851   6.189  0.4934  1.6358  1.2341
 9927TIP3   OH251271   2.802   0.370  13.952 -0.1380 -0.2697  0.4192
 9927TIP3    H151272   2.719   0.402  13.987 -1.3294 -0.7744 -1.8768
 9927TIP3    H251273   2.822   0.428  13.879  0.7266 -1.1065 -0.0268
 9928TIP3   OH251274   5.475   4.931   1.225 -0.5794  0.0823  0.0985
 9928TIP3    H151275   5.551   4.954   1.172  1.9592 -2.2009  2.5500
 9928TIP3    H251276   5.430   4.862   1.175  1.5720 -1.7836  0.6599
 9929TIP3   OH251277   5.193   1.857   0.351  0.0866 -0.0493 -0.2943
 9929TIP3    H151278   5.124   1.870   0.415  0.5288 -0.8015  0.3484
 9929TIP3    H251279   5.273   1.888   0.394  0.5230 -1.3276 -0.1509
 9930TIP3   OH251280   2.522   2.572  12.845 -0.4710 -0.2301  0.3105
 9930TIP3    H151281   2.430   2.591  12.830 -0.4728 -1.3618 -1.2185
 9930TIP3    H251282   2.527   2.476  12.846  0.8571 -0.1972 -0.8377
 9931TIP3   OH251283   4.704   4.753  11.243 -0.2254 -0.2802  0.0870
 9931TIP3    H151284   4.683   4.790  11.329  3.0904  1.9926  0.0166
 9931TIP3    H251285   4.632   4.779  11.187 -0.9837  0.7850  1.5175
 9932TIP3   OH251286   4.255   1.854   6.321 -0.0056 -0.2400  0.2072
 9932TIP3    H151287   4.267   1.783   6.259 -1.3283  0.1192 -0.4837
 9932TIP3    H251288   4.342   1.869   6.358  0.3456 -2.0031  0.1478
 9933TIP3   OH251289   2.591   0.568   1.565  0.6380 -0.4561  0.0859
 9933TIP3    H151290   2.622   0.650   1.528 -0.3334 -0.7463 -1.4472
 9933TIP3    H251291   2.609   0.575   1.659 -1.2619  2.3355  0.2967
 9934TIP3   OH251292   6.422   4.011   4.404  0.0438  0.3338  0.1407
 9934TIP3    H151293   6.433   3.956   4.326  0.2956  0.5616  0.0143
 9934TIP3    H251294   6.332   4.043   4.399 -1.3990 -3.1478  2.2090
 9935TIP3   OH251295   5.333   4.314   0.238  0.0986  0.6566 -0.4388
 9935TIP3    H151296   5.282   4.304   0.318  0.8145  0.8996  0.0585
 9935TIP3    H251297   5.305   4.242   0.181  0.1194  0.0471  0.3197
 9936TIP3   OH251298   6.138   0.508   6.265 -0.3590 -0.2278  0.0042
 9936TIP3    H151299   6.062   0.561   6.243  0.2731  0.3389 -0.8984
 9936TIP3    H251300   6.203   0.572   6.297 -0.3100 -0.7163  0.8825
 9937TIP3   OH251301   0.679   2.409   4.787 -0.6298  0.4019  0.3381
 9937TIP3    H151302   0.637   2.466   4.852 -0.0190  1.1289  0.0986
 9937TIP3    H251303   0.758   2.377   4.830 -2.2067 -2.2631  1.3895
 9938TIP3   OH251304   2.310   4.819   0.903  0.4551 -0.1268 -0.4431
 9938TIP3    H151305   2.334   4.904   0.941  1.7756  0.1329 -1.8221
 9938TIP3    H251306   2.274   4.841   0.817 -1.4881 -0.7980  0.1653
 9939TIP3   OH251307   6.100   2.862  16.447 -0.3067 -0.2686 -0.0533
 9939TIP3    H151308   6.034   2.924  16.418 -2.3398 -1.5527  1.6538
 9939TIP3    H251309   6.062   2.776  16.430  1.0589 -1.0380  0.6682
 9940TIP3   OH251310   5.651   1.636  14.005 -0.2602 -0.1007 -0.4030
 9940TIP3    H151311   5.591   1.705  13.978 -0.7700  0.0219  0.9892
 9940TIP3    H251312   5.664   1.583  13.927 -0.8448  0.8488 -1.1560
 9941TIP3   OH251313   5.860   5.396  13.580 -0.3909 -0.2630  0.4222
 9941TIP3    H151314   5.847   5.461  13.511 -0.2028  0.0457  0.6738
 9941TIP3    H251315   5.955   5.386  13.586 -0.4595 -1.3445 -0.3338
 9942TIP3   OH251316   5.987   6.714   1.270 -0.0699 -0.0894  0.6145
 9942TIP3    H151317   5.954   6.790   1.318  0.0054  0.5625 -0.3495
 9942TIP3    H251318   5.912   6.681   1.221 -0.2683 -1.0554  1.5553
 9943TIP3   OH251319   0.350   3.930  16.461 -0.0065  0.1137  0.3905
 9943TIP3    H151320   0.342   3.878  16.380 -0.2239  0.4561  0.1942
 9943TIP3    H251321   0.427   3.894  16.505  0.1828  0.0018 -0.0256
 9944TIP3   OH251322   5.485   6.613  10.244 -0.8000 -0.0882 -0.3689
 9944TIP3    H151323   5.511   6.531  10.285  0.7803  0.4254 -0.3133
 9944TIP3    H251324   5.542   6.679  10.284 -0.6500  0.7318 -1.8854
 9945TIP3   OH251325   4.247   5.608   2.414 -0.1921  0.2867  0.4342
 9945TIP3    H151326   4.253   5.631   2.321  0.5177 -0.5080  0.2762
 9945TIP3    H251327   4.246   5.692   2.459 -0.8137  0.6850 -0.3034
 9946TIP3   OH251328   1.607   3.804  12.034  0.1889 -0.1695  0.1687
 9946TIP3    H151329   1.513   3.818  12.047 -0.2400 -2.6701 -0.1068
 9946TIP3    H251330   1.623   3.714  12.060  2.3412 -0.1080 -0.7715
 9947TIP3   OH251331   0.950   0.818   1.150  0.1898 -0.0255 -0.3669
 9947TIP3    H151332   1.024   0.827   1.089  0.9094 -1.3535  0.3093
 9947TIP3    H251333   0.904   0.902   1.143  1.7202  0.7966 -0.8430
 9948TIP3   OH251334   2.327   2.044   5.985  0.4263 -0.6309 -1.1780
 9948TIP3    H151335   2.409   2.052   6.033 -0.0547  0.8523 -0.5741
 9948TIP3    H251336   2.304   2.135   5.963 -1.6129 -0.9370 -0.3817
 9949TIP3   OH251337   1.691   4.761   5.337 -0.3024 -0.0407  0.0218
 9949TIP3    H151338   1.645   4.829   5.287 -1.1597  0.4784  1.4787
 9949TIP3    H251339   1.688   4.684   5.280  2.1354  1.5324 -2.3732
 9950TIP3   OH251340   5.340   6.044  14.062  0.8813  0.0137 -0.4112
 9950TIP3    H151341   5.401   6.117  14.069  0.6793  0.2017 -0.6293
 9950TIP3    H251342   5.395   5.968  14.042  1.1959 -0.0666  0.7275
 9951TIP3   OH251343   3.345   2.216   4.162 -0.7610  0.5393 -0.4913
 9951TIP3    H151344   3.290   2.158   4.215 -1.0966  0.2609 -1.1339
 9951TIP3    H251345   3.431   2.175   4.163 -0.3020  1.5210  1.3684
 9952TIP3   OH251346   5.060   3.849  11.922  0.2589  0.2538 -0.7374
 9952TIP3    H151347   5.001   3.902  11.976 -0.1345  0.1463 -1.0576
 9952TIP3    H251348   5.118   3.912  11.880  0.5185  0.3452 -0.2525
 9953TIP3   OH251349   5.805   1.642  12.263  0.1150  0.9464  0.4813
 9953TIP3    H151350   5.783   1.638  12.170  0.8257  1.4858  0.2839
 9953TIP3    H251351   5.888   1.593  12.270 -0.2383  0.4019  0.9299
 9954TIP3   OH251352   1.207   2.519   4.178 -0.2810 -0.5799  0.0565
 9954TIP3    H151353   1.201   2.539   4.271 -0.8487  1.7100 -0.4382
 9954TIP3    H251354   1.293   2.479   4.167 -0.5679 -1.6796  1.6860
 9955TIP3   OH251355   2.059   6.074  13.287 -0.0508  0.6983  0.5977
 9955TIP3    H151356   2.089   6.054  13.375 -1.5984  2.1044  1.4673
 9955TIP3    H251357   1.966   6.050  13.287  0.5341 -1.8726 -1.4987
 9956TIP3   OH251358   0.868   0.344   0.298  0.2517 -0.2917 -0.0430
 9956TIP3    H151359   0.813   0.361   0.221  0.6794 -0.3387 -0.3607
 9956TIP3    H251360   0.821   0.386   0.370 -0.3720 -0.6167 -0.2528
 9957TIP3   OH251361   3.022   0.446   4.006 -0.4392 -0.1072 -0.1657
 9957TIP3    H151362   3.092   0.502   4.038 -0.9212  0.4689 -0.1058
 9957TIP3    H251363   3.014   0.467   3.913 -0.2918 -0.4344 -0.2550
 9958TIP3   OH251364   3.018   5.228   6.075 -0.2575 -0.3327 -0.1220
 9958TIP3    H151365   3.010   5.243   6.170 -1.4220  0.8129 -0.3889
 9958TIP3    H251366   3.111   5.208   6.062  0.4214  1.9924  0.9320
 9959TIP3   OH251367   5.857   6.338   0.743  0.4886  0.0275 -0.0619
 9959TIP3    H151368   5.906   6.396   0.685 -0.4626  2.0238  1.0753
 9959TIP3    H251369   5.891   6.357   0.830 -1.8243  0.9764  0.6696
 9960TIP3   OH251370   4.523   2.055  12.289 -0.2907 -0.3447  0.5221
 9960TIP3    H151371   4.428   2.063  12.275 -0.1642 -1.1592 -0.8566
 9960TIP3    H251372   4.532   1.988  12.357 -0.6896 -0.6794  0.2476
 9961TIP3   OH251373   0.128   5.104  16.636  0.5590 -0.6759 -0.5345
 9961TIP3    H151374   0.215   5.074  16.610 -0.2858 -1.3483 -2.7463
 9961TIP3    H251375   0.105   5.170  16.570 -0.4264 -0.1859  0.2853
 9962TIP3   OH251376   5.063   6.775  16.348 -0.6099  0.6651  0.2023
 9962TIP3    H151377   5.075   6.686  16.382  2.9752  0.8706 -0.3779
 9962TIP3    H251378   4.974   6.798  16.375 -1.1756 -2.6068  1.4551
 9963TIP3   OH251379   1.655   5.239  11.890  0.0516  0.0592  0.1855
 9963TIP3    H151380   1.626   5.286  11.968 -0.1892 -1.0139  0.7594
 9963TIP3    H251381   1.575   5.228  11.838  0.2044  0.7383 -0.1979
 9964TIP3   OH251382   2.907   4.999   0.161 -0.1781 -0.0203 -0.0096
 9964TIP3    H151383   2.845   5.054   0.113  0.4972  1.0814  0.3596
 9964TIP3    H251384   2.981   5.057   0.180  0.2768 -0.8859  0.9290
 9965TIP3   OH251385   5.321   3.290  16.398  0.0734 -0.5513  0.0059
 9965TIP3    H151386   5.302   3.196  16.389  0.3543 -0.6543  0.5071
 9965TIP3    H251387   5.266   3.319  16.470  1.3781 -0.7314  1.0970
 9966TIP3   OH251388   4.394   4.317   2.882  0.1613  0.0487 -0.2447
 9966TIP3    H151389   4.481   4.296   2.916  0.3607  1.4713  0.1556
 9966TIP3    H251390   4.411   4.378   2.809 -0.5247  1.0673  0.4262
 9967TIP3   OH251391   4.149   5.364   5.896  0.4780 -0.0314 -0.2533
 9967TIP3    H151392   4.221   5.419   5.868  0.2186 -0.0476 -0.9433
 9967TIP3    H251393   4.152   5.367   5.992 -2.2518  4.7571 -0.1942
 9968TIP3   OH251394   5.924   5.108  15.847  0.2370 -0.0103 -0.1969
 9968TIP3    H151395   5.917   5.189  15.796 -0.3706 -0.7063 -1.2241
 9968TIP3    H251396   5.897   5.039  15.787  0.7558 -0.9895  0.6743
 9969TIP3   OH251397   1.145   0.983  15.015  0.7125 -0.8294  0.2306
 9969TIP3    H151398   1.170   0.961  15.105  2.3789 -0.3870 -0.1079
 9969TIP3    H251399   1.222   1.028  14.979  0.5882 -2.2269 -1.8575
 9970TIP3   OH251400   5.870   1.187  14.806  0.2146 -0.0705  0.5162
 9970TIP3    H151401   5.826   1.269  14.827 -2.2760 -1.4826  0.9472
 9970TIP3    H251402   5.942   1.182  14.870  0.3870  1.7634  0.4765
 9971TIP3   OH251403   3.474   1.248   1.213  0.1982  0.7859 -0.1347
 9971TIP3    H151404   3.460   1.215   1.124  0.4877  1.1662 -0.3252
 9971TIP3    H251405   3.484   1.170   1.266 -0.3341  0.5486 -0.3785
 9972TIP3   OH251406   5.909   3.584   3.783  0.1801  0.3066  0.0397
 9972TIP3    H151407   5.965   3.529   3.728  0.3342  0.9062 -0.4059
 9972TIP3    H251408   5.820   3.557   3.761  0.2083  1.1475 -1.1455
 9973TIP3   OH251409   3.599   5.345   6.456  0.5110 -0.3945  0.4771
 9973TIP3    H151410   3.573   5.436   6.440 -0.1885 -1.0835 -2.5267
 9973TIP3    H251411   3.516   5.298   6.466  0.8432 -0.9314  0.6878
 9974TIP3   OH251412   3.986   0.971   1.375 -0.2494  0.0415  0.2789
 9974TIP3    H151413   3.926   0.959   1.449  0.6754  1.5685  1.3072
 9974TIP3    H251414   3.939   1.029   1.315 -0.7871 -0.7634 -0.0808
 9975TIP3   OH251415   0.262   2.137  14.587  0.1463 -0.1698 -1.0753
 9975TIP3    H151416   0.335   2.174  14.636 -0.2185  0.3385 -0.9047
 9975TIP3    H251417   0.186   2.190  14.614 -0.3431 -0.8985 -0.9897
 9976TIP3   OH251418   5.478   6.150  17.161 -0.7449 -0.0473  0.1392
 9976TIP3    H151419   5.397   6.182  17.202 -1.3678 -1.2310 -0.1109
 9976TIP3    H251420   5.463   6.055  17.153  1.1351 -0.4547  1.1464
 9977TIP3   OH251421   2.033   3.000   3.856 -0.0170  0.4115  0.0401
 9977TIP3    H151422   1.988   3.059   3.796  0.1287 -0.9389 -1.4350
 9977TIP3    H251423   2.126   3.017   3.843 -0.0153  3.2372  3.1261
 9978TIP3   OH251424   1.889   0.068  12.053 -0.0439  0.1313 -0.0156
 9978TIP3    H151425   1.872  -0.026  12.054  0.2370  0.0541 -1.1660
 9978TIP3    H251426   1.868   0.098  12.141 -2.1429 -0.6665 -0.2147
 9979TIP3   OH251427   4.421   3.772  16.893 -0.1685 -0.2596 -0.1762
 9979TIP3    H151428   4.431   3.762  16.988  0.1460 -2.3718 -0.4066
 9979TIP3    H251429   4.396   3.684  16.863 -1.5644  0.7007 -1.8853
 9980TIP3   OH251430   2.348   3.613  16.724  0.9320 -0.1517 -0.3354
 9980TIP3    H151431   2.263   3.584  16.691  1.8184 -0.7947 -2.1505
 9980TIP3    H251432   2.370   3.550  16.793 -0.4873  0.5967  0.8356
 9981TIP3   OH251433   5.094   6.312   1.689  0.2076 -0.0033  0.4364
 9981TIP3    H151434   5.109   6.218   1.700 -0.0809 -0.0714  0.2662
 9981TIP3    H251435   5.056   6.320   1.601 -0.5353  0.1851  0.7690
 9982TIP3   OH251436   5.739   1.005  15.236  0.1593 -0.5278  0.3929
 9982TIP3    H151437   5.824   1.010  15.278 -0.0667 -0.5038  0.8549
 9982TIP3    H251438   5.715   0.913  15.240  0.4173 -0.6289 -0.2566
 9983TIP3   OH251439   5.350   1.305   5.086 -0.1739  0.2506  0.2083
 9983TIP3    H151440   5.301   1.305   5.168  1.5213  1.6074  1.2447
 9983TIP3    H251441   5.369   1.213   5.069 -0.2254 -0.0028  1.5073
 9984TIP3   OH251442   1.922   5.042   4.951 -0.0614 -0.5634 -0.8934
 9984TIP3    H151443   1.931   4.949   4.971  3.0633 -0.2313 -0.5052
 9984TIP3    H251444   1.947   5.086   5.032 -1.3097  0.6315 -1.1511
 9985TIP3   OH251445   3.163   1.364  15.259 -0.4986  0.0914  0.1869
 9985TIP3    H151446   3.234   1.322  15.308  0.8347 -1.0005 -2.5311
 9985TIP3    H251447   3.204   1.441  15.220 -0.6030 -0.8303 -1.8239
 9986TIP3   OH251448   2.531   3.923  13.630 -0.0584 -0.0926  0.3170
 9986TIP3    H151449   2.448   3.875  13.625 -0.3400  0.2113  1.7427
 9986TIP3    H251450   2.505   4.012  13.653  0.6748 -0.0804  1.1235
 9987TIP3   OH251451   5.263   0.487   5.535 -0.0532  0.0332  0.0538
 9987TIP3    H151452   5.236   0.578   5.523  2.9045  1.2823  2.2615
 9987TIP3    H251453   5.203   0.452   5.600 -0.5054  0.7509  0.0246
 9988TIP3   OH251454   1.559   5.032   0.121 -0.1164  0.1706 -0.2861
 9988TIP3    H151455   1.520   5.116   0.099  1.4196  0.8594 -0.4145
 9988TIP3    H251456   1.653   5.049   0.128  0.4263 -1.8611 -1.9171
 9989TIP3   OH251457   2.412   1.802   1.127 -0.4240 -0.2898  0.1537
 9989TIP3    H151458   2.477   1.787   1.058 -1.8731  0.5762 -1.4353
 9989TIP3    H251459   2.384   1.714   1.152 -0.3671 -0.6012 -0.8453
 9990TIP3   OH251460   6.437   2.294   2.374  0.5041 -0.5052  0.5256
 9990TIP3    H151461   6.433   2.379   2.418 -0.5313 -0.0375 -0.4543
 9990TIP3    H251462   6.503   2.244   2.424  1.1519  0.8744  1.0746
 9991TIP3   OH251463   3.023   4.766   0.278  0.3357 -0.6352 -0.7599
 9991TIP3    H151464   3.002   4.760   0.371 -0.0804 -2.3688 -0.9433
 9991TIP3    H251465   2.973   4.841   0.246 -0.2103 -0.5770  0.2176
 9992TIP3   OH251466   3.270   3.792  13.163 -0.0387  0.2078 -1.0416
 9992TIP3    H151467   3.303   3.812  13.250  0.8475 -2.0083 -0.8172
 9992TIP3    H251468   3.194   3.736  13.178  0.7561 -1.0769 -1.6699
 9993TIP3   OH251469   3.456   5.556  15.081  0.1297 -0.5671 -0.2326
 9993TIP3    H151470   3.390   5.504  15.034 -0.4709 -0.3358  0.3390
 9993TIP3    H251471   3.502   5.493  15.136 -2.4757 -0.1039  2.5948
 9994TIP3   OH251472   1.720   5.418  15.470 -0.5935  0.2572 -0.0524
 9994TIP3    H151473   1.646   5.477  15.473 -0.1411  0.9552 -2.2802
 9994TIP3    H251474   1.758   5.430  15.383  2.2374  0.0487  1.0908
 9995TIP3   OH251475   3.705   3.800  11.944  0.2158  0.1793  0.0552
 9995TIP3    H151476   3.706   3.735  12.014 -0.8246 -1.4845 -1.4460
 9995TIP3    H251477   3.694   3.749  11.863  0.7644  2.1043 -1.2743
 9996TIP3   OH251478   1.626   4.136  14.623  0.7214 -0.3591  0.4875
 9996TIP3    H151479   1.693   4.102  14.563  0.3996  1.4261 -0.9421
 9996TIP3    H251480   1.652   4.226  14.639 -0.7322  0.0094  0.8299
 9997TIP3   OH251481   4.608   0.593   1.943 -0.0394  0.1820 -0.1469
 9997TIP3    H151482   4.654   0.509   1.942 -1.4693 -0.6362  1.0436
 9997TIP3    H251483   4.673   0.656   1.974  0.6261 -0.7447  0.3594
 9998TIP3   OH251484   5.627   4.527  12.446  0.8693 -0.8628  0.9201
 9998TIP3    H151485   5.717   4.554  12.461  1.1024 -1.1402  0.0500
 9998TIP3    H251486   5.576   4.607  12.458  1.5884  0.1010 -1.9456
 9999TIP3   OH251487   6.096   3.777  12.974 -0.9118  0.4706  0.3554
 9999TIP3    H151488   6.072   3.812  12.888 -0.5321  0.1468  0.1140
 9999TIP3    H251489   6.050   3.832  13.037  0.5727  2.1120  0.0365
10000TIP3   OH251490   3.248   0.026  11.623  0.2528  0.1165  0.0385
10000TIP3    H151491   3.299   0.072  11.556  1.8269 -1.1817  0.3177
10000TIP3    H251492   3.274   0.069  11.705  0.3066 -0.0391  0.1028
10001TIP3   OH251493   0.557   5.035   7.011  0.4100 -0.4225 -0.3178
10001TIP3    H151494   0.577   5.030   6.917  0.7342  1.3896 -0.3730
10001TIP3    H251495   0.601   5.115   7.040  0.4357 -1.0525  1.4236
10002TIP3   OH251496   2.389   6.012  13.522  0.1431  1.0796 -0.2797
10002TIP3    H151497   2.421   6.059  13.444 -0.9038  0.3316 -1.1695
10002TIP3    H251498   2.382   5.921  13.494 -1.4574  1.0134  0.3084
10003TIP3   OH251499   2.741   1.089  12.696  0.8088 -0.5587  0.6767
10003TIP3    H151500   2.765   1.181  12.688  2.4354 -0.9847  0.5971
10003TIP3    H251501   2.666   1.089  12.756  1.5810  0.6961  1.6593
10004TIP3   OH251502   1.727   4.952   0.417 -0.5731 -0.2930  0.1630
10004TIP3    H151503   1.804   4.912   0.457 -0.4405 -0.7967 -0.5909
10004TIP3    H251504   1.659   4.885   0.422 -0.3836 -0.5860 -0.9977
10005TIP3   OH251505   3.984   3.123  16.159  0.1483  0.5981 -0.5159
10005TIP3    H151506   3.912   3.071  16.123 -0.1369  0.6120  0.0327
10005TIP3    H251507   4.060   3.098  16.106  0.5097 -2.0566  1.1760
10006TIP3   OH251508   1.793   1.816  15.493 -0.2827 -0.7937  0.7414
10006TIP3    H151509   1.799   1.838  15.400 -1.9876 -1.9203  0.3453
10006TIP3    H251510   1.883   1.821  15.524  0.4984 -1.6136 -1.2624
10007TIP3   OH251511   6.628   6.367  16.610  0.0211  0.1322 -0.3697
10007TIP3    H151512   6.585   6.306  16.550 -0.4682  0.2607 -0.1504
10007TIP3    H251513   6.614   6.329  16.696 -0.3106  0.5774 -0.2272
10008TIP3   OH251514   3.841   5.370  16.237 -0.0308  0.1344 -0.0122
10008TIP3    H151515   3.924   5.382  16.191 -0.3218  1.8965 -0.1469
10008TIP3    H251516   3.829   5.276  16.243  2.7655 -0.1774  1.4058
10009TIP3   OH251517   1.427   2.111  16.545 -0.1161 -0.2374 -0.7351
10009TIP3    H151518   1.469   2.151  16.621 -1.1803 -1.5411  0.5606
10009TIP3    H251519   1.497   2.060  16.504 -0.3377 -2.2067  1.2780
10010TIP3   OH251520   0.108   6.688  14.714  0.4479 -0.5131  0.2547
10010TIP3    H151521   0.187   6.634  14.725 -0.5570 -2.3797 -1.3563
10010TIP3    H251522   0.121   6.731  14.630  0.7994  1.0361  1.0908
10011TIP3   OH251523   3.467   0.588  15.392 -0.1213 -0.0053 -0.0618
10011TIP3    H151524   3.503   0.578  15.304 -0.1439 -1.8386  0.1296
10011TIP3    H251525   3.525   0.537  15.448  0.8114  2.4122  1.2405
10012TIP3   OH251526   3.202   6.042   3.023 -0.4683  0.2624 -0.1479
10012TIP3    H151527   3.260   6.100   2.974  0.9947  0.7741  2.0908
10012TIP3    H251528   3.255   5.963   3.038 -1.1212 -0.1348  0.0677
10013TIP3   OH251529   4.492   2.675  17.150 -0.3749 -0.7108 -0.1394
10013TIP3    H151530   4.547   2.600  17.129 -0.7417 -0.7495 -0.9541
10013TIP3    H251531   4.517   2.743  17.087 -1.1462 -0.6794 -0.4209
10014TIP3   OH251532   1.132   0.790  12.160 -0.8649  0.3047  0.9444
10014TIP3    H151533   1.052   0.838  12.180 -1.5977 -0.2969 -0.4804
10014TIP3    H251534   1.132   0.781  12.064  0.6259 -0.1709  0.9711
10015TIP3   OH251535   4.406   0.472  15.922  0.0958  0.0317 -0.0876
10015TIP3    H151536   4.336   0.433  15.870 -0.7957 -1.3883  2.1181
10015TIP3    H251537   4.362   0.514  15.995  1.5413 -1.1287  1.4893
10016TIP3   OH251538   2.962   6.094   4.759  0.0026  0.0987 -0.2493
10016TIP3    H151539   3.048   6.082   4.800  0.1186 -0.0272 -0.5274
10016TIP3    H251540   2.956   6.188   4.742  0.1726  0.0785 -0.4217
10017TIP3   OH251541   4.387   0.012  10.622  0.2372  0.0577  0.4534
10017TIP3    H151542   4.410   0.105  10.630 -1.7162  0.5178  0.9629
10017TIP3    H251543   4.332   0.008  10.544  0.7639 -0.7708  0.1155
10018TIP3   OH251544   0.584   1.365   2.146 -0.9160  0.8217  0.2944
10018TIP3    H151545   0.557   1.384   2.235  0.1126 -0.7655  0.9622
10018TIP3    H251546   0.511   1.317   2.108 -1.9023  2.6229 -0.1686
10019TIP3   OH251547   1.727   6.255   6.011 -0.1744  0.1072 -0.4915
10019TIP3    H151548   1.745   6.233   6.103 -3.2849  0.1821  0.1807
10019TIP3    H251549   1.694   6.173   5.973  0.1583  0.3393 -1.2812
10020TIP3   OH251550   2.479   0.520   2.916 -0.3835  0.6231  1.0015
10020TIP3    H151551   2.511   0.439   2.957  1.3101  0.5251 -0.4705
10020TIP3    H251552   2.455   0.494   2.827 -0.9215  1.5117  0.8812
10021TIP3   OH251553   0.084   4.791  12.251 -0.3560  0.5101  0.0865
10021TIP3    H151554   0.122   4.777  12.164  2.1646  2.1678  0.8762
10021TIP3    H251555   0.021   4.719  12.261  0.9022 -0.9819 -2.2160
10022TIP3   OH251556   1.157   6.577   1.735 -0.1899  0.2038 -0.0746
10022TIP3    H151557   1.148   6.672   1.727  1.5602  0.4341  0.6237
10022TIP3    H251558   1.193   6.563   1.822  0.4830 -1.0501 -0.5480
10023TIP3   OH251559   3.760   6.228  14.806 -0.1282 -0.2103  0.3817
10023TIP3    H151560   3.665   6.240  14.804 -0.0714  0.4428  1.2333
10023TIP3    H251561   3.795   6.304  14.759  0.0194  0.2037  1.1530
10024TIP3   OH251562   0.616   5.234   5.915  0.0349  0.3773  0.2543
10024TIP3    H151563   0.697   5.252   5.869 -0.2459 -2.0407 -1.2544
10024TIP3    H251564   0.607   5.139   5.913 -2.9250  0.6139  0.2267
10025TIP3   OH251565   5.709   1.571   2.292  0.0857  0.0610  0.1502
10025TIP3    H151566   5.770   1.571   2.218  1.0568  0.8874  0.9180
10025TIP3    H251567   5.743   1.504   2.351  0.6271  0.9314  0.8538
10026TIP3   OH251568   5.126   5.748   4.675 -0.5031  0.5890  0.4261
10026TIP3    H151569   5.143   5.654   4.665 -0.6432  0.6505 -0.4669
10026TIP3    H251570   5.064   5.754   4.748  0.1436  0.0527  1.0184
10027TIP3   OH251571   2.013   3.690  12.327 -0.2889 -0.4574  0.7134
10027TIP3    H151572   2.006   3.603  12.288  0.0593  0.5509 -1.6985
10027TIP3    H251573   2.105   3.698  12.352  0.5189  0.4930 -2.3169
10028TIP3   OH251574   6.205   4.647  13.670  0.7694  0.2142 -0.0729
10028TIP3    H151575   6.238   4.735  13.688 -0.9970  0.4999  2.0060
10028TIP3    H251576   6.250   4.590  13.732 -1.8389  0.4704  2.1300
10029TIP3   OH251577   2.105   3.898  13.045  0.1388  0.8401  0.6904
10029TIP3    H151578   2.096   3.989  13.018  0.9920 -0.0791 -2.9105
10029TIP3    H251579   2.126   3.851  12.965  1.4719 -2.2883  2.7813
10030TIP3   OH251580   0.098   6.007   2.470  0.2104 -0.2644  0.1765
10030TIP3    H151581   0.020   6.057   2.446  0.2141 -0.6987 -0.7634
10030TIP3    H251582   0.074   5.915   2.454  0.9629 -0.3873 -0.2863
10031TIP3   OH251583   4.472   1.002  11.080 -0.2160  0.4380  0.1833
10031TIP3    H151584   4.537   0.961  11.023 -0.7582 -0.6682  0.3525
10031TIP3    H251585   4.465   1.092  11.047  1.3166  0.5272  0.1034
10032TIP3   OH251586   2.193   0.539   5.606 -0.0355  0.0871 -0.3308
10032TIP3    H151587   2.151   0.562   5.523  0.2209 -0.6299 -0.6611
10032TIP3    H251588   2.253   0.467   5.584  0.8591  0.6318  0.2593
10033TIP3   OH251589   0.046   2.972   2.193 -0.2371 -0.2384  0.1112
10033TIP3    H151590  -0.002   2.987   2.274  0.8269  0.2129  0.6664
10033TIP3    H251591   0.016   2.886   2.163  0.4830 -1.1149  1.7959
10034TIP3   OH251592   1.266   1.780   3.973 -0.3761 -0.2702  0.0598
10034TIP3    H151593   1.359   1.796   3.954 -0.5442  0.7560  0.1118
10034TIP3    H251594   1.224   1.864   3.961 -0.8851 -0.1179  2.5971
10035TIP3   OH251595   5.898   0.116  13.123  0.1778 -0.4666 -0.4748
10035TIP3    H151596   5.867   0.200  13.088 -1.0348 -1.0022 -0.6879
10035TIP3    H251597   5.859   0.050  13.066 -1.2083 -1.3037  1.3952
10036TIP3   OH251598   6.352   1.987  14.168  0.2701 -0.4472  0.1749
10036TIP3    H151599   6.400   1.957  14.245  1.6176 -1.5927 -1.0852
10036TIP3    H251600   6.365   1.918  14.103  0.4702  1.2308 -1.6044
10037TIP3   OH251601   1.930   0.286   4.246  0.0411 -0.1987 -0.1871
10037TIP3    H151602   2.025   0.297   4.258 -0.2687  1.7329  0.6586
10037TIP3    H251603   1.922   0.206   4.194  2.0997 -0.8734  0.4712
10038TIP3   OH251604   1.724   2.257  12.040 -0.2393  0.3643  0.5493
10038TIP3    H151605   1.676   2.333  12.008 -1.4844 -0.6922 -0.1151
10038TIP3    H251606   1.768   2.222  11.963 -1.2445 -0.7255  0.4522
10039TIP3   OH251607   5.148   5.045   3.374 -0.5307 -0.1034 -0.2794
10039TIP3    H151608   5.236   5.074   3.398 -0.5984  0.5049 -0.7444
10039TIP3    H251609   5.161   4.956   3.342 -0.0383  0.0845 -0.6156
10040TIP3   OH251610   3.447   2.911   1.535  0.4199  0.5983  0.1338
10040TIP3    H151611   3.490   2.958   1.606  1.3135 -1.8113  1.2548
10040TIP3    H251612   3.388   2.849   1.578 -0.2524  0.2395 -1.2518
10041TIP3   OH251613   6.200   2.035  11.495 -0.9362  0.6218  0.2195
10041TIP3    H151614   6.177   2.095  11.424 -2.4935  1.3828  1.3361
10041TIP3    H251615   6.137   2.056  11.565  0.0630 -0.6530  1.5172
10042TIP3   OH251616   1.527   5.228   1.802  0.1853 -0.4565 -0.1603
10042TIP3    H151617   1.617   5.225   1.770  0.6712  3.4884  0.5646
10042TIP3    H251618   1.534   5.210   1.895  0.4484  1.1078  0.1462
10043TIP3   OH251619   1.631   6.638  14.282  0.0452  0.5619  0.4251
10043TIP3    H151620   1.580   6.650  14.362  2.5340  2.3890  1.7829
10043TIP3    H251621   1.722   6.643  14.310  1.0165 -1.5253 -2.1326
10044TIP3   OH251622   0.012   5.760   2.320 -0.4324 -0.1304 -0.2042
10044TIP3    H151623   0.072   5.686   2.331  1.1147  1.2281  0.8395
10044TIP3    H251624   0.024   5.787   2.229 -0.5112 -0.7494 -0.3979
10045TIP3   OH251625   0.058   0.961  16.627 -0.7123 -0.0319 -0.3658
10045TIP3    H151626   0.126   0.894  16.638 -0.6640 -0.2315 -1.8057
10045TIP3    H251627   0.032   0.954  16.535 -0.5552  2.0753 -0.6014
10046TIP3   OH251628   3.392   0.643   3.486  0.6399 -0.1593 -0.2873
10046TIP3    H151629   3.441   0.723   3.467  1.7628 -0.7666 -0.0357
10046TIP3    H251630   3.391   0.595   3.403 -0.3374  0.2719 -0.5280
10047TIP3   OH251631   2.692   0.313   5.207 -0.6334 -0.4278 -0.7099
10047TIP3    H151632   2.779   0.289   5.174 -0.7456 -1.0840 -0.5176
10047TIP3    H251633   2.680   0.261   5.286 -0.2326  1.3802  0.5834
10048TIP3   OH251634   5.424   0.975  14.717  0.4245 -0.2328 -0.7303
10048TIP3    H151635   5.472   1.044  14.671  0.5944  0.4503  0.4403
10048TIP3    H251636   5.492   0.923  14.760  0.3490 -1.6307 -2.2591
10049TIP3   OH251637   5.626   3.570   2.278  0.2753 -0.0053 -0.0517
10049TIP3    H151638   5.664   3.511   2.342  0.3417 -0.2549 -0.3175
10049TIP3    H251639   5.598   3.513   2.206  0.5432  0.3049 -0.4092
10050TIP3   OH251640   1.132   2.136   4.946 -0.5148 -0.2019 -0.1637
10050TIP3    H151641   1.219   2.115   4.980  0.3285  0.4579 -1.8630
10050TIP3    H251642   1.092   2.190   5.015  0.5518 -0.2136  0.4810
10051TIP3   OH251643   3.790   3.446  12.948  0.1456  0.1767 -0.3821
10051TIP3    H151644   3.773   3.429  13.040  0.9888  1.4564  0.0210
10051TIP3    H251645   3.705   3.436  12.906  0.0806 -2.1442  0.2485
10052TIP3   OH251646   1.641   2.947  14.389 -0.4527 -0.2290  0.0920
10052TIP3    H151647   1.729   2.985  14.397 -0.8706  1.1121 -1.6186
10052TIP3    H251648   1.657   2.858  14.357  0.2304  0.3174 -1.0943
10053TIP3   OH251649   0.451   2.799   3.579  0.0719 -0.0312 -0.1572
10053TIP3    H151650   0.368   2.752   3.578  0.4742 -0.7439 -0.6644
10053TIP3    H251651   0.517   2.731   3.589  0.5629  0.5794  0.8281
10054TIP3   OH251652   1.197   3.872   3.670  0.4495 -0.5813 -0.2204
10054TIP3    H151653   1.188   3.781   3.643 -0.7628 -1.0123  1.6058
10054TIP3    H251654   1.199   3.869   3.766  0.2454  1.3185 -0.1366
10055TIP3   OH251655   3.930   0.557  14.207  0.0233  0.0895 -0.6068
10055TIP3    H151656   3.891   0.527  14.290  0.9542 -0.2155 -0.2711
10055TIP3    H251657   4.017   0.589  14.232 -0.2521  1.3690 -1.2483
10056TIP3   OH251658   5.419   3.029   3.012 -0.0731  0.6265  0.6703
10056TIP3    H151659   5.475   3.030   2.934 -1.7218  0.4193 -0.5396
10056TIP3    H251660   5.439   2.945   3.055 -0.6467 -0.1964 -0.6472
10057TIP3   OH251661   3.137   5.164  11.268  0.4837  0.4257  0.3448
10057TIP3    H151662   3.068   5.131  11.211  1.8551  1.1419 -1.7935
10057TIP3    H251663   3.207   5.099  11.262  1.4938  1.5631 -0.5072
10058TIP3   OH251664   2.806   3.947  12.601 -0.1804  0.3665 -0.2668
10058TIP3    H151665   2.760   3.922  12.521 -0.3147 -0.3085  0.0184
10058TIP3    H251666   2.751   4.015  12.640  0.3463  1.3479 -1.2074
10059TIP3   OH251667   1.473   3.542   0.055  0.3551 -0.1987  0.7223
10059TIP3    H151668   1.476   3.633   0.084  0.1408 -0.8199  2.7681
10059TIP3    H251669   1.564   3.514   0.054  0.5330  0.3497 -1.0421
10060TIP3   OH251670   0.973   3.091  10.812 -0.2726  0.2750 -0.3616
10060TIP3    H151671   0.894   3.143  10.797 -0.5204  0.4076  1.2973
10060TIP3    H251672   0.940   3.006  10.842  0.2045  0.2993  0.2450
10061TIP3   OH251673   4.695   0.443   3.331 -0.3402  0.7132 -0.2347
10061TIP3    H151674   4.699   0.519   3.389  1.5222  1.7188 -1.6413
10061TIP3    H251675   4.761   0.460   3.264  0.2682 -2.2564 -0.4591
10062TIP3   OH251676   4.857   0.389  13.865 -0.5209 -0.3596  0.7082
10062TIP3    H151677   4.762   0.391  13.853 -0.4858  0.9720  0.6447
10062TIP3    H251678   4.893   0.418  13.782 -0.0758  0.2064  1.0975
10063TIP3   OH251679   1.274   5.948  16.985 -0.4928 -0.3434  0.3475
10063TIP3    H151680   1.182   5.921  16.989  0.2379 -3.4631 -1.8162
10063TIP3    H251681   1.299   5.964  17.076 -3.2276  0.8625  0.9335
10064TIP3   OH251682   1.709   0.753   2.126  0.5900  0.0152 -0.1266
10064TIP3    H151683   1.629   0.804   2.121  1.2091  1.0162  0.0356
10064TIP3    H251684   1.772   0.811   2.170  1.4342 -0.7072 -0.3572
10065TIP3   OH251685   4.732   3.381  16.228  0.1833  0.6337  0.3099
10065TIP3    H151686   4.775   3.296  16.236 -1.0547 -0.0248  0.1200
10065TIP3    H251687   4.802   3.441  16.200  1.0005 -0.3700  0.1752
10066TIP3   OH251688   1.315   1.147   0.619  0.0244  0.0129  0.0450
10066TIP3    H151689   1.392   1.192   0.651  1.2747 -1.4135 -0.8701
10066TIP3    H251690   1.315   1.062   0.664 -0.7229 -0.2002 -0.3311
10067TIP3   OH251691   4.857   5.251   0.619 -0.4823  0.0942 -0.1911
10067TIP3    H151692   4.810   5.302   0.685 -0.0025  0.5823 -0.2269
10067TIP3    H251693   4.857   5.162   0.654  1.4690  0.6901  1.4170
10068TIP3   OH251694   6.158   1.195   3.808 -0.3137 -0.1387 -0.1553
10068TIP3    H151695   6.238   1.150   3.834  0.8988  1.8965 -0.2447
10068TIP3    H251696   6.107   1.129   3.761 -0.0878 -2.3185  2.5496
10069TIP3   OH251697   3.161   5.029  16.533  0.2694 -0.5256  0.4877
10069TIP3    H151698   3.104   5.106  16.536 -0.1428 -0.7992 -0.0554
10069TIP3    H251699   3.125   4.976  16.461  1.9193 -0.1658 -0.6095
10070TIP3   OH251700   2.675   1.742  15.043 -0.1867  0.5237  0.4292
10070TIP3    H151701   2.691   1.755  15.137 -0.4059 -0.5920  0.6237
10070TIP3    H251702   2.602   1.800  15.023  0.6480  1.6947  0.6741
10071TIP3   OH251703   1.199   0.431   6.577  0.1975  0.3845  0.1760
10071TIP3    H151704   1.144   0.392   6.509 -0.1839 -1.9423  1.7684
10071TIP3    H251705   1.173   0.385   6.657  2.5518  1.1843  1.4214
10072TIP3   OH251706   2.651   4.985  15.145  0.2252 -0.2820  0.2980
10072TIP3    H151707   2.713   5.048  15.108 -1.1020  1.1468  0.4536
10072TIP3    H251708   2.638   4.920  15.076  2.0729 -0.7593  0.3515
10073TIP3   OH251709   2.054   6.330   5.319  0.3032 -0.0601  0.5409
10073TIP3    H151710   2.111   6.259   5.348 -1.6068 -0.7997  2.6410
10073TIP3    H251711   2.097   6.409   5.351  0.5478 -0.5443  1.4311
10074TIP3   OH251712   2.604   1.835   2.541 -0.0934 -0.0342 -0.0360
10074TIP3    H151713   2.643   1.861   2.458 -2.2958 -0.8840 -1.3818
10074TIP3    H251714   2.622   1.741   2.548 -0.2610 -0.0472  0.2419
10075TIP3   OH251715   0.402   5.058   4.251 -0.0528  0.5600 -0.0767
10075TIP3    H151716   0.320   5.008   4.257  1.5967 -2.5260 -1.5640
10075TIP3    H251717   0.412   5.099   4.336 -0.7491 -3.0769  1.8729
10076TIP3   OH251718   0.415   4.000  16.112 -0.0552  0.3219 -0.1508
10076TIP3    H151719   0.413   3.929  16.176 -0.6819 -1.0927 -1.6932
10076TIP3    H251720   0.324   4.007  16.082  0.1692  1.1959 -0.6389
10077TIP3   OH251721   6.382   3.606  14.468  0.1340  0.1887 -0.3152
10077TIP3    H151722   6.359   3.531  14.413 -2.1065 -0.3259  1.2716
10077TIP3    H251723   6.405   3.568  14.552  2.1368  1.0828 -0.4387
10078TIP3   OH251724   0.860   6.350   4.779 -0.1469  0.5235 -0.2567
10078TIP3    H151725   0.918   6.392   4.715  0.1835  1.6269  0.7539
10078TIP3    H251726   0.920   6.310   4.842 -0.4844  1.2220  0.5088
10079TIP3   OH251727   3.763   2.220  11.645 -0.0105  0.8345  0.0614
10079TIP3    H151728   3.705   2.178  11.709  1.6174 -0.3179  0.8132
10079TIP3    H251729   3.714   2.297  11.615 -2.2957 -0.5927  0.0052
10080TIP3   OH251730   1.694   6.217  11.233  0.4387 -0.3497 -0.2666
10080TIP3    H151731   1.635   6.279  11.191  0.4758 -0.4257 -0.4294
10080TIP3    H251732   1.636   6.162  11.287  0.1920 -1.2761 -1.4551
10081TIP3   OH251733   2.830   1.355  15.808  0.1810  0.4924 -0.3344
10081TIP3    H151734   2.749   1.385  15.768 -1.3356 -0.5030  1.8754
10081TIP3    H251735   2.854   1.277  15.759  0.4433  1.4194 -1.7127
10082TIP3   OH251736   6.429   6.760   5.729  0.7982 -0.3644  0.5334
10082TIP3    H151737   6.509   6.715   5.756  0.6759  0.0095  1.5536
10082TIP3    H251738   6.361   6.722   5.785  0.4531  0.0925  0.4222
10083TIP3   OH251739   1.929   3.591   2.251  0.1649  0.6885  0.2743
10083TIP3    H151740   2.003   3.647   2.274 -0.8224  2.4969 -0.7703
10083TIP3    H251741   1.904   3.548   2.333 -0.4511  3.5041  1.6156
10084TIP3   OH251742   1.905   2.362  15.044 -0.0359  0.3971 -0.4938
10084TIP3    H151743   1.925   2.282  14.995  0.2987 -0.3023  0.7601
10084TIP3    H251744   1.851   2.333  15.117 -1.3819  1.5830 -0.9942
10085TIP3   OH251745   1.552   6.288  16.941  0.5736 -0.2175 -0.0568
10085TIP3    H151746   1.601   6.226  16.889 -0.2052 -0.5837 -0.3634
10085TIP3    H251747   1.465   6.291  16.900 -0.0340 -0.4699  1.1638
10086TIP3   OH251748   2.918   1.372  15.441  0.3533  0.7975 -0.2686
10086TIP3    H151749   2.931   1.305  15.509 -1.5326  1.0569  0.3654
10086TIP3    H251750   2.999   1.369  15.390 -0.4626 -3.3892 -1.5243
10087TIP3   OH251751   6.625   6.418  15.134 -0.9951  0.4369 -0.0055
10087TIP3    H151752   6.654   6.412  15.043  1.2866  1.3576  0.6225
10087TIP3    H251753   6.699   6.384  15.185 -2.2354 -0.0461  1.5245
10088TIP3   OH251754   2.390   5.340   0.338 -0.0374 -0.3808 -0.3423
10088TIP3    H151755   2.302   5.346   0.301 -0.5543 -1.2978  0.7171
10088TIP3    H251756   2.406   5.426   0.377 -1.9711 -1.3701  2.7621
10089TIP3   OH251757   0.316   3.772   1.013  0.3508  0.1763  0.0469
10089TIP3    H151758   0.314   3.735   1.100 -1.4652 -0.2310 -0.1484
10089TIP3    H251759   0.293   3.864   1.025  0.5158  0.2190  0.0409
10090TIP3   OH251760   6.017   3.431   0.162  0.4618  0.1747 -0.0060
10090TIP3    H151761   5.937   3.433   0.109 -0.3941  0.6712  1.2555
10090TIP3    H251762   5.993   3.479   0.242  1.3728 -1.4692  1.2890
10091TIP3   OH251763   2.544   6.241  14.388 -0.3441 -0.6839 -0.4608
10091TIP3    H151764   2.590   6.249  14.304  2.6122 -0.1453  1.1397
10091TIP3    H251765   2.515   6.330  14.409  0.6611 -0.4633  0.0186
10092TIP3   OH251766   4.228   1.164  13.859 -0.4111  0.5896 -0.4012
10092TIP3    H151767   4.182   1.145  13.940 -0.7384 -0.2760 -0.7837
10092TIP3    H251768   4.318   1.132  13.875 -0.5604  0.1135 -0.4910
10093TIP3   OH251769   5.463   4.450   1.917  0.5301 -0.0298 -0.2416
10093TIP3    H151770   5.536   4.484   1.969 -0.3472 -0.1446  1.0887
10093TIP3    H251771   5.389   4.506   1.940 -0.3348 -1.2745  0.0910
10094TIP3   OH251772   2.476   6.264  15.921 -0.4348  0.2788 -0.2124
10094TIP3    H151773   2.491   6.184  15.872  1.0363  0.4713 -0.1017
10094TIP3    H251774   2.381   6.271  15.928 -0.6677  0.0996 -2.7944
10095TIP3   OH251775   4.129   0.542  15.212  0.1131 -0.3681 -0.2525
10095TIP3    H151776   4.187   0.591  15.270 -0.1612  1.9266 -1.8206
10095TIP3    H251777   4.179   0.464  15.188  1.1480 -0.1587  1.1876
10096TIP3   OH251778   5.110   1.091   0.460  0.0395  0.3526  0.0806
10096TIP3    H151779   5.163   1.114   0.536  1.3718  2.0020 -1.3062
10096TIP3    H251780   5.091   1.175   0.418  1.0195 -0.6827 -2.5073
10097TIP3   OH251781   1.863   6.456  12.357 -0.1660  0.2337  0.1159
10097TIP3    H151782   1.947   6.491  12.388 -0.1082 -0.4054  0.7028
10097TIP3    H251783   1.846   6.503  12.276  1.9281 -1.2568 -1.2407
10098TIP3   OH251784   1.152   6.731  12.834  0.6537 -0.0923 -0.2782
10098TIP3    H151785   1.202   6.810  12.851 -1.0003  1.1298 -0.8832
10098TIP3    H251786   1.206   6.680  12.773  1.2314  1.1164 -0.7828
10099TIP3   OH251787   2.906   1.842   4.116 -0.4829  0.5658 -0.1386
10099TIP3    H151788   2.991   1.817   4.152 -1.2125 -2.4626 -0.4269
10099TIP3    H251789   2.926   1.906   4.048  1.6256 -0.6079 -0.6463
10100TIP3   OH251790   6.124   6.272   1.578 -0.4223  0.3810  0.1029
10100TIP3    H151791   6.114   6.315   1.492  0.9697  1.3172  0.3930
10100TIP3    H251792   6.136   6.344   1.639  1.3429 -0.3763  0.6896
10101TIP3   OH251793   5.014   0.299   1.607  0.3365  0.6259 -0.4448
10101TIP3    H151794   5.025   0.374   1.549  1.6455  2.1414  1.6992
10101TIP3    H251795   4.974   0.335   1.686  0.9562 -0.9304  0.6097
10102TIP3   OH251796   5.039   6.506   4.906 -0.1198  0.0636  0.3725
10102TIP3    H151797   5.134   6.503   4.894 -0.0525 -0.7126  1.0791
10102TIP3    H251798   5.012   6.414   4.907 -0.6331  0.2143  2.0674
10103TIP3   OH251799   3.333   0.999  17.099 -0.0103  0.4342 -0.6741
10103TIP3    H151800   3.310   0.964  17.013  0.0051  0.6326 -0.7583
10103TIP3    H251801   3.252   1.041  17.129 -0.1682 -0.0767 -0.3710
10104TIP3   OH251802   1.419   1.540  12.775 -0.4736 -0.4690  0.3448
10104TIP3    H151803   1.477   1.606  12.814 -2.2781  3.0297 -2.6820
10104TIP3    H251804   1.471   1.503  12.703 -0.7465  0.2750 -0.2453
10105TIP3   OH251805   0.949   0.900  13.029 -0.0744 -0.1118  0.4865
10105TIP3    H151806   0.864   0.917  13.069  0.2106  1.1247  0.6047
10105TIP3    H251807   0.931   0.836  12.960 -1.1236  0.2438  0.4202
10106TIP3   OH251808   5.868   2.600  16.275 -0.2345  0.5343  0.6555
10106TIP3    H151809   5.867   2.675  16.334 -2.7880 -0.4538  1.9640
10106TIP3    H251810   5.804   2.623  16.207  1.3124  0.8659 -0.7072
10107TIP3   OH251811   1.954   6.513   0.557  1.2936  0.3080  0.5547
10107TIP3    H151812   1.904   6.547   0.482  3.6637  2.9245  0.0780
10107TIP3    H251813   1.914   6.556   0.633 -0.6397 -1.7903  0.7709
10108TIP3   OH251814   2.701   3.267   4.658  0.2546 -0.4424 -0.5682
10108TIP3    H151815   2.651   3.236   4.583 -0.0963 -1.5923  0.1223
10108TIP3    H251816   2.649   3.338   4.696  0.3080 -0.0381 -1.2540
10109TIP3   OH251817   6.268   0.547   0.139  0.1296 -0.0691 -0.2649
10109TIP3    H151818   6.318   0.491   0.198 -0.2561 -0.5568 -0.4018
10109TIP3    H251819   6.213   0.487   0.089  0.3951  0.3477 -1.0689
10110TIP3   OH251820   3.552   4.178   2.182 -0.2880 -0.1019  0.1692
10110TIP3    H151821   3.486   4.144   2.121  0.4108 -0.8379 -0.1949
10110TIP3    H251822   3.623   4.113   2.179  1.0088  1.2997 -0.4051
10111TIP3   OH251823   2.474   1.080  11.939 -0.9903  0.2540 -0.2834
10111TIP3    H151824   2.532   1.146  11.976 -0.8760  1.0040 -1.7809
10111TIP3    H251825   2.386   1.115  11.953 -0.9920  0.0878  0.1293
10112TIP3   OH251826   4.729   4.483   4.715 -0.1219  0.4143  0.0813
10112TIP3    H151827   4.822   4.488   4.694  0.0604 -1.3568  0.4212
10112TIP3    H251828   4.717   4.548   4.785  0.9528  0.3009  0.3776
10113TIP3   OH251829   6.214   0.354   5.488  0.2283 -0.2024  0.3506
10113TIP3    H151830   6.228   0.270   5.532 -0.2178 -0.7456 -0.5206
10113TIP3    H251831   6.120   0.358   5.474  0.2728  0.3501  0.2079
10114TIP3   OH251832   2.902   2.433   2.792  0.5904 -0.6014  0.2116
10114TIP3    H151833   2.926   2.503   2.852 -0.1691  1.1866 -1.5074
10114TIP3    H251834   2.812   2.411   2.815 -0.1279  0.9302 -0.9922
10115TIP3   OH251835   2.701   6.453   5.453  0.1801 -0.1997 -0.4229
10115TIP3    H151836   2.709   6.369   5.407 -2.1059 -0.0572 -1.1334
10115TIP3    H251837   2.611   6.454   5.485  0.8359  1.0506  1.4878
10116TIP3   OH251838   0.773   4.905   1.747 -0.5003  0.0692  0.0832
10116TIP3    H151839   0.751   4.991   1.783  0.7902 -0.4066  2.1037
10116TIP3    H251840   0.826   4.924   1.669 -1.2317  1.0912 -0.1774
10117TIP3   OH251841   1.573   0.531  16.988 -0.0451 -0.5140  0.1988
10117TIP3    H151842   1.585   0.584  17.067  0.1097 -0.3629  0.0734
10117TIP3    H251843   1.527   0.589  16.927 -3.4034 -1.7553  1.4245
10118TIP3   OH251844   1.740   1.280  13.918  0.3861 -0.1888  0.6105
10118TIP3    H151845   1.754   1.186  13.930 -1.7205 -0.5490  0.4698
10118TIP3    H251846   1.655   1.296  13.958 -0.6367  1.1050 -1.9902
10119TIP3   OH251847   4.094   6.158   4.434 -0.2297 -0.0684  0.7175
10119TIP3    H151848   4.102   6.087   4.498 -0.0811  0.5564  1.4013
10119TIP3    H251849   4.039   6.121   4.365  1.5471 -1.5291  0.0698
10120TIP3   OH251850   3.234   6.184   5.807 -0.1398 -0.0184 -0.1933
10120TIP3    H151851   3.296   6.181   5.880  2.3939  1.7177 -2.1560
10120TIP3    H251852   3.177   6.258   5.826  0.2035  0.1334  0.2446
10121TIP3   OH251853   5.062   1.876  16.951  0.1307 -0.0466 -0.1888
10121TIP3    H151854   5.146   1.833  16.934  0.5800  1.4503 -1.9556
10121TIP3    H251855   4.996   1.807  16.938  0.9799 -0.8328 -0.3544
10122TIP3   OH251856   5.223   3.590   1.003  0.3453  0.5612 -0.5570
10122TIP3    H151857   5.131   3.594   0.979  0.1406 -1.7949 -0.2471
10122TIP3    H251858   5.269   3.622   0.925 -0.6914  0.8265 -1.0663
10123TIP3   OH251859   2.341   0.115   3.259  0.1799  0.5043 -0.6882
10123TIP3    H151860   2.293   0.167   3.324  2.0502  1.4731 -0.0205
10123TIP3    H251861   2.304   0.028   3.265 -0.1177  0.7322  1.2712
10124TIP3   OH251862   6.035   0.683  16.141 -0.1866  0.6615  0.0804
10124TIP3    H151863   6.003   0.757  16.089 -0.3981  0.4269 -0.1256
10124TIP3    H251864   6.122   0.709  16.170 -0.5289  1.2769  0.5780
10125TIP3   OH251865   4.852   6.613   1.219  0.2003  0.1338 -0.0530
10125TIP3    H151866   4.894   6.658   1.146  2.1565  0.5055  1.2774
10125TIP3    H251867   4.875   6.521   1.206  0.3587  0.1702 -0.0341
10126TIP3   OH251868   5.043   2.155   0.654  0.1311  0.4899  0.4661
10126TIP3    H151869   5.036   2.249   0.675  1.0913  0.6909 -0.0726
10126TIP3    H251870   5.137   2.139   0.650 -0.0210 -0.6313  1.1100
10127TIP3   OH251871   6.638   0.795  17.242 -0.5216 -0.8174  0.3436
10127TIP3    H151872   6.546   0.802  17.267 -0.0275 -1.4641  2.4927
10127TIP3    H251873   6.660   0.880  17.204 -1.2523  0.4005  2.5632
10128TIP3   OH251874   6.729   3.258  11.657  0.3070 -0.0105 -0.1285
10128TIP3    H151875   6.733   3.225  11.747  1.0810 -3.8044 -1.4581
10128TIP3    H251876   6.818   3.287  11.638 -0.2476  2.4353  0.8576
10129TIP3   OH251877   0.986   3.107  11.583  0.1557  0.8956  0.4055
10129TIP3    H151878   0.904   3.136  11.622 -0.0173 -1.2522  1.7247
10129TIP3    H251879   0.989   3.152  11.498 -3.1814 -0.1822 -0.3779
10130TIP3   OH251880   4.230   4.454   4.443  0.1636  0.6175  0.5733
10130TIP3    H151881   4.147   4.421   4.476  1.0822 -1.4555  0.8660
10130TIP3    H251882   4.288   4.456   4.519  1.1906 -0.6134 -0.1579
10131TIP3   OH251883   2.424   5.443  13.523  0.6407  0.9402 -0.3032
10131TIP3    H151884   2.419   5.348  13.538  0.8610  0.8095 -1.0599
10131TIP3    H251885   2.415   5.481  13.610  1.1857  0.2026  0.0842
10132TIP3   OH251886   1.707   4.983   2.209  0.2973  0.2477 -0.8145
10132TIP3    H151887   1.766   4.934   2.267 -0.0076  0.7983 -0.0408
10132TIP3    H251888   1.621   4.947   2.226  0.0520  1.1426 -0.1474
10133TIP3   OH251889   6.774   6.774   1.033  0.8472 -0.2726 -0.2449
10133TIP3    H151890   6.816   6.853   0.999  2.0386 -0.5891  0.4756
10133TIP3    H251891   6.844   6.710   1.038  0.1576 -0.9820  0.4189
10134TIP3   OH251892   2.317   0.271  12.148  0.2348  0.4262 -0.4557
10134TIP3    H151893   2.320   0.188  12.101  3.0934  0.9161 -1.2600
10134TIP3    H251894   2.234   0.269  12.196 -0.6246 -2.0342 -1.9699
10135TIP3   OH251895   2.972   1.507  10.592  0.0449  0.5563 -0.8876
10135TIP3    H151896   2.899   1.561  10.621  0.9257  1.2814  0.0185
10135TIP3    H251897   3.035   1.568  10.554  0.9309  0.1496 -0.1023
10136TIP3   OH251898   2.648   2.429   4.546  0.5650  0.1069  0.0557
10136TIP3    H151899   2.694   2.359   4.499 -0.3974 -1.0155  0.7486
10136TIP3    H251900   2.602   2.478   4.478 -0.6339 -1.3603 -0.2272
10137TIP3   OH251901   1.114   6.454   5.655  0.5691  0.3613 -0.0057
10137TIP3    H151902   1.027   6.421   5.677  0.6133  0.1810 -0.0929
10137TIP3    H251903   1.098   6.524   5.592  0.4693  0.5602  0.2423
10138TIP3   OH251904   3.005   3.978   2.657  0.2699  0.2790 -0.6353
10138TIP3    H151905   3.087   3.928   2.656  0.6289  0.8195  0.5251
10138TIP3    H251906   2.940   3.919   2.620  0.3120 -1.6822  2.2701
10139TIP3   OH251907   0.080   4.418   4.850  0.3789  0.5850 -0.3918
10139TIP3    H151908   0.141   4.491   4.852  0.0627  0.8247  1.2912
10139TIP3    H251909   0.026   4.430   4.928  0.9199 -1.9392  0.4245
10140TIP3   OH251910   1.941   5.632  13.463 -0.2801 -0.6386 -0.1296
10140TIP3    H151911   1.900   5.592  13.540 -0.9653 -0.1492 -0.2294
10140TIP3    H251912   1.955   5.559  13.402 -0.8602 -0.8376 -0.0252
10141TIP3   OH251913   0.176   5.964  11.085  0.3340 -0.3054 -0.6499
10141TIP3    H151914   0.113   6.000  11.022  0.3207  1.6562  0.4543
10141TIP3    H251915   0.228   5.902  11.033 -0.1939  0.6660 -2.4114
10142TIP3   OH251916   4.710   0.939   5.676 -0.5592  0.3742 -0.0048
10142TIP3    H151917   4.759   0.861   5.649 -1.8846 -0.3072 -0.4897
10142TIP3    H251918   4.629   0.904   5.714 -1.4362  1.5417 -0.7814
10143TIP3   OH251919   1.323   1.662  11.727 -0.3332 -0.0891 -0.8948
10143TIP3    H151920   1.329   1.621  11.640  1.4239  0.4235 -1.0256
10143TIP3    H251921   1.366   1.747  11.716 -0.1211 -0.0165  0.4847
10144TIP3   OH251922   3.144   2.227  17.266 -0.5505  0.3124  0.0545
10144TIP3    H151923   3.060   2.239  17.223 -1.4025 -0.0980  1.5692
10144TIP3    H251924   3.160   2.133  17.262 -0.2576  0.3637 -0.0452
10145TIP3   OH251925   6.709   0.142  11.307 -0.3768  0.1210 -0.0105
10145TIP3    H151926   6.670   0.226  11.330 -2.7741 -0.7700 -0.5999
10145TIP3    H251927   6.710   0.093  11.389  1.0092  0.6933  0.3309
10146TIP3   OH251928   2.472   3.393   3.517  0.2293 -0.1566  0.0704
10146TIP3    H151929   2.414   3.365   3.588  0.5613 -0.2906  0.2937
10146TIP3    H251930   2.447   3.340   3.442  1.1649 -1.4002  0.6134
10147TIP3   OH251931   4.509   6.169  12.878 -0.5493 -0.1632  0.2277
10147TIP3    H151932   4.418   6.160  12.904 -0.4239 -0.4752  0.5521
10147TIP3    H251933   4.517   6.261  12.852 -0.8991 -0.0824  0.4050
10148TIP3   OH251934   4.527   5.564  17.147  0.3214 -0.0104  0.5779
10148TIP3    H151935   4.461   5.600  17.206  2.2148  1.3832  1.8855
10148TIP3    H251936   4.483   5.559  17.062 -1.5228  0.7070  1.4707
10149TIP3   OH251937   1.635   5.155   2.527 -0.4126 -0.0913  0.0473
10149TIP3    H151938   1.730   5.148   2.514 -0.5411 -0.7955 -0.6016
10149TIP3    H251939   1.610   5.232   2.477  0.2365  1.8933  2.6829
10150TIP3   OH251940   6.558   0.586   2.701  0.1595 -0.5842 -0.4703
10150TIP3    H151941   6.543   0.681   2.703  0.3286 -0.5787  2.5154
10150TIP3    H251942   6.477   0.550   2.667 -0.8028  0.5071  0.6007
10151TIP3   OH251943   2.255   1.788  14.905 -0.3913  0.2941  0.1074
10151TIP3    H151944   2.261   1.763  14.812  0.3586  0.0285  0.2223
10151TIP3    H251945   2.174   1.839  14.911 -0.2935  0.5639 -0.7530
10152TIP3   OH251946   1.924   2.805  11.119  0.2394 -0.8493 -0.1458
10152TIP3    H151947   1.871   2.835  11.045  0.2606 -1.9177 -0.5978
10152TIP3    H251948   2.008   2.781  11.080  0.0431 -1.9969  0.1369
10153TIP3   OH251949   5.759   5.646  13.405 -0.6506  0.0698  0.1652
10153TIP3    H151950   5.772   5.741  13.400  2.1071 -0.2622  0.4005
10153TIP3    H251951   5.836   5.609  13.363 -1.4957 -2.0872  0.4739
10154TIP3   OH251952   6.178   5.535   0.992  0.3471 -0.1385 -0.3394
10154TIP3    H151953   6.179   5.626   1.022  1.4485 -0.4689  0.6398
10154TIP3    H251954   6.243   5.491   1.046  2.2458 -0.7974 -3.0686
10155TIP3   OH251955   2.714   2.771  16.131  0.0561  0.2009  0.7244
10155TIP3    H151956   2.651   2.827  16.084  0.2041 -0.2832 -0.0674
10155TIP3    H251957   2.711   2.802  16.221  1.7666  2.9759 -0.1119
10156TIP3   OH251958   2.723   5.486   5.989 -0.0182 -0.5729 -0.4022
10156TIP3    H151959   2.705   5.568   5.941 -0.3632 -0.3323  0.1410
10156TIP3    H251960   2.638   5.459   6.023  0.0891 -1.1947 -0.6339
10157TIP3   OH251961   2.581   6.247  15.628  0.0545  0.1907 -0.0651
10157TIP3    H151962   2.489   6.261  15.605  0.2481 -0.2682 -1.1245
10157TIP3    H251963   2.620   6.334  15.627 -0.1563  0.2780 -0.5147
10158TIP3   OH251964   5.840   0.929   1.263 -0.0315  0.0400 -0.0753
10158TIP3    H151965   5.875   0.854   1.214 -0.7121  0.4957 -1.2839
10158TIP3    H251966   5.868   0.914   1.353  0.3198 -1.3812 -0.4076
10159TIP3   OH251967   1.758   6.127  16.026 -0.3706  0.2410  0.0570
10159TIP3    H151968   1.675   6.164  15.996 -0.7912 -1.0433 -0.3773
10159TIP3    H251969   1.824   6.185  15.988 -1.0350  0.8590 -0.1782
10160TIP3   OH251970   3.816   5.354   4.901 -0.0302 -0.4630 -0.0209
10160TIP3    H151971   3.741   5.305   4.935  0.7860 -1.2244  0.7129
10160TIP3    H251972   3.877   5.286   4.871  0.6702  0.1249  0.0518
10161TIP3   OH251973   4.436   6.011  13.803 -0.1245 -0.8396  0.4108
10161TIP3    H151974   4.426   5.957  13.724  0.7493  0.4397 -0.5965
10161TIP3    H251975   4.362   5.985  13.859 -1.6600 -0.6668 -1.4765
10162TIP3   OH251976   1.497   3.705   3.275  0.8427  0.5162  0.5128
10162TIP3    H151977   1.538   3.772   3.221 -0.2988  1.8495  1.2720
10162TIP3    H251978   1.403   3.715   3.260  0.7384 -2.2958 -0.9567
10163TIP3   OH251979   0.243   4.581  14.401 -0.1827 -0.4415 -0.1543
10163TIP3    H151980   0.243   4.646  14.471  1.7519 -0.1060 -0.4391
10163TIP3    H251981   0.308   4.516  14.429 -2.4159 -2.5229  0.3453
10164TIP3   OH251982   2.448   3.611  11.614  0.4438 -0.0874 -0.8768
10164TIP3    H151983   2.497   3.531  11.635 -0.1996 -0.1366  0.4684
10164TIP3    H251984   2.382   3.582  11.551  0.8192 -0.4243 -1.1215
10165TIP3   OH251985   2.412   2.536  17.231 -0.4731 -0.0208  0.2989
10165TIP3    H151986   2.408   2.443  17.254 -0.9565  0.3040  1.5361
10165TIP3    H251987   2.329   2.572  17.262 -0.3096  0.8262 -0.2207
10166TIP3   OH251988   4.324   3.268  12.101  0.6345 -0.2068 -0.2636
10166TIP3    H151989   4.346   3.359  12.079  0.5590  0.2949  1.6725
10166TIP3    H251990   4.397   3.238  12.156 -1.2703  0.0211  2.4686
10167TIP3   OH251991   1.100   0.678   1.903 -0.3565 -0.6011  0.0556
10167TIP3    H151992   1.010   0.645   1.894 -1.8102  2.8955  0.8393
10167TIP3    H251993   1.110   0.741   1.832  1.7893 -1.4626 -0.4550
10168TIP3   OH251994   3.297   4.066   1.271 -0.2942 -0.1597 -0.2129
10168TIP3    H151995   3.237   4.013   1.324  1.7568 -0.6894  1.6570
10168TIP3    H251996   3.269   4.156   1.287 -0.1128 -0.3565  1.2937
10169TIP3   OH251997   1.706   2.221   4.791  0.0544  0.3228 -0.0441
10169TIP3    H151998   1.623   2.196   4.750 -1.8717  0.4404  3.5976
10169TIP3    H251999   1.750   2.139   4.810 -0.6003  0.1599  0.7511
10170TIP3   OH252000   4.779   5.608  15.892 -0.1819  0.2258 -0.4286
10170TIP3    H152001   4.717   5.653  15.835 -0.6001  1.0952  0.6920
10170TIP3    H252002   4.846   5.574  15.833 -0.5355  1.2363 -1.4223
10171TIP3   OH252003   0.529   6.713  13.093 -0.0945  0.6928  0.0403
10171TIP3    H152004   0.587   6.675  13.159 -0.1846  1.3644  0.5135
10171TIP3    H252005   0.530   6.807  13.112 -0.3949  0.8476 -0.6989
10172TIP3   OH252006   1.884   0.258  11.872 -0.3967  0.9550  0.1930
10172TIP3    H152007   1.856   0.322  11.937 -3.2526 -0.1591  0.1189
10172TIP3    H252008   1.878   0.174  11.917  0.0952  0.4095 -0.7499
10173TIP3   OH252009   4.870   0.587  14.314 -0.3078  0.4113 -0.0045
10173TIP3    H152010   4.955   0.613  14.349  1.0361 -0.8607 -2.1608
10173TIP3    H252011   4.874   0.492  14.310 -1.5838  0.3737 -0.7329
10174TIP3   OH252012   1.430   4.178  14.855 -0.2093 -0.0255  0.0531
10174TIP3    H152013   1.519   4.144  14.867 -0.6832 -1.2611  0.1270
10174TIP3    H252014   1.442   4.270  14.833  1.1965 -0.6989 -2.1072
10175TIP3   OH252015   5.590   3.940  17.203 -0.4299  0.1358 -0.0637
10175TIP3    H152016   5.666   3.993  17.179 -0.7494  1.1381  1.0768
10175TIP3    H252017   5.519   3.974  17.148 -0.6222  0.8620  0.6296
10176TIP3   OH252018   2.080   5.739  11.238  0.1480 -0.0591  0.2972
10176TIP3    H152019   2.019   5.701  11.175  0.2116 -0.8177  0.6832
10176TIP3    H252020   2.061   5.833  11.236  0.2798 -0.0557 -0.9810
10177TIP3   OH252021   2.797   0.425   1.800 -0.7014 -0.0312  0.1672
10177TIP3    H152022   2.856   0.440   1.726 -2.8206  1.9640 -1.1946
10177TIP3    H252023   2.758   0.340   1.782 -1.9698  0.8977 -1.5906
10178TIP3   OH252024   1.570   6.304  12.129  0.4627  0.0675  0.0583
10178TIP3    H152025   1.546   6.396  12.136  0.3800  0.1728 -1.4124
10178TIP3    H252026   1.495   6.262  12.087  0.3956 -0.7275  0.9432
10179TIP3   OH252027   4.340   2.817  14.228 -0.0957  0.4047  0.0745
10179TIP3    H152028   4.284   2.893  14.216 -0.6730 -0.1041 -0.4823
10179TIP3    H252029   4.382   2.803  14.143 -0.4503 -0.2518  0.0016
10180TIP3   OH252030   2.038   4.978  14.603 -0.4688 -0.2200 -0.3008
10180TIP3    H152031   2.127   4.950  14.582 -0.5293 -2.1423  1.8994
10180TIP3    H252032   1.983   4.904  14.578 -1.1858 -0.0349  0.6929
10181TIP3   OH252033   5.825   5.966   4.762  0.0193 -0.3414 -0.3292
10181TIP3    H152034   5.823   5.919   4.845  0.4798 -0.0474 -0.1487
10181TIP3    H252035   5.835   5.898   4.696 -0.1224 -0.5596 -0.1258
10182TIP3   OH252036   5.316   1.362   1.626  0.2994  0.0936 -0.0130
10182TIP3    H152037   5.278   1.274   1.630  0.3942  0.1142  1.4093
10182TIP3    H252038   5.390   1.353   1.566  0.4779 -0.8556  0.3392
10183TIP3   OH252039   5.249   4.415  11.025 -0.1208 -0.7796 -0.4153
10183TIP3    H152040   5.179   4.472  10.992 -0.0410 -0.6786 -0.4084
10183TIP3    H252041   5.318   4.474  11.053 -0.9075 -0.7951  1.5939
10184TIP3   OH252042   4.126   0.577  12.359  0.9905  0.2217 -0.1638
10184TIP3    H152043   4.194   0.510  12.357  1.7118  0.9551 -0.2205
10184TIP3    H252044   4.172   0.660  12.343  0.2373  0.8329  0.7524
10185TIP3   OH252045   2.495   4.423   3.652 -0.1483 -0.5350 -0.6481
10185TIP3    H152046   2.586   4.399   3.640 -0.8426 -2.8009 -1.7192
10185TIP3    H252047   2.484   4.502   3.599  0.7104 -1.4222 -2.1963
10186TIP3   OH252048   3.911   2.414   1.996  0.1319  0.2264  0.2475
10186TIP3    H152049   3.854   2.367   2.057 -0.3200 -0.6688 -0.8440
10186TIP3    H252050   3.907   2.363   1.915  0.0304  1.8822 -0.8113
10187TIP3   OH252051   3.909   6.595   0.103 -0.2139 -0.1340 -0.3309
10187TIP3    H152052   3.981   6.618   0.163 -0.8639  0.3856  0.2541
10187TIP3    H252053   3.838   6.654   0.128 -0.2492  0.6220 -2.1229
10188TIP3   OH252054   1.901   0.030   6.411  0.1241  0.0282 -0.4686
10188TIP3    H152055   1.826   0.014   6.469  0.0386 -0.9726 -0.8351
10188TIP3    H252056   1.945  -0.055   6.406  0.3204  0.1902 -1.5968
10189TIP3   OH252057   0.469   6.269  15.090  0.1394  0.1355 -0.5036
10189TIP3    H152058   0.406   6.213  15.045  2.6351 -1.2635 -2.4200
10189TIP3    H252059   0.491   6.337  15.026  1.3648 -0.0151 -0.2551
10190TIP3   OH252060   2.848   3.327  12.498  0.1011 -0.7400  0.0357
10190TIP3    H152061   2.782   3.259  12.511 -1.5891  1.0819  1.3271
10190TIP3    H252062   2.896   3.331  12.581  0.3804 -0.5612 -0.1320
10191TIP3   OH252063   0.394   5.106  16.296 -0.2159 -1.0607 -0.8583
10191TIP3    H152064   0.476   5.125  16.342 -0.1885  0.0902 -1.3692
10191TIP3    H252065   0.380   5.012  16.309 -1.0494 -0.4830  2.8586
10192TIP3   OH252066   2.852   5.975   5.522 -0.2474  0.2914 -0.1593
10192TIP3    H152067   2.769   6.015   5.499  0.2409  0.3441 -1.9053
10192TIP3    H252068   2.838   5.881   5.510 -0.2826  0.2278  0.3377
10193TIP3   OH252069   5.962   2.762  15.589  0.0666 -0.6903  0.7762
10193TIP3    H152070   6.013   2.791  15.513  2.6278  0.6574  2.9087
10193TIP3    H252071   5.878   2.808  15.581  0.0365 -1.1262 -1.5836
10194TIP3   OH252072   1.098   2.457   0.699  0.8079  0.1527 -0.0373
10194TIP3    H152073   1.060   2.524   0.642  2.9129  1.1594 -0.3308
10194TIP3    H252074   1.179   2.431   0.655  1.0671 -1.0615  1.1166
10195TIP3   OH252075   5.237   2.508   2.695  0.0832  0.4180  0.2963
10195TIP3    H152076   5.204   2.522   2.606  0.5146 -4.7948 -0.8591
10195TIP3    H252077   5.324   2.471   2.682 -0.0188 -0.8067  2.8931
10196TIP3   OH252078   4.153   4.634   1.702 -0.2636  0.8564  0.2315
10196TIP3    H152079   4.098   4.556   1.707 -0.8888  1.0871 -2.3581
10196TIP3    H252080   4.239   4.602   1.674 -0.3353  1.0193 -0.1753
10197TIP3   OH252081   6.058   4.091  13.394 -0.0034  0.5641  0.6085
10197TIP3    H152082   6.075   4.051  13.479  1.1751 -0.1454  0.0543
10197TIP3    H252083   6.044   4.184  13.413 -1.0709  0.1910  1.7152
10198TIP3   OH252084   2.134   3.877   6.618  0.8626  0.2910 -0.1679
10198TIP3    H152085   2.139   3.818   6.693  2.9205  0.1525 -0.3987
10198TIP3    H252086   2.150   3.964   6.654  0.1867  0.4368 -0.2026
10199TIP3   OH252087   2.969   3.902  15.259 -0.4969 -0.0540  0.2800
10199TIP3    H152088   3.021   3.973  15.221 -0.3788 -0.6759 -0.7357
10199TIP3    H252089   2.910   3.876  15.189  1.0891 -2.5728 -0.1894
10200TIP3   OH252090   4.156   6.679  15.660 -0.0307 -0.2117  0.5657
10200TIP3    H152091   4.209   6.754  15.635  1.1381 -0.9846  0.6834
10200TIP3    H252092   4.209   6.603  15.636 -0.3264 -0.9814  2.2839
10201TIP3   OH252093   1.005   5.864  11.393 -0.2025  0.3906 -0.1709
10201TIP3    H152094   1.011   5.834  11.302  0.4124  1.4515 -0.4910
10201TIP3    H252095   1.095   5.886  11.417 -0.1359 -1.1953  1.1650
10202TIP3   OH252096   0.640   4.439  13.732 -0.4173  0.4767 -0.2733
10202TIP3    H152097   0.717   4.440  13.675 -0.9349  0.0185 -0.9871
10202TIP3    H252098   0.622   4.347  13.747  0.8589  0.5795  2.2354
10203TIP3   OH252099   5.342   0.714  11.799 -0.1782 -0.0950  0.4454
10203TIP3    H152100   5.255   0.751  11.787 -0.0782  0.8181  2.3856
10203TIP3    H252101   5.378   0.709  11.710 -2.5180 -1.3287 -0.5096
10204TIP3   OH252102   2.344   3.546  11.925 -0.2693 -0.0805 -0.1303
10204TIP3    H152103   2.302   3.561  11.840  1.5728  1.5990 -0.7911
10204TIP3    H252104   2.437   3.565  11.910  0.8779 -4.2309  1.1477
10205TIP3   OH252105   0.156   4.232  17.223  0.4296  0.2389  0.1817
10205TIP3    H152106   0.129   4.152  17.178 -1.5478  0.6159  0.6229
10205TIP3    H252107   0.152   4.209  17.316 -0.3003  0.8712  0.3169
10206TIP3   OH252108   5.911   0.708  12.700  0.4800 -0.4322 -0.5874
10206TIP3    H152109   5.897   0.648  12.628 -2.7761 -1.1202  0.5622
10206TIP3    H252110   5.864   0.788  12.675  1.6777  0.3291 -0.4517
10207TIP3   OH252111   2.313   3.766   2.687  0.3032 -0.6817  0.3952
10207TIP3    H152112   2.244   3.818   2.647 -0.0581  0.4026  2.4067
10207TIP3    H252113   2.270   3.686   2.717  0.1604 -0.5291  0.5910
10208TIP3   OH252114   0.480   0.881   0.232  0.0097  0.3243 -0.4005
10208TIP3    H152115   0.412   0.894   0.166 -1.1158 -1.1832  0.4205
10208TIP3    H252116   0.546   0.827   0.189 -0.6427 -0.5225 -0.3422
10209TIP3   OH252117   3.538   4.784  15.466 -0.4974  0.0410 -0.2097
10209TIP3    H152118   3.455   4.780  15.515  0.7477  1.6986  2.1705
10209TIP3    H252119   3.573   4.871  15.487  2.1739 -0.8971 -0.6065
10210TIP3   OH252120   0.419   1.301   3.778 -0.3399  0.0054  0.4390
10210TIP3    H152121   0.508   1.275   3.804 -0.3331  1.1502  1.5823
10210TIP3    H252122   0.394   1.236   3.712  1.9014  0.4854 -0.9635
10211TIP3   OH252123   1.886   5.340  11.178 -0.0082  0.0266  0.5870
10211TIP3    H152124   1.922   5.275  11.239 -2.7694  0.9771  3.3551
10211TIP3    H252125   1.811   5.297  11.138  1.4313 -0.3699 -1.8220
10212TIP3   OH252126   2.535   5.989  16.214  0.1784 -0.2683  0.0765
10212TIP3    H152127   2.579   5.936  16.148 -1.5006 -1.1393 -0.3675
10212TIP3    H252128   2.478   5.927  16.260 -0.0516  0.6944  1.1110
10213TIP3   OH252129   6.370   4.747   2.793  0.1106  0.1024  0.4410
10213TIP3    H152130   6.435   4.725   2.860  1.7875  1.3594 -0.7411
10213TIP3    H252131   6.395   4.693   2.718 -1.0343 -0.4089  0.4218
10214TIP3   OH252132   2.190   5.975   4.973 -0.2403  0.3656 -0.0505
10214TIP3    H152133   2.150   5.900   4.929  1.3831  0.1376 -1.1823
10214TIP3    H252134   2.116   6.030   4.998 -1.3408 -0.6843 -0.9241
10215TIP3   OH252135   1.953   3.129   5.366  0.6455 -0.4055 -0.2717
10215TIP3    H152136   1.979   3.220   5.350  1.1332 -0.1902  1.5747
10215TIP3    H252137   1.875   3.137   5.422  2.0331 -1.1139  1.8140
10216TIP3   OH252138   2.848   0.951  16.979  0.0752  0.4429 -0.4514
10216TIP3    H152139   2.862   1.045  16.969  0.2414  0.3626 -0.9805
10216TIP3    H252140   2.928   0.919  17.021 -0.8007  0.8477  1.5749
10217TIP3   OH252141   5.763   4.990  13.371  0.2182 -0.6418  0.0648
10217TIP3    H152142   5.794   4.995  13.281 -0.3019  0.4045 -0.0667
10217TIP3    H252143   5.831   4.942  13.417  0.9631 -0.3175 -0.6791
10218TIP3   OH252144   0.946   5.651   6.436  0.7042  0.5595  0.0329
10218TIP3    H152145   0.923   5.584   6.371  1.8885 -0.4154  0.6073
10218TIP3    H252146   0.904   5.621   6.517 -1.3763  2.1403 -0.3942
10219TIP3   OH252147   0.810   4.461  16.479 -0.3256 -0.0158  0.3155
10219TIP3    H152148   0.845   4.447  16.567 -0.2685  2.7652  0.7652
10219TIP3    H252149   0.715   4.462  16.492 -0.3373 -0.1693  0.2461
10220TIP3   OH252150   0.262   5.555  14.576 -0.1272 -0.6369  0.1964
10220TIP3    H152151   0.288   5.463  14.569 -0.6571 -0.7879  0.1902
10220TIP3    H252152   0.196   5.566  14.509 -0.0972 -0.2581  0.2285
10221TIP3   OH252153   4.111   2.973   0.325 -0.0128  0.1760 -0.9082
10221TIP3    H152154   4.060   3.054   0.322 -1.5378 -0.5832  2.4277
10221TIP3    H252155   4.149   2.972   0.413 -1.9471 -3.8182 -0.0075
10222TIP3   OH252156   4.413   5.456   0.921  0.6825  0.2796 -0.3466
10222TIP3    H152157   4.409   5.485   0.830 -2.0896  1.0465 -0.0441
10222TIP3    H252158   4.425   5.361   0.916 -0.9028  0.1148 -1.5667
10223TIP3   OH252159   4.116   5.289   4.092  0.0010 -0.0852  0.3341
10223TIP3    H152160   4.121   5.365   4.035  1.4741 -0.1434  0.3771
10223TIP3    H252161   4.089   5.217   4.034 -0.7640  0.3322  0.1707
10224TIP3   OH252162   0.057   3.640  12.502 -0.0015  0.1642  0.2411
10224TIP3    H152163   0.022   3.623  12.589  0.6878 -0.3300  0.4260
10224TIP3    H252164  -0.017   3.677  12.453 -1.0572 -1.7418  0.3372
10225TIP3   OH252165   0.066   0.080   0.050  0.3026 -0.1150 -0.3022
10225TIP3    H152166   0.126   0.153   0.031 -1.2807  1.1457 -0.5423
10225TIP3    H252167   0.020   0.065  -0.033 -0.0561 -0.7550  0.0126
10226TIP3   OH252168   2.447   2.613   5.037 -0.3373  0.0810 -0.1606
10226TIP3    H152169   2.359   2.634   5.067 -0.5811 -0.8103 -0.2504
10226TIP3    H252170   2.435   2.553   4.964  0.3473 -0.4022  0.1124
10227TIP3   OH252171   3.234   0.085  15.112 -0.0130 -0.4569  0.1917
10227TIP3    H152172   3.227  -0.008  15.133  0.7625 -0.4870  0.3369
10227TIP3    H252173   3.324   0.108  15.134 -0.3935  0.4898  0.8133
10228TIP3   OH252174   0.202   4.790   0.091 -0.5151  0.1483  0.4157
10228TIP3    H152175   0.285   4.755   0.123 -0.8890  0.2545  1.5397
10228TIP3    H252176   0.147   4.713   0.077 -0.4770  0.1245  0.3963
10229TIP3   OH252177   4.833   3.776   4.167 -0.0020 -0.1633 -0.0942
10229TIP3    H152178   4.820   3.726   4.087 -0.5432  0.3779 -0.3485
10229TIP3    H252179   4.838   3.867   4.138 -0.1041  0.0263  0.4734
10230TIP3   OH252180   3.460   3.785  12.974 -0.3170 -0.3020 -0.4148
10230TIP3    H152181   3.383   3.789  13.030 -0.8935 -1.3073 -1.1257
10230TIP3    H252182   3.526   3.837  13.020 -1.3439  0.3678  0.3080
10231TIP3   OH252183   0.074   2.201  11.120 -0.3959 -0.0501  0.3183
10231TIP3    H152184   0.053   2.125  11.174 -0.1548  0.4752  1.1686
10231TIP3    H252185   0.137   2.251  11.172  2.5093 -1.2846 -1.9599
10232TIP3   OH252186   6.474   2.133   3.340  0.0978  0.0913 -0.1248
10232TIP3    H152187   6.387   2.092   3.339  0.5636 -0.9177  0.3958
10232TIP3    H252188   6.512   2.107   3.423  0.6558  1.0645 -0.0690
10233TIP3   OH252189   6.207   5.123  12.654  0.0340  0.1020 -0.3648
10233TIP3    H152190   6.246   5.038  12.633  0.1324 -0.1760  0.9078
10233TIP3    H252191   6.149   5.106  12.727 -1.4242  0.7844 -1.3402
10234TIP3   OH252192   0.788   0.075   6.062 -0.3703 -0.3997  0.4550
10234TIP3    H152193   0.728   0.081   6.137 -0.5170 -0.7613  0.3691
10234TIP3    H252194   0.771  -0.012   6.025  0.5784 -0.7078  0.7404
10235TIP3   OH252195   4.784   6.254  15.046 -0.1086  0.8538  0.3979
10235TIP3    H152196   4.808   6.326  15.104  0.4389 -0.3300  1.6620
10235TIP3    H252197   4.855   6.192  15.054 -0.6923  0.0554 -0.5125
10236TIP3   OH252198   5.622   2.302  14.000 -0.5873  0.0953 -0.6443
10236TIP3    H152199   5.696   2.312  13.942 -2.2174 -0.5811 -2.9109
10236TIP3    H252200   5.554   2.260  13.947 -3.6540  3.3756  0.3985
10237TIP3   OH252201   6.263   4.675  11.856 -0.0519  0.0082  0.0001
10237TIP3    H152202   6.267   4.771  11.849 -1.8323  0.2992  2.2481
10237TIP3    H252203   6.177   4.653  11.820 -0.5505 -0.5050  1.4870
10238TIP3   OH252204   5.852   5.142   4.926 -0.2461  0.4120 -0.1165
10238TIP3    H152205   5.874   5.136   5.019 -0.6601 -1.0617 -0.0930
10238TIP3    H252206   5.834   5.052   4.900 -1.2502  0.9520 -1.3547
10239TIP3   OH252207   6.232   1.187  12.378 -0.2636 -0.3913  0.4549
10239TIP3    H152208   6.177   1.161  12.304 -0.0418  1.5369 -0.4218
10239TIP3    H252209   6.311   1.222  12.339 -0.3673  1.1624  1.5816
10240TIP3   OH252210   6.202   1.760   2.381  0.2407 -0.1076 -0.0718
10240TIP3    H152211   6.151   1.686   2.347  1.0906 -0.6072 -0.2528
10240TIP3    H252212   6.174   1.834   2.328 -0.5228 -0.3181  0.0231
10241TIP3   OH252213   3.683   0.643   1.167 -0.1340  0.4543  0.2226
10241TIP3    H152214   3.658   0.626   1.258 -0.3238  2.1658  0.5175
10241TIP3    H252215   3.733   0.566   1.140 -0.6003 -0.3353  1.5814
10242TIP3   OH252216   6.003   1.684   5.595  0.7312  0.2326  0.2158
10242TIP3    H152217   5.987   1.616   5.530  0.6118  0.3582  0.1120
10242TIP3    H252218   6.030   1.636   5.674  3.2567  0.2149 -0.6254
10243TIP3   OH252219   0.667   3.582   4.485 -0.4826 -0.1735 -0.4667
10243TIP3    H152220   0.617   3.601   4.406  0.6986  2.1798 -0.6938
10243TIP3    H252221   0.710   3.498   4.466 -0.7410  0.0270 -2.0472
10244TIP3   OH252222   3.373   0.295  14.246  0.2705 -0.5224  0.0934
10244TIP3    H152223   3.343   0.217  14.200 -0.8450 -0.9820  1.5946
10244TIP3    H252224   3.457   0.270  14.284  0.6510 -0.4964 -0.7142
10245TIP3   OH252225   0.795   4.874  15.359  0.1258 -0.0424 -0.9085
10245TIP3    H152226   0.710   4.918  15.365  0.9159  1.2275  2.2357
10245TIP3    H252227   0.821   4.883  15.267 -2.9240 -0.1251 -1.8360
10246TIP3   OH252228   4.808   1.042  11.876 -0.5370  0.4078 -0.2036
10246TIP3    H152229   4.776   1.069  11.790 -2.6070 -0.4303  0.2622
10246TIP3    H252230   4.775   0.952  11.887  0.1879  0.2930  1.2127
10247TIP3   OH252231   3.578   3.118   0.397 -0.2033  0.2451 -0.1194
10247TIP3    H152232   3.574   3.207   0.362  3.5036  0.7115  0.4900
10247TIP3    H252233   3.595   3.062   0.321 -0.0048  0.3585 -0.1584
10248TIP3   OH252234   4.271   6.265   3.233 -0.0726 -0.0919  0.3208
10248TIP3    H152235   4.184   6.226   3.246 -0.2730  0.1428 -0.3063
10248TIP3    H252236   4.278   6.331   3.303 -0.3848 -0.1292  0.3876
10249TIP3   OH252237   0.707   2.845   3.365  0.0570 -0.8626  0.3346
10249TIP3    H152238   0.616   2.874   3.354 -0.0690 -1.7597 -1.1066
10249TIP3    H252239   0.704   2.782   3.437 -0.6716 -1.7740 -0.4790
10250TIP3   OH252240   6.695   0.411   1.946  0.0797  0.0895  0.3816
10250TIP3    H152241   6.791   0.407   1.940  0.1738 -0.0160  1.7539
10250TIP3    H252242   6.666   0.426   1.856  1.4401  1.1249  0.0912
10251TIP3   OH252243   3.373   4.150  15.579 -0.1514 -0.2557  0.1256
10251TIP3    H152244   3.336   4.062  15.585 -0.7771  0.0741  1.4519
10251TIP3    H252245   3.322   4.201  15.643  0.9879  0.7769  0.2202
10252TIP3   OH252246   6.406   6.320   3.088 -0.3065 -0.6973  0.2860
10252TIP3    H152247   6.408   6.415   3.076 -3.2740 -0.5847  0.2154
10252TIP3    H252248   6.382   6.286   3.002  1.6081 -1.6014  0.0885
10253TIP3   OH252249   2.278   3.868  16.609 -0.2309 -0.5932  0.2104
10253TIP3    H152250   2.210   3.915  16.559 -0.1869 -3.0721 -2.2960
10253TIP3    H252251   2.231   3.797  16.652  0.2255 -0.1893  1.3956
10254TIP3   OH252252   2.145   4.405   3.001  0.6854 -0.1260 -0.5479
10254TIP3    H152253   2.231   4.378   3.033 -0.2001  0.0009  2.1276
10254TIP3    H252254   2.156   4.496   2.974  1.2372  0.1271  0.4970
10255TIP3   OH252255   3.306   0.234   4.996 -0.4956 -0.2920  0.4006
10255TIP3    H152256   3.324   0.196   4.910 -3.0439 -3.3350  1.1180
10255TIP3    H252257   3.344   0.172   5.058 -1.2917  0.3141  1.5113
10256TIP3   OH252258   5.968   3.988  12.269  0.3264 -0.9185  0.1813
10256TIP3    H152259   5.953   4.062  12.209  3.7935 -0.0517  0.2409
10256TIP3    H252260   5.946   3.911  12.218 -2.0570  0.0577 -0.3447
10257TIP3   OH252261   5.808   5.965  12.417 -0.2849 -0.0866  0.2432
10257TIP3    H152262   5.838   5.986  12.505  1.3616 -0.1391 -0.2877
10257TIP3    H252263   5.811   6.048  12.369  0.5913 -0.4076 -0.2621
10258TIP3   OH252264   3.379   3.204   4.741  0.0709 -0.3771  0.7190
10258TIP3    H152265   3.380   3.132   4.804 -2.5132 -1.3213 -0.2623
10258TIP3    H252266   3.448   3.181   4.678  0.8585 -0.7712  1.6942
10259TIP3   OH252267   3.443   1.517   1.930 -0.2650 -0.1370  0.4875
10259TIP3    H152268   3.488   1.513   1.845 -2.0812 -0.4767 -0.4905
10259TIP3    H252269   3.504   1.477   1.991  1.3845  0.7607 -0.5086
10260TIP3   OH252270   5.750   5.728   1.472 -0.1082 -0.1940 -0.4912
10260TIP3    H152271   5.793   5.719   1.386 -0.0848 -1.1220 -0.3932
10260TIP3    H252272   5.776   5.649   1.519 -0.5547  0.0610  0.1817
10261TIP3   OH252273   0.984   0.904   1.713  0.1626 -0.5413 -0.3244
10261TIP3    H152274   1.045   0.950   1.772  0.6115 -0.7669 -0.6146
10261TIP3    H252275   0.904   0.893   1.766  0.4075 -0.3409  0.0920
10262TIP3   OH252276   2.087   4.993   2.309  0.1529 -0.6793 -0.1177
10262TIP3    H152277   2.042   5.045   2.242  0.2414  0.3731  0.6391
10262TIP3    H252278   2.171   5.036   2.321  0.8641 -1.8983 -0.5860
10263TIP3   OH252279   5.314   3.642  10.904  0.2538 -0.2084  0.2588
10263TIP3    H152280   5.221   3.662  10.913 -0.2630 -1.7599 -1.4976
10263TIP3    H252281   5.324   3.555  10.941  1.1924  0.3100  1.2687
10264TIP3   OH252282   5.082   4.478   1.048 -0.1514  0.1337 -0.0057
10264TIP3    H152283   5.028   4.445   0.975  0.6869  1.5751 -1.2986
10264TIP3    H252284   5.143   4.407   1.065 -1.2631 -0.7813  0.2346
10265TIP3   OH252285   2.853   0.400  11.774  0.0821 -0.0644 -0.1228
10265TIP3    H152286   2.938   0.371  11.740 -0.7789 -0.2159 -2.1548
10265TIP3    H252287   2.841   0.487  11.737 -0.8561 -0.2145 -0.1762
10266TIP3   OH252288   4.157   0.088   0.415  0.1350  0.6924 -0.7765
10266TIP3    H152289   4.070   0.060   0.386 -0.1563  1.4823 -0.6601
10266TIP3    H252290   4.144   0.175   0.453  1.1095  1.1815 -1.5228
10267TIP3   OH252291   5.863   5.700   0.566  0.0015 -0.6736  0.6375
10267TIP3    H152292   5.798   5.727   0.631 -0.3230  1.3081 -0.4679
10267TIP3    H252293   5.892   5.782   0.525  0.2925 -1.8634 -1.6208
10268TIP3   OH252294   6.399   2.601   2.552 -0.4729  0.1277 -0.8409
10268TIP3    H152295   6.415   2.508   2.570  0.1734  0.4520  0.2751
10268TIP3    H252296   6.341   2.629   2.622  1.0045  1.0836  0.0103
10269TIP3   OH252297   1.175   4.258  14.663  0.2772 -0.0404 -0.4308
10269TIP3    H152298   1.250   4.266  14.722  1.2980  0.2427 -1.7529
10269TIP3    H252299   1.212   4.267  14.575 -1.2759 -0.1275 -1.1100
10270TIP3   OH252300   2.463   0.323  14.437 -0.2344 -0.6061  0.3638
10270TIP3    H152301   2.470   0.406  14.390 -2.0827 -1.3266 -1.2628
10270TIP3    H252302   2.549   0.311  14.479  0.1453  1.9529  0.3897
10271TIP3   OH252303   4.387   0.465   3.973  0.5114 -0.0992  0.0322
10271TIP3    H152304   4.358   0.375   3.990  0.5783 -0.0858  0.2195
10271TIP3    H252305   4.306   0.514   3.959  0.5039 -0.3094 -0.6562
10272TIP3   OH252306   5.144   5.661  12.076 -0.0735  0.2001 -0.0905
10272TIP3    H152307   5.171   5.714  12.151  0.4323 -0.5145  0.2282
10272TIP3    H252308   5.220   5.661  12.018 -0.0866 -0.1538 -0.1059
10273TIP3   OH252309   5.607   4.596   5.437 -0.3073 -0.4091  0.2176
10273TIP3    H152310   5.671   4.526   5.427 -1.1710 -1.3203  1.0343
10273TIP3    H252311   5.597   4.632   5.349  1.3777 -0.1929  0.0907
10274TIP3   OH252312   6.743   1.591  10.598 -0.2235 -0.1204  0.3165
10274TIP3    H152313   6.832   1.625  10.589  0.1875 -1.7552 -2.1853
10274TIP3    H252314   6.754   1.497  10.609 -1.6151 -0.2397  0.7576
10275TIP3   OH252315   0.855   6.140  16.773  0.3525 -0.5319 -0.0886
10275TIP3    H152316   0.872   6.060  16.822  2.7207 -0.1386 -0.2191
10275TIP3    H252317   0.921   6.141  16.704  2.1180  2.8466  1.5286
10276TIP3   OH252318   3.889   1.724   2.369  0.3233 -0.0286 -0.0466
10276TIP3    H152319   3.794   1.728   2.355  0.4967 -1.0486 -1.5952
10276TIP3    H252320   3.927   1.746   2.285  1.4590 -0.4128  0.3552
10277TIP3   OH252321   2.405   3.088  11.490  0.3252  0.3106  0.2213
10277TIP3    H152322   2.412   3.164  11.433 -1.4670  0.9530  0.8448
10277TIP3    H252323   2.398   3.014  11.429 -0.3024  0.8689 -0.3975
10278TIP3   OH252324   5.780   3.284  14.068 -0.0546 -0.5480 -0.5216
10278TIP3    H152325   5.773   3.298  13.973 -1.0302 -2.6401 -0.7804
10278TIP3    H252326   5.855   3.225  14.078 -0.2715 -0.7379 -0.0345
10279TIP3   OH252327   5.819   5.323   3.820 -0.0896  0.0447  0.4758
10279TIP3    H152328   5.781   5.375   3.890 -1.5500  0.8813 -0.9190
10279TIP3    H252329   5.744   5.286   3.774  0.8845 -1.3881  0.0210
10280TIP3   OH252330   0.488   0.322   5.346 -0.4081  0.3766  0.0534
10280TIP3    H152331   0.395   0.313   5.326 -0.1777 -1.2047 -0.3251
10280TIP3    H252332   0.530   0.251   5.297  1.4247  3.3077 -2.8298
10281TIP3   OH252333   2.208   5.027  14.320  0.2462 -0.0856 -0.5035
10281TIP3    H152334   2.196   5.117  14.288  0.3710  0.7174  1.5929
10281TIP3    H252335   2.222   4.975  14.241  0.8653  1.8561 -1.7126
10282TIP3   OH252336   6.675   3.425   3.822  0.0963  0.0394  0.2020
10282TIP3    H152337   6.597   3.428   3.876 -1.4919  0.1477 -2.0363
10282TIP3    H252338   6.686   3.516   3.791 -0.7308 -0.5644 -1.9787
10283TIP3   OH252339   1.421   3.975  13.683  0.1409  0.3347  0.1984
10283TIP3    H152340   1.341   4.020  13.710 -0.7843 -0.5687 -1.0069
10283TIP3    H252341   1.454   4.027  13.610  1.0551  1.1012  1.1291
10284TIP3   OH252342   2.243   5.171   3.939 -0.0590 -0.3838 -0.2098
10284TIP3    H152343   2.317   5.216   3.981  1.6895 -0.3713 -3.1673
10284TIP3    H252344   2.260   5.078   3.955  2.1201 -0.5635 -3.0898
10285TIP3   OH252345   5.420   5.801   3.623  0.3470  0.6344 -0.2721
10285TIP3    H152346   5.372   5.825   3.702 -0.1323  2.0172 -0.9757
10285TIP3    H252347   5.497   5.754   3.656 -0.9763 -0.7821  0.9012
10286TIP3   OH252348   3.599   3.492  13.886  0.4848 -0.3588 -0.2862
10286TIP3    H152349   3.578   3.585  13.878 -0.3419 -0.4821  0.3821
10286TIP3    H252350   3.664   3.476  13.818  0.0489  0.5359 -0.9215
10287TIP3   OH252351   3.515   0.744  11.917  0.2590  0.4922 -0.1809
10287TIP3    H152352   3.497   0.724  11.825  2.9313 -0.7664 -0.4875
10287TIP3    H252353   3.486   0.666  11.965  1.1033  0.1473 -0.2287
10288TIP3   OH252354   6.418   4.918   5.535 -0.2192 -0.0727 -0.3979
10288TIP3    H152355   6.489   4.866   5.573 -0.6927 -0.1118  0.4600
10288TIP3    H252356   6.442   5.009   5.555 -1.1413 -0.1624  1.2246
10289TIP3   OH252357   1.358   2.517  13.485  0.2853 -0.4331  0.8450
10289TIP3    H152358   1.303   2.566  13.547  2.0560  2.0617  0.5496
10289TIP3    H252359   1.396   2.446  13.537 -0.5371 -0.1097  1.8989
10290TIP3   OH252360   1.852   0.221  15.156 -0.1270  0.1226  0.1910
10290TIP3    H152361   1.908   0.178  15.220 -1.5032 -1.4939  0.3412
10290TIP3    H252362   1.838   0.309  15.191  1.2579  0.1152  0.7805
10291TIP3   OH252363   1.172   5.232  14.898  0.0044 -0.2699 -0.3782
10291TIP3    H152364   1.241   5.287  14.936  0.0377  0.0719 -0.9320
10291TIP3    H252365   1.099   5.291  14.883 -0.6578 -0.7692  0.8406
10292TIP3   OH252366   4.418   3.941  16.478  0.0303 -0.2983 -0.2146
10292TIP3    H152367   4.448   3.958  16.389 -0.0142 -2.4029 -0.6736
10292TIP3    H252368   4.325   3.922  16.469  0.4901 -2.8432 -0.0930
10293TIP3   OH252369   3.973   1.467   0.709 -0.1927  0.3905 -0.4171
10293TIP3    H152370   3.882   1.490   0.689  0.1851  1.1017 -1.3271
10293TIP3    H252371   4.005   1.424   0.630  0.4615  0.7225 -0.3337
10294TIP3   OH252372   4.498   4.951   1.924 -0.6249  0.4221 -0.2237
10294TIP3    H152373   4.546   4.872   1.899 -0.7008  0.6595 -1.1204
10294TIP3    H252374   4.411   4.939   1.886 -1.0337  0.3730  0.7022
10295TIP3   OH252375   3.081   3.266  13.191  0.1316 -0.2220 -0.1187
10295TIP3    H152376   3.019   3.241  13.260 -1.0870 -0.9073 -1.4297
10295TIP3    H252377   3.055   3.213  13.116  1.8903 -0.0005 -0.8981
10296TIP3   OH252378   2.530   6.750   6.011 -0.0818  0.2973 -0.0589
10296TIP3    H152379   2.435   6.752   6.000  0.3079  2.5209 -3.3976
10296TIP3    H252380   2.550   6.830   6.059  0.1882 -0.0442  0.4099
10297TIP3   OH252381   5.541   1.907   1.959  0.1663  0.1812  0.4751
10297TIP3    H152382   5.572   1.990   1.922  0.4216 -0.3090 -0.4461
10297TIP3    H252383   5.519   1.927   2.050 -0.3537  1.4021  0.0963
10298TIP3   OH252384   1.378   0.144   4.098 -0.4014  0.2941  0.1206
10298TIP3    H152385   1.384   0.179   4.187  0.6678 -0.3262  0.2946
10298TIP3    H252386   1.467   0.145   4.065 -0.5905 -0.7855 -0.4438
10299TIP3   OH252387   6.488   4.773  13.121 -0.3535  0.1621 -0.1117
10299TIP3    H152388   6.420   4.754  13.056 -1.4912  1.1291  0.7640
10299TIP3    H252389   6.552   4.827  13.075 -1.2261  0.9602 -0.4047
10300TIP3   OH252390   0.386   3.431   0.213 -0.0125 -0.4462 -0.9234
10300TIP3    H152391   0.368   3.486   0.137 -0.1632 -0.2150 -0.7216
10300TIP3    H252392   0.356   3.483   0.288  0.7149 -0.4209 -0.6534
10301TIP3   OH252393   6.428   3.692  13.330  0.3834 -0.2595 -0.3525
10301TIP3    H152394   6.425   3.626  13.260 -0.1440  0.3608 -0.9285
10301TIP3    H252395   6.349   3.745  13.316 -0.5367 -1.0583  1.6492
10302TIP3   OH252396   3.852   3.292   2.465 -0.1500 -0.1032  0.2599
10302TIP3    H152397   3.767   3.249   2.454  0.3788 -0.4733 -2.9186
10302TIP3    H252398   3.898   3.276   2.382  2.5470  1.1428  1.4478
10303TIP3   OH252399   4.966   0.226  17.148 -0.4951 -0.1318 -0.1941
10303TIP3    H152400   4.900   0.264  17.089 -1.2524 -0.3686  0.5008
10303TIP3    H252401   4.955   0.132  17.138  0.7492 -0.1892 -1.1992
10304TIP3   OH252402   0.620   2.464   2.431  0.1086 -0.1696  0.4644
10304TIP3    H152403   0.693   2.490   2.488  0.6270 -0.4999 -0.0420
10304TIP3    H252404   0.624   2.526   2.358 -0.2508 -0.0541  0.5438
10305TIP3   OH252405   2.209   3.758   5.814 -0.1214  0.1324 -0.4625
10305TIP3    H152406   2.298   3.731   5.838 -0.4449 -0.2511  0.3137
10305TIP3    H252407   2.153   3.714   5.877 -1.1748 -2.6222 -3.1820
10306TIP3   OH252408   4.773   3.347  14.921 -0.4096 -0.7795  0.8061
10306TIP3    H152409   4.806   3.390  14.842 -0.7421  1.1677  1.7110
10306TIP3    H252410   4.847   3.295  14.952  0.6014  0.5547  0.6915
10307TIP3   OH252411   4.593   1.758   1.903 -0.2559 -0.3267  0.0280
10307TIP3    H152412   4.576   1.775   1.996  0.6677 -0.8142  0.2945
10307TIP3    H252413   4.647   1.832   1.874  0.8017 -0.9783  0.2956
10308TIP3   OH252414   4.248   3.363  14.173 -0.0662 -0.1152 -0.4154
10308TIP3    H152415   4.221   3.455  14.180  0.1181 -0.0576 -0.4674
10308TIP3    H252416   4.203   3.319  14.245  0.3221  0.1215 -0.0321
10309TIP3   OH252417   2.841   1.389   3.477  0.0529  0.5877  0.3761
10309TIP3    H152418   2.916   1.364   3.531  0.4441 -0.6779 -0.7361
10309TIP3    H252419   2.779   1.317   3.487  0.3129  0.1354 -1.2024
10310TIP3   OH252420   2.949   4.240   2.323 -0.0524 -0.3501 -0.8241
10310TIP3    H152421   2.947   4.146   2.305  2.0000 -0.5593 -0.0193
10310TIP3    H252422   2.953   4.281   2.237  0.1157 -1.0279 -1.1427
10311TIP3   OH252423   0.081   4.382   0.221 -0.4944 -0.2388  0.9277
10311TIP3    H152424   0.147   4.403   0.288 -0.4415 -1.1202  1.1525
10311TIP3    H252425   0.105   4.295   0.190  0.8372  1.0655 -1.8885
10312TIP3   OH252426   6.497   4.174   2.453 -0.0261  0.4389  0.0258
10312TIP3    H152427   6.490   4.243   2.388 -1.7455 -0.7652 -1.1072
10312TIP3    H252428   6.591   4.158   2.462  0.2357  0.5614 -2.2480
10313TIP3   OH252429   4.431   4.600  11.858  0.0021 -0.2425 -0.1628
10313TIP3    H152430   4.350   4.550  11.846  0.0841 -1.3733  3.3806
10313TIP3    H252431   4.501   4.534  11.852  0.6137  0.5853 -2.3307
10314TIP3   OH252432   2.585   3.935   2.921  0.5325 -0.0594 -0.3038
10314TIP3    H152433   2.496   3.963   2.941 -0.3096 -1.9076 -1.4141
10314TIP3    H252434   2.607   3.979   2.839  0.4667 -0.0273 -0.3035
10315TIP3   OH252435   5.429   4.273  15.557  0.0545  1.1105 -0.1222
10315TIP3    H152436   5.344   4.289  15.516  1.3910  2.0261 -2.6977
10315TIP3    H252437   5.483   4.236  15.486  1.8731  0.8263  1.3752
10316TIP3   OH252438   3.979   5.412   0.781  0.1066 -0.1581 -0.1556
10316TIP3    H152439   3.887   5.399   0.805  0.4944 -0.0701  1.4881
10316TIP3    H252440   4.008   5.328   0.746  0.5771 -1.5922  3.4525
10317TIP3   OH252441   6.807   4.019   5.334 -0.5573 -0.4146 -0.1444
10317TIP3    H152442   6.832   3.957   5.403 -0.8890  0.8154  1.1100
10317TIP3    H252443   6.820   4.106   5.374 -2.6133  0.2982 -0.9673
10318TIP3   OH252444   4.305   4.120   6.138  0.4410 -0.2709 -0.3371
10318TIP3    H152445   4.367   4.138   6.209 -0.1124 -1.7220  0.5239
10318TIP3    H252446   4.241   4.191   6.144 -0.1631 -0.9312  1.2631
10319TIP3   OH252447   1.071   5.001   3.123 -0.0398 -0.3408  0.3871
10319TIP3    H152448   1.072   4.969   3.214 -2.4752  0.2032  0.6390
10319TIP3    H252449   1.006   4.946   3.079 -0.2870  0.6645 -0.5238
10320TIP3   OH252450   1.840   0.968   4.729  0.9892  0.0079 -0.4221
10320TIP3    H152451   1.813   1.057   4.753  3.4252  0.4407  0.8353
10320TIP3    H252452   1.818   0.915   4.805  0.1002 -0.3609 -0.9331
10321TIP3   OH252453   2.004   2.362   3.289  0.3790 -0.2840  0.1837
10321TIP3    H152454   2.029   2.394   3.202  0.4710 -2.2960 -0.5775
10321TIP3    H252455   1.918   2.322   3.275  0.8706 -1.5793  0.7760
10322TIP3   OH252456   4.092   3.739  12.255  0.0393  0.3473  0.4648
10322TIP3    H152457   4.112   3.774  12.342  1.0109 -0.1155  0.4327
10322TIP3    H252458   4.047   3.811  12.210  0.5173  0.9692  0.9732
10323TIP3   OH252459   2.500   5.573   0.419  0.0644 -0.6529  0.1035
10323TIP3    H152460   2.506   5.638   0.349 -2.1812  0.9512  1.3162
10323TIP3    H252461   2.563   5.603   0.485  1.7021 -1.7980 -0.9056
10324TIP3   OH252462   0.933   3.974   6.223  0.2856  0.4522 -0.0336
10324TIP3    H152463   0.953   4.018   6.140  1.5326 -0.5155 -0.2708
10324TIP3    H252464   1.001   3.908   6.231  0.1945  0.5660  1.8003
10325TIP3   OH252465   4.450   5.710   1.351  0.5495 -0.1780  0.1798
10325TIP3    H152466   4.371   5.764   1.356 -1.4495 -3.0043  0.3813
10325TIP3    H252467   4.440   5.660   1.270  1.4666 -1.5376  0.8805
10326TIP3   OH252468   3.289   5.172   2.661  0.1629 -0.3020 -0.6475
10326TIP3    H152469   3.351   5.100   2.643 -0.3277 -0.6771 -0.8506
10326TIP3    H252470   3.316   5.205   2.747  0.4699 -0.6500 -0.6061
10327TIP3   OH252471   4.213   1.584  15.275  0.6159 -0.5133 -0.2000
10327TIP3    H152472   4.160   1.606  15.199  0.2478  0.1906  0.2597
10327TIP3    H252473   4.189   1.649  15.341  2.2653  0.0112 -0.0928
10328TIP3   OH252474   0.974   3.920  12.577  0.4852 -0.4081 -1.0480
10328TIP3    H152475   0.882   3.941  12.589 -0.2253 -2.3204 -2.9301
10328TIP3    H252476   1.015   3.941  12.661 -1.4358  1.5396 -0.5694
10329TIP3   OH252477   6.733   2.733   3.636 -0.4460  0.3338 -0.8211
10329TIP3    H152478   6.740   2.778   3.721  0.0809  0.3688 -0.8811
10329TIP3    H252479   6.758   2.799   3.572  1.3797 -0.3426 -0.8316
10330TIP3   OH252480   5.815   4.249  14.819  0.7758  0.0034  0.2160
10330TIP3    H152481   5.764   4.178  14.779  2.4450 -1.7207  1.0690
10330TIP3    H252482   5.785   4.251  14.910 -0.3665  1.4466 -0.1767
10331TIP3   OH252483   1.497   4.255  13.960 -0.0328  0.3053  0.1236
10331TIP3    H152484   1.526   4.343  13.935 -0.2335  0.4712  0.4704
10331TIP3    H252485   1.451   4.221  13.883  1.3612 -0.0884 -0.5643
10332TIP3   OH252486   3.196   6.060   4.928 -0.2277  0.3632 -0.3932
10332TIP3    H152487   3.262   6.068   4.859 -0.1563  1.8953 -0.1697
10332TIP3    H252488   3.244   6.028   5.004  0.5440  2.7276  0.1488
10333TIP3   OH252489   6.195   6.509   1.684  0.0369 -0.3292 -0.1407
10333TIP3    H152490   6.229   6.438   1.738  1.1886 -0.3883 -0.9374
10333TIP3    H252491   6.238   6.587   1.717 -1.8445  0.1484  1.2779
10334TIP3   OH252492   4.028   3.766  14.656 -0.1639 -0.4094 -0.5896
10334TIP3    H152493   4.106   3.768  14.600  0.5758  0.4264  0.4421
10334TIP3    H252494   3.955   3.757  14.596  0.7409 -1.2492 -1.5751
10335TIP3   OH252495   3.462   5.080  15.374  0.7210 -0.2846  0.6313
10335TIP3    H152496   3.506   5.075  15.458 -0.6160 -0.7976  1.3171
10335TIP3    H252497   3.434   5.172  15.366  1.4140 -0.0832  0.4323
10336TIP3   OH252498   4.203   4.357   5.308 -0.0226 -0.2424  0.2336
10336TIP3    H152499   4.187   4.269   5.273 -1.5258  0.5134 -1.0138
10336TIP3    H252500   4.123   4.405   5.290  1.3922  1.8927 -0.6149
10337TIP3   OH252501   0.249   1.747  15.898  0.3603 -0.9005 -0.2081
10337TIP3    H152502   0.247   1.777  15.808  0.5840 -2.2594 -0.6889
10337TIP3    H252503   0.161   1.713  15.914  0.6075 -1.5797 -0.2535
10338TIP3   OH252504   5.186   2.571  10.988 -0.2642  0.2690  0.2093
10338TIP3    H152505   5.178   2.586  10.893 -0.0130  0.9760  0.2951
10338TIP3    H252506   5.268   2.521  10.997 -1.2791 -1.4768 -0.1088
10339TIP3   OH252507   2.816   2.820   3.135  0.4060  0.0750  0.1349
10339TIP3    H152508   2.772   2.755   3.080 -0.7030  0.4289  0.5986
10339TIP3    H252509   2.838   2.772   3.215 -1.9627  0.6759  1.1955
10340TIP3   OH252510   0.243   6.428   2.924 -0.2789 -0.5009  0.6655
10340TIP3    H152511   0.273   6.434   2.833  0.2515 -2.1242  0.7231
10340TIP3    H252512   0.288   6.352   2.959  0.2757  0.6950  2.5932
10341TIP3   OH252513   5.038   0.763  16.191 -0.2638  1.2333  0.2681
10341TIP3    H152514   5.004   0.686  16.235 -2.8832  1.9698 -0.3509
10341TIP3    H252515   5.100   0.801  16.253 -0.8009 -0.0012  1.5942
10342TIP3   OH252516   0.598   5.586   5.666  0.3560 -0.2886 -0.3260
10342TIP3    H152517   0.564   5.571   5.755  1.6880  0.8985  0.4077
10342TIP3    H252518   0.665   5.519   5.654  0.0438 -0.5697 -0.5227
10343TIP3   OH252519   4.734   4.602  12.315  0.4269  0.0136  0.0601
10343TIP3    H152520   4.710   4.684  12.271 -0.5701  0.0585  0.6766
10343TIP3    H252521   4.817   4.622  12.359 -0.2816  0.9790  0.9718
10344TIP3   OH252522   5.478   6.027  13.784 -0.7395 -0.1027 -0.4740
10344TIP3    H152523   5.410   6.015  13.718 -0.1495 -1.0623 -0.9319
10344TIP3    H252524   5.506   6.118  13.775 -0.0495 -0.4768 -2.1439
10345TIP3   OH252525   1.145   2.392  12.298  0.6890  0.1538  0.2619
10345TIP3    H152526   1.207   2.349  12.358 -1.1746 -2.2077  0.5695
10345TIP3    H252527   1.059   2.375  12.336 -0.2054  3.5320 -0.0716
10346TIP3   OH252528   3.304   6.387   0.565 -0.4933  0.5131 -0.1089
10346TIP3    H152529   3.274   6.460   0.512 -2.5371 -1.3510 -1.6148
10346TIP3    H252530   3.344   6.327   0.502 -1.4759 -0.9948  0.6837
10347TIP3   OH252531   5.246   0.579  14.722 -0.4611  0.0269  0.4859
10347TIP3    H152532   5.221   0.668  14.697  1.0578  0.2069 -0.4127
10347TIP3    H252533   5.241   0.529  14.640  0.9366 -0.1933  0.5230
10348TIP3   OH252534   3.788   4.228  13.649  0.0653  0.1665 -0.7438
10348TIP3    H152535   3.704   4.198  13.682  0.2948  0.0925 -0.2249
10348TIP3    H252536   3.800   4.314  13.689  0.4550 -0.0293 -0.4339
10349TIP3   OH252537   2.949   6.597   2.676 -0.3722  0.6016  0.5715
10349TIP3    H152538   2.881   6.534   2.652 -0.3914  1.0971 -0.7637
10349TIP3    H252539   3.030   6.559   2.641 -0.3588  1.2066 -0.0879
10350TIP3   OH252540   3.175   3.591  11.148 -0.1665 -0.4212  0.4907
10350TIP3    H152541   3.258   3.569  11.190  0.3270 -1.5175 -1.0559
10350TIP3    H252542   3.198   3.651  11.078 -0.7023 -0.5846  0.1711
10351TIP3   OH252543   0.430   4.618   0.196  0.5230 -0.6057 -0.2015
10351TIP3    H152544   0.473   4.682   0.253 -0.5706 -1.8871  2.1200
10351TIP3    H252545   0.374   4.567   0.254 -2.1456 -0.7060 -2.7287
10352TIP3   OH252546   0.141   3.486  17.042  0.4870  0.2661  0.2299
10352TIP3    H152547   0.052   3.455  17.059  0.2757  1.3332  1.1880
10352TIP3    H252548   0.130   3.554  16.976  0.5556  0.5463  0.5024
10353TIP3   OH252549   2.490   5.122   1.688 -0.1876  0.2326  0.8604
10353TIP3    H152550   2.572   5.169   1.705 -0.1969  0.2321  0.9055
10353TIP3    H252551   2.421   5.183   1.714 -0.1679 -0.6403  3.0742
10354TIP3   OH252552   1.670   4.338  11.767  0.7310 -0.3786  0.3613
10354TIP3    H152553   1.745   4.392  11.795 -0.2674  0.6856  1.0610
10354TIP3    H252554   1.665   4.268  11.832  0.5742  0.0741  0.8444
10355TIP3   OH252555   2.164   6.055   0.529  0.0978 -0.0224  0.4264
10355TIP3    H152556   2.174   6.128   0.591 -0.5241  0.3559  0.0942
10355TIP3    H252557   2.072   6.059   0.503  0.0866 -0.8771  0.3392
10356TIP3   OH252558   0.965   2.215   1.582  0.3427  0.4520 -0.3814
10356TIP3    H152559   0.999   2.244   1.667  0.8530 -1.6632  0.1719
10356TIP3    H252560   1.028   2.248   1.518  0.9950  0.4312  0.2428
10357TIP3   OH252561   0.519   1.196   4.602  0.1106 -0.0860 -0.3647
10357TIP3    H152562   0.572   1.120   4.624 -2.2868 -1.6773  0.0810
10357TIP3    H252563   0.431   1.174   4.633 -0.3914  3.3468  0.8343
10358TIP3   OH252564   2.789   1.997   3.891  0.1756 -0.0988  0.0165
10358TIP3    H152565   2.836   2.038   3.819  0.0153  0.0334 -0.0130
10358TIP3    H252566   2.708   1.965   3.853  0.2012 -0.2503  0.0856
10359TIP3   OH252567   3.504   6.395  11.946  0.8436  0.1403 -0.1213
10359TIP3    H152568   3.430   6.408  11.886 -0.3736 -2.6854  0.6659
10359TIP3    H252569   3.463   6.381  12.031  2.5513  3.9267  1.4393
10360TIP3   OH252570   5.959   0.767   0.673 -0.5774 -0.2017 -0.2436
10360TIP3    H152571   6.054   0.765   0.663 -0.5020 -0.0517  0.4260
10360TIP3    H252572   5.938   0.860   0.684 -0.8679 -0.1749 -0.9920
10361TIP3   OH252573   1.415   0.457   1.929  0.1845  0.6089 -0.1600
10361TIP3    H152574   1.426   0.370   1.968 -1.0121  0.2204 -0.6704
10361TIP3    H252575   1.366   0.507   1.994  0.7304  0.8617  0.0639
10362TIP3   OH252576   0.993   4.082   0.143 -0.6167 -0.4059  1.2448
10362TIP3    H152577   1.020   3.993   0.124 -0.4818 -0.4066  1.4452
10362TIP3    H252578   1.065   4.119   0.193 -0.7037 -0.2061  1.2242
10363TIP3   OH252579   6.772   4.804  14.207  0.5137  0.0239 -0.0615
10363TIP3    H152580   6.855   4.755  14.205  1.0244  0.8676 -0.0288
10363TIP3    H252581   6.783   4.872  14.141  0.6608  1.4099  1.3340
10364TIP3   OH252582   5.163   5.173   3.135  0.6589  0.4820  0.1383
10364TIP3    H152583   5.145   5.267   3.128 -0.7759  0.0639 -2.1337
10364TIP3    H252584   5.168   5.157   3.229  0.9627  2.8413  0.5594
10365TIP3   OH252585   2.479   5.430   5.285 -0.1196 -0.3623  0.7079
10365TIP3    H152586   2.418   5.419   5.358  0.7128 -1.0180  1.3080
10365TIP3    H252587   2.424   5.422   5.207 -0.6113 -2.3473  1.2153
10366TIP3   OH252588   3.982   6.539   3.489 -0.3647  0.3536 -0.3865
10366TIP3    H152589   3.963   6.613   3.547  1.0124  0.6381 -0.2871
10366TIP3    H252590   3.926   6.469   3.521  0.3803  0.4943  1.3158
10367TIP3   OH252591   1.813   1.995  16.213 -0.1399 -0.2086  0.2565
10367TIP3    H152592   1.907   2.012  16.225  0.0752 -0.5453 -0.9545
10367TIP3    H252593   1.780   2.073  16.168 -0.5738  0.1724  1.2000
10368TIP3   OH252594   6.773   2.363  15.553 -0.2310  0.8427 -0.8220
10368TIP3    H152595   6.691   2.401  15.583 -0.2773  0.4363 -0.4273
10368TIP3    H252596   6.836   2.435  15.555 -0.6484  1.2219 -1.4021
10369TIP3   OH252597   5.791   3.946   6.728  0.2375  1.1488 -0.4141
10369TIP3    H152598   5.777   3.995   6.647  1.8369  0.1831 -1.3128
10369TIP3    H252599   5.752   3.860   6.711 -0.2377  1.2445  0.1820
10370TIP3   OH252600   5.747   2.374  15.384  0.4530 -0.4607  0.1548
10370TIP3    H152601   5.798   2.297  15.357  0.7467 -0.5439  0.9305
10370TIP3    H252602   5.657   2.352  15.364  0.6891 -0.4324 -0.9649
10371TIP3   OH252603   6.275   3.516  15.155  0.4082 -0.2337  0.0936
10371TIP3    H152604   6.267   3.575  15.080 -1.3593 -0.1468  0.3273
10371TIP3    H252605   6.346   3.456  15.131 -0.1557 -0.2356 -1.6632
10372TIP3   OH252606   2.309   1.107  15.560  0.1971  0.2249 -0.2787
10372TIP3    H152607   2.315   1.012  15.569 -0.2451  0.2443  0.2795
10372TIP3    H252608   2.397   1.139  15.581  0.2891 -0.0480 -0.2495
10373TIP3   OH252609   4.918   2.102   0.972 -0.0658 -0.8660 -0.3395
10373TIP3    H152610   4.856   2.051   0.919 -3.1373  0.3158  1.9635
10373TIP3    H252611   4.937   2.179   0.918  0.9296 -2.1377 -1.8531
10374TIP3   OH252612   2.327   0.411  13.805 -0.2081 -0.5212  0.1222
10374TIP3    H152613   2.246   0.370  13.774  0.2525 -0.1364 -1.6487
10374TIP3    H252614   2.315   0.504  13.790 -0.3094 -0.2276  1.9400
10375TIP3   OH252615   4.259   6.711   4.958 -0.5297 -0.4753  0.5633
10375TIP3    H152616   4.251   6.806   4.962  1.8895 -0.1116 -1.6985
10375TIP3    H252617   4.230   6.680   5.043  0.0620  2.4032  1.8526
10376TIP3   OH252618   4.790   0.886   4.731 -0.0858 -0.3779  0.2153
10376TIP3    H152619   4.769   0.879   4.824 -0.0774 -1.6110  0.1334
10376TIP3    H252620   4.712   0.855   4.686 -0.6821  1.7118 -0.2390
10377TIP3   OH252621   6.782   4.923  15.754 -0.0213  0.1719  0.5571
10377TIP3    H152622   6.863   4.887  15.717  0.0946  1.1334 -0.1443
10377TIP3    H252623   6.734   4.846  15.785  1.4573 -0.3529  1.5837
10378TIP3   OH252624   5.601   4.591   2.486  0.0349 -0.1004 -0.8386
10378TIP3    H152625   5.543   4.637   2.426 -1.2764  0.2179  0.6367
10378TIP3    H252626   5.623   4.510   2.441 -0.5946  0.3292 -1.9256
10379TIP3   OH252627   6.210   5.261   0.814  0.2280  0.5238 -0.4693
10379TIP3    H152628   6.264   5.223   0.745 -2.2418 -2.9237 -0.6280
10379TIP3    H252629   6.240   5.219   0.894 -0.7733  0.2184 -0.2532
10380TIP3   OH252630   3.654   6.083   0.971 -0.9106 -0.2813  0.4052
10380TIP3    H152631   3.584   6.066   1.034  0.3941 -0.6679  1.7881
10380TIP3    H252632   3.724   6.023   0.997  0.7406  1.5888  0.3647
10381TIP3   OH252633   3.693   2.967  13.426 -0.0345 -0.6176  0.1480
10381TIP3    H152634   3.764   2.995  13.484 -1.0428 -0.9964  1.5835
10381TIP3    H252635   3.661   3.048  13.387 -0.5880 -0.1323  1.5658
10382TIP3   OH252636   0.494   4.526   5.642 -0.1059  0.3664  0.0758
10382TIP3    H152637   0.497   4.432   5.663  0.9560  0.3556 -0.0869
10382TIP3    H252638   0.415   4.536   5.588  0.0990 -0.5493 -0.4123
10383TIP3   OH252639   2.527   4.446  17.271 -0.1218  0.0982 -0.1989
10383TIP3    H152640   2.572   4.488  17.344  0.3466  0.0923 -0.4826
10383TIP3    H252641   2.591   4.385  17.235 -0.1639  0.5023 -0.9624
10384TIP3   OH252642   2.645   3.791  11.530  0.5401  0.0377 -0.4555
10384TIP3    H152643   2.626   3.821  11.441  1.1029 -1.6028 -1.1496
10384TIP3    H252644   2.570   3.738  11.555  1.3478 -1.2828 -0.7917
10385TIP3   OH252645   6.328   2.547  15.793 -0.9008  0.8263 -0.1908
10385TIP3    H152646   6.309   2.595  15.713 -0.5100  2.2321  0.5564
10385TIP3    H252647   6.345   2.614  15.859 -0.7840 -0.3178  0.9724
10386TIP3   OH252648   2.475   6.195   3.935 -0.3817  0.1336  0.6415
10386TIP3    H152649   2.402   6.141   3.905 -0.3171 -0.0566  0.8311
10386TIP3    H252650   2.476   6.184   4.030 -0.0195  0.0314  0.6249
10387TIP3   OH252651   3.382   6.753  16.723 -0.1914 -0.0725 -0.3821
10387TIP3    H152652   3.433   6.802  16.658 -0.5276  0.8523  0.0416
10387TIP3    H252653   3.367   6.668  16.682 -2.0523  1.1323 -2.3346
10388TIP3   OH252654   2.997   5.505  11.670  0.0149  0.1058  0.1356
10388TIP3    H152655   2.926   5.565  11.693 -0.8614 -0.4509 -1.0490
10388TIP3    H252656   3.031   5.538  11.588 -0.7473 -1.2354 -0.7432
10389TIP3   OH252657   3.743   5.698   6.327 -0.1867 -0.2295  0.7271
10389TIP3    H152658   3.650   5.682   6.340 -0.2524 -0.4950 -0.0111
10389TIP3    H252659   3.766   5.766   6.390 -1.4195  1.5746 -0.7317
10390TIP3   OH252660   3.146   2.404  10.995 -0.0274 -0.3008 -0.1061
10390TIP3    H152661   3.175   2.316  10.970 -0.1477 -0.4136  0.1454
10390TIP3    H252662   3.202   2.463  10.945  0.1380 -0.5207 -0.1820
10391TIP3   OH252663   1.362   5.981   4.909  0.0297 -0.3433 -0.2354
10391TIP3    H152664   1.338   6.026   4.990  0.5700 -1.0783  0.3540
10391TIP3    H252665   1.457   5.994   4.901 -0.1875  0.5992 -1.3075
10392TIP3   OH252666   4.222   2.654   1.667 -0.1892 -0.2314  0.4159
10392TIP3    H152667   4.144   2.599   1.671 -0.6958  0.5099  1.0973
10392TIP3    H252668   4.291   2.597   1.634 -1.1355 -0.7707 -0.6582
10393TIP3   OH252669   0.771   5.257  12.521 -0.6929 -0.2935  0.0410
10393TIP3    H152670   0.718   5.318  12.469  0.3464  1.5986  1.1672
10393TIP3    H252671   0.826   5.213  12.457 -0.1829  1.2450 -0.6017
10394TIP3   OH252672   1.834   0.859  12.882  0.8565  0.0775  0.2707
10394TIP3    H152673   1.823   0.929  12.818 -0.4805  0.5836  1.0407
10394TIP3    H252674   1.927   0.839  12.879  1.1971  1.6359 -0.2255
10395TIP3   OH252675   0.460   0.399  14.264  0.3370  0.1431 -0.8491
10395TIP3    H152676   0.421   0.335  14.204 -0.5833  1.0902 -1.2790
10395TIP3    H252677   0.551   0.408  14.233  0.6827 -1.4405 -0.3670
10396TIP3   OH252678   2.531   5.342  14.571 -0.3640  0.0669 -0.0655
10396TIP3    H152679   2.512   5.363  14.480  0.8674  0.1872 -0.2977
10396TIP3    H252680   2.626   5.350  14.579 -0.4685  0.1963  1.2588
10397TIP3   OH252681   4.445   3.473  16.473 -0.3180  0.3728  0.0948
10397TIP3    H152682   4.472   3.565  16.473  0.3732  0.1660  0.6845
10397TIP3    H252683   4.515   3.427  16.518 -0.3813 -0.5331 -0.7252
10398TIP3   OH252684   2.352   4.669  14.608  0.1450  0.1846 -0.3437
10398TIP3    H152685   2.287   4.632  14.548 -0.1157  1.5030 -0.9093
10398TIP3    H252686   2.363   4.759  14.577 -0.4760  1.0874  1.9855
10399TIP3   OH252687   2.009   5.686  16.490  0.3582 -0.1638 -0.1177
10399TIP3    H152688   1.965   5.656  16.410 -0.5777 -0.9109  0.6644
10399TIP3    H252689   1.982   5.777  16.499  0.6263 -0.0178 -0.7610
10400TIP3   OH252690   1.663   1.932  12.674 -0.1796  0.5463 -0.0956
10400TIP3    H152691   1.703   1.912  12.589 -0.3401 -0.4308  0.0495
10400TIP3    H252692   1.586   1.983  12.653  0.4771  1.4038 -0.4552
10401TIP3   OH252693   5.376   5.363   0.661  0.1590  0.1181  0.2761
10401TIP3    H152694   5.305   5.336   0.719  1.7151 -1.1775  1.6052
10401TIP3    H252695   5.351   5.327   0.575 -2.4802  2.6193 -0.0918
10402TIP3   OH252696   6.732   1.992  13.743 -0.3575 -0.0364 -0.3887
10402TIP3    H152697   6.775   2.011  13.660  0.6167  0.7817  0.2976
10402TIP3    H252698   6.661   2.057  13.748 -0.0619  0.2772 -0.3059
10403TIP3   OH252699   3.986   0.592   0.928 -0.0811  0.0664 -0.5369
10403TIP3    H152700   3.984   0.577   0.834 -1.1716  2.2703 -0.8979
10403TIP3    H252701   4.017   0.682   0.938  1.2627 -0.5614  1.2765
10404TIP3   OH252702   3.015   4.137   2.909  0.4336 -0.3887 -0.1886
10404TIP3    H152703   3.006   4.060   2.854 -0.8746  0.4377 -1.1439
10404TIP3    H252704   3.035   4.209   2.848  0.9280  0.1703  0.6142
10405TIP3   OH252705   3.218   2.162  16.951 -0.0579 -0.4505  0.4994
10405TIP3    H152706   3.125   2.164  16.973 -0.1864 -1.4455  0.0514
10405TIP3    H252707   3.255   2.235  17.000 -1.3949  1.1710 -0.8498
10406TIP3   OH252708   2.949   4.741  16.129  0.4769  0.4621 -0.9850
10406TIP3    H152709   3.031   4.718  16.086  0.4583 -0.7151 -0.4185
10406TIP3    H252710   2.903   4.657  16.139 -0.8352  1.1174 -1.3822
10407TIP3   OH252711   3.607   5.417   2.436 -0.8237  0.2740 -0.1649
10407TIP3    H152712   3.643   5.478   2.501 -1.6778  0.7928 -0.1768
10407TIP3    H252713   3.601   5.468   2.355  1.0921 -0.6286 -0.9009
10408TIP3   OH252714   4.801   2.811  12.380  0.6050  0.2843  0.5231
10408TIP3    H152715   4.827   2.900  12.406  2.2455  0.2266 -0.7713
10408TIP3    H252716   4.738   2.825  12.309  1.5904  0.4282 -0.3356
10409TIP3   OH252717   6.358   6.729  11.533 -0.2305  0.4476 -0.0730
10409TIP3    H152718   6.452   6.744  11.534  0.1461 -1.6597  1.8730
10409TIP3    H252719   6.347   6.648  11.482 -1.0366  0.8752 -0.6005
10410TIP3   OH252720   1.955   1.624  13.444  0.5849 -0.2547 -0.4239
10410TIP3    H152721   2.034   1.585  13.481  0.8562  0.4083 -0.2928
10410TIP3    H252722   1.921   1.558  13.384  0.7604 -0.8864  0.1735
10411TIP3   OH252723   4.292   1.758   5.370 -0.0459  0.0867 -0.0083
10411TIP3    H152724   4.386   1.777   5.371 -0.0133  0.0320 -1.3340
10411TIP3    H252725   4.251   1.838   5.402  0.4844 -0.0617  1.0392
10412TIP3   OH252726   1.367   1.691  14.266 -0.1654  0.0293  0.0525
10412TIP3    H152727   1.390   1.715  14.176 -1.5538  0.6712 -0.1424
10412TIP3    H252728   1.370   1.595  14.266  1.2894  0.0603 -0.2774
10413TIP3   OH252729   2.777   5.992   1.802  0.0300 -0.6652  0.2568
10413TIP3    H152730   2.775   5.903   1.839 -0.8732 -1.1269 -0.8774
10413TIP3    H252731   2.728   5.985   1.721  2.7569  0.1410 -1.5204
10414TIP3   OH252732   5.720   1.354   5.468  0.1368  0.0166  0.4310
10414TIP3    H152733   5.709   1.288   5.400  1.3750 -0.9858  1.2018
10414TIP3    H252734   5.702   1.308   5.550 -0.5052  1.0138  0.8628
10415TIP3   OH252735   4.501   1.642  14.589 -0.3715 -0.0662  0.4481
10415TIP3    H152736   4.489   1.632  14.494  1.9138  2.3197 -0.1539
10415TIP3    H252737   4.577   1.700  14.597  0.3359 -1.3559  3.7683
10416TIP3   OH252738   4.295   3.152  12.764  0.3709  0.0970 -0.0249
10416TIP3    H152739   4.306   3.085  12.697  0.4810 -0.0282  0.1179
10416TIP3    H252740   4.222   3.122  12.817  0.6384 -0.0820  0.2456
10417TIP3   OH252741   3.007   5.508   3.965 -0.3882 -0.3604 -0.7592
10417TIP3    H152742   2.974   5.437   3.910 -0.5424 -0.3528 -0.6751
10417TIP3    H252743   3.093   5.476   3.995 -0.9557 -0.9921  0.2021
10418TIP3   OH252744   6.470   2.066  13.604  0.2791 -0.1817  0.2285
10418TIP3    H152745   6.443   2.153  13.634  0.2665  0.5415 -1.8576
10418TIP3    H252746   6.403   2.041  13.540  0.1305 -1.8562  1.0122
10419TIP3   OH252747   0.907   2.816   1.173 -0.5782 -0.4361 -0.0476
10419TIP3    H152748   0.832   2.756   1.180 -2.3855  1.8909  1.4429
10419TIP3    H252749   0.915   2.832   1.079 -5.1262  2.9945 -0.0400
10420TIP3   OH252750   2.065   3.586  13.084 -0.1875 -0.3160  0.1148
10420TIP3    H152751   1.987   3.548  13.045  0.3657 -0.3034 -1.0494
10420TIP3    H252752   2.038   3.672  13.115 -1.0556 -1.0216  1.2958
10421TIP3   OH252753   5.493   2.217   5.624 -0.0210 -0.5651  0.1366
10421TIP3    H152754   5.448   2.191   5.704 -0.9641 -1.0725 -0.5574
10421TIP3    H252755   5.484   2.142   5.566  1.1952 -0.4386 -0.2309
10422TIP3   OH252756   3.265   1.936  13.290  0.2050 -0.1391  0.8584
10422TIP3    H152757   3.259   1.947  13.384 -0.5901 -2.4184  1.1074
10422TIP3    H252758   3.251   2.023  13.254 -2.1587  0.3029  2.7531
10423TIP3   OH252759   0.684   2.348  13.082 -0.2090 -0.1669  0.0700
10423TIP3    H152760   0.620   2.415  13.106  1.3236  0.6768  1.9312
10423TIP3    H252761   0.666   2.275  13.142  0.0282 -0.2628  0.0267
10424TIP3   OH252762   0.546   5.679  13.536 -0.7733 -0.2077 -1.0129
10424TIP3    H152763   0.591   5.756  13.571 -2.3713  0.6663 -0.8222
10424TIP3    H252764   0.522   5.703  13.447 -0.5779 -0.7817 -1.2209
10425TIP3   OH252765   1.025   3.776   1.610  0.6735  0.1853  0.3846
10425TIP3    H152766   1.034   3.860   1.655  1.3679  0.0963  0.4108
10425TIP3    H252767   1.097   3.722   1.643 -0.0275 -0.5803  0.7015
10426TIP3   OH252768   1.762   1.467   3.440  0.0829 -0.2340 -0.4016
10426TIP3    H152769   1.812   1.548   3.455  0.9940 -0.7376 -0.6596
10426TIP3    H252770   1.819   1.414   3.384 -0.6539 -0.9174 -0.5122
10427TIP3   OH252771   2.602   5.034   6.002 -0.3368  0.1517  0.2540
10427TIP3    H152772   2.667   5.085   5.952 -0.5508 -0.0833 -0.2636
10427TIP3    H252773   2.551   5.101   6.048 -1.5657  0.5219 -1.5676
10428TIP3   OH252774   1.828   4.663  10.578 -0.0118 -0.0629 -0.2822
10428TIP3    H152775   1.890   4.635  10.645 -0.4248  0.9666  0.5457
10428TIP3    H252776   1.813   4.585  10.525  0.9448 -0.6735  0.3313
10429TIP3   OH252777   4.010   0.690  12.621  0.0401  0.5623  0.2394
10429TIP3    H152778   4.020   0.635  12.543  0.1430 -0.2080  0.7870
10429TIP3    H252779   3.992   0.777  12.586 -1.8869 -0.1519 -0.6231
10430TIP3   OH252780   3.418   0.273   5.757 -0.0504 -0.3755 -0.4573
10430TIP3    H152781   3.381   0.318   5.833 -0.0335  0.2263 -0.8028
10430TIP3    H252782   3.506   0.247   5.786 -0.1975 -0.5102 -0.1316
10431TIP3   OH252783   3.445   2.146   2.919 -0.2882 -0.1837 -0.2084
10431TIP3    H152784   3.353   2.164   2.939 -0.2699 -0.3610  0.0395
10431TIP3    H252785   3.455   2.052   2.931 -0.7278 -0.6164 -2.9162
10432TIP3   OH252786   2.997   5.688  10.753  0.1801  0.2649 -0.2650
10432TIP3    H152787   3.078   5.699  10.703 -0.4185  0.4661 -1.2054
10432TIP3    H252788   2.943   5.631  10.698  0.0728 -0.7018  0.8234
10433TIP3   OH252789   5.149   0.510   4.337  0.0193  0.1714  0.4925
10433TIP3    H152790   5.084   0.466   4.283  0.3824  0.7854 -0.4635
10433TIP3    H252791   5.125   0.603   4.333  0.3456  0.2772  0.9649
10434TIP3   OH252792   2.800   1.854   5.512 -0.1899  0.2896 -0.4413
10434TIP3    H152793   2.833   1.772   5.550 -1.2842  0.0684  0.0307
10434TIP3    H252794   2.830   1.922   5.572 -2.9900 -0.1625  1.5785
10435TIP3   OH252795   4.034   5.066   3.943  0.4439 -0.2807  0.2292
10435TIP3    H152796   3.956   5.035   3.897 -0.8109  1.6369  1.0096
10435TIP3    H252797   4.073   4.987   3.979 -2.2868 -1.0658  1.5719
10436TIP3   OH252798   2.758   5.957   0.520  0.0167  0.0047  0.4996
10436TIP3    H152799   2.826   6.013   0.558 -0.1479  0.7354 -0.2760
10436TIP3    H252800   2.679   6.011   0.519  0.1429  0.2108 -1.3691
10437TIP3   OH252801   2.281   0.461   2.219 -0.0567 -0.2781 -0.2559
10437TIP3    H152802   2.377   0.470   2.222 -0.1203  1.3190 -2.3016
10437TIP3    H252803   2.265   0.411   2.139 -0.9254 -0.9240  0.3169
10438TIP3   OH252804   0.075   2.395   4.612 -0.3358 -0.1381 -0.1768
10438TIP3    H152805   0.133   2.456   4.567 -0.7437 -0.3094 -0.9367
10438TIP3    H252806   0.042   2.444   4.687  1.1748 -0.1973  0.5480
10439TIP3   OH252807   1.392   2.273   5.951  0.1749 -0.5887 -0.6009
10439TIP3    H152808   1.403   2.231   6.036  1.6829 -0.6862 -0.8304
10439TIP3    H252809   1.482   2.287   5.919 -0.3660 -0.1378 -1.9660
10440TIP3   OH252810   3.964   3.170   2.934  0.2302  0.2256 -0.1076
10440TIP3    H152811   3.997   3.260   2.928  0.6671  0.1086  0.4260
10440TIP3    H252812   3.912   3.158   2.855  0.3449  0.8793 -0.2877
10441TIP3   OH252813   4.687   1.142   4.617 -0.0689 -0.5652 -0.5186
10441TIP3    H152814   4.755   1.091   4.660 -0.2624 -1.0013 -0.7338
10441TIP3    H252815   4.620   1.153   4.685 -0.5286 -1.5433 -0.8050
10442TIP3   OH252816   0.012   4.907   2.415  0.6023  0.2976 -0.2108
10442TIP3    H152817  -0.069   4.957   2.405  0.4260  0.0063 -0.2356
10442TIP3    H252818   0.050   4.939   2.496 -0.5639 -1.0083  0.8775
10443TIP3   OH252819   2.643   3.070  16.105 -0.4736  0.2570  0.4343
10443TIP3    H152820   2.728   3.078  16.062 -0.0632  0.3948  1.2594
10443TIP3    H252821   2.593   3.146  16.075 -0.2014  0.3457  0.2026
10444TIP3   OH252822   2.678   6.667   0.720 -1.1226  0.0139  0.0280
10444TIP3    H152823   2.678   6.572   0.711 -0.2766 -0.1928  2.0602
10444TIP3    H252824   2.693   6.700   0.631 -1.3760 -1.7371 -0.6728
10445TIP3   OH252825   0.510   3.178   2.589  0.1072 -0.7431 -0.6637
10445TIP3    H152826   0.553   3.262   2.572 -1.9908  0.8467  1.5949
10445TIP3    H252827   0.579   3.122   2.624  0.8951  1.0058  0.6600
10446TIP3   OH252828   5.826   1.143   2.353 -0.1712 -0.0613 -0.5427
10446TIP3    H152829   5.810   1.204   2.281  1.0670  0.4718 -0.3662
10446TIP3    H252830   5.914   1.109   2.337 -0.9973 -2.1243 -0.8644
10447TIP3   OH252831   5.110   6.344  15.147  0.5035  0.0997 -0.3902
10447TIP3    H152832   5.160   6.265  15.170  0.9853  0.5685  0.2121
10447TIP3    H252833   5.140   6.367  15.059  1.2746  0.3114 -0.0780
10448TIP3   OH252834   1.694   1.922   5.130  0.4549 -0.5232  0.0420
10448TIP3    H152835   1.625   1.889   5.188  0.2275  0.3424  0.2663
10448TIP3    H252836   1.649   1.944   5.048  0.4685  0.0237  0.1813
10449TIP3   OH252837   5.759   2.977  14.899 -0.3418  0.0171  0.2402
10449TIP3    H152838   5.839   2.937  14.932 -0.0323 -0.2116 -0.7692
10449TIP3    H252839   5.713   3.008  14.977  0.1775 -0.8870  0.9081
10450TIP3   OH252840   6.670   0.591   3.498 -0.1116 -0.4020 -0.1023
10450TIP3    H152841   6.753   0.615   3.539 -0.3572 -0.5467  0.4837
10450TIP3    H252842   6.616   0.559   3.570 -0.6390 -0.4116 -0.4981
10451TIP3   OH252843   3.284   0.674  11.724 -0.3217 -0.4167 -0.0695
10451TIP3    H152844   3.221   0.604  11.741  0.3644 -1.0224 -0.0148
10451TIP3    H252845   3.246   0.751  11.766 -1.2877 -0.6509 -0.4841
10452TIP3   OH252846   0.581   6.330  16.019  0.6979  0.4244  0.0999
10452TIP3    H152847   0.619   6.244  16.001 -0.7525 -0.0233 -0.9342
10452TIP3    H252848   0.652   6.392  16.000  0.3957 -0.2598 -3.7957
10453TIP3   OH252849   5.035   1.879   3.123 -0.6812 -0.0001 -0.3495
10453TIP3    H152850   4.987   1.940   3.067  0.0912 -0.4995 -1.5766
10453TIP3    H252851   5.125   1.885   3.092  0.0533  0.9047  1.9190
10454TIP3   OH252852   2.484   2.403   4.783 -0.5026  0.1795 -0.2426
10454TIP3    H152853   2.399   2.411   4.740 -0.8380 -0.4878  0.2807
10454TIP3    H252854   2.547   2.400   4.711 -1.0225 -0.5379 -0.6792
10455TIP3   OH252855   6.791   0.181  12.783 -0.4510  0.3833 -0.6468
10455TIP3    H152856   6.876   0.188  12.827 -0.6408 -1.2571  0.0069
10455TIP3    H252857   6.754   0.269  12.789  0.9660  0.9876 -0.4767
10456TIP3   OH252858   6.561   5.211  16.844  0.0779 -0.4569 -0.2315
10456TIP3    H152859   6.614   5.284  16.874 -1.4275  0.0290  1.3236
10456TIP3    H252860   6.594   5.135  16.892 -1.2987  0.0407  1.5589
10457TIP3   OH252861   4.964   5.064  12.301  0.6551  0.0568  0.0709
10457TIP3    H152862   4.917   5.087  12.221 -0.8862 -0.2798  0.8606
10457TIP3    H252863   5.051   5.103  12.290  0.2614  0.5164 -1.5007
10458TIP3   OH252864   4.739   1.237  16.367 -0.2312 -0.4476 -0.3636
10458TIP3    H152865   4.810   1.172  16.366  1.2363  1.1141 -0.2918
10458TIP3    H252866   4.762   1.296  16.439 -2.1552 -0.4951  0.3125
10459TIP3   OH252867   5.477   0.756   1.849 -0.5168  0.5006 -0.2046
10459TIP3    H152868   5.499   0.663   1.851 -1.5471  0.2584  0.2036
10459TIP3    H252869   5.424   0.770   1.927 -2.8087  0.8048 -1.7487
10460TIP3   OH252870   5.900   4.346   4.937  0.4408  0.1108  0.5477
10460TIP3    H152871   5.952   4.391   5.005  1.7212 -0.3350 -0.1293
10460TIP3    H252872   5.919   4.253   4.950  2.1861  0.1347 -1.6081
10461TIP3   OH252873   6.490   5.828  12.396 -0.7286  0.0145  0.7819
10461TIP3    H152874   6.396   5.822  12.381 -0.4542 -1.2445 -0.5512
10461TIP3    H252875   6.528   5.759  12.341  1.2035  2.4333 -1.0502
10462TIP3   OH252876   2.787   5.698   5.810  0.4603  0.0821 -0.5933
10462TIP3    H152877   2.711   5.725   5.758 -0.9101  0.0769  1.3333
10462TIP3    H252878   2.826   5.779   5.841  1.2011  0.0812 -1.5006
10463TIP3   OH252879   4.917   5.266  12.527  0.0333  0.3001 -0.3624
10463TIP3    H152880   4.939   5.197  12.465 -2.2516  0.2814 -1.1960
10463TIP3    H252881   4.896   5.220  12.608 -2.6714 -0.1157 -1.2562
10464TIP3   OH252882   5.020   2.892  13.119 -0.1253 -0.3192 -0.2608
10464TIP3    H152883   5.089   2.834  13.087 -0.3518 -1.3904  1.1459
10464TIP3    H252884   5.054   2.980  13.103  1.7229 -0.8364  0.7003
10465TIP3   OH252885   3.402   5.892   5.535 -0.6917  0.2438 -0.6770
10465TIP3    H152886   3.311   5.923   5.535 -0.0450  2.2181 -1.0769
10465TIP3    H252887   3.431   5.904   5.444  0.2082  0.3756 -0.3757
10466TIP3   OH252888   0.561   3.761  12.696  0.2688  0.1478 -0.7582
10466TIP3    H152889   0.586   3.823  12.626 -1.0142 -1.3384 -2.5777
10466TIP3    H252890   0.631   3.696  12.695 -0.8842 -1.1004 -2.2219
10467TIP3   OH252891   4.189   5.376   5.162 -0.5379 -0.2522  0.0860
10467TIP3    H152892   4.281   5.353   5.176 -0.2678  0.9357  0.3863
10467TIP3    H252893   4.172   5.353   5.071  0.1559 -0.1682 -0.0695
10468TIP3   OH252894   2.983   1.459   3.826  0.0868 -0.0938  0.3469
10468TIP3    H152895   3.002   1.410   3.906  1.0514  0.5119  0.5006
10468TIP3    H252896   3.063   1.509   3.809  0.1966 -0.8717 -1.4859
10469TIP3   OH252897   5.395   0.385   5.312  0.1701  0.1046  0.3932
10469TIP3    H152898   5.373   0.439   5.237 -1.8356 -2.1622 -0.7523
10469TIP3    H252899   5.341   0.420   5.383  0.5450  0.9776  0.2522
10470TIP3   OH252900   1.659   6.096   3.390 -0.3573  0.6875  0.1361
10470TIP3    H152901   1.732   6.079   3.449  0.7105  1.5408 -0.9191
10470TIP3    H252902   1.586   6.045   3.427  0.8550 -0.4789  0.9840
10471TIP3   OH252903   0.760   5.788   1.796  0.1772  0.2260  0.5438
10471TIP3    H152904   0.789   5.722   1.734  3.7426  0.5986  1.7065
10471TIP3    H252905   0.762   5.744   1.881  1.4925  1.4357  1.1736
10472TIP3   OH252906   2.259   4.366   3.336  0.1326 -0.1172  0.2679
10472TIP3    H152907   2.213   4.431   3.282 -1.5067 -1.0151  0.5686
10472TIP3    H252908   2.245   4.396   3.426  1.7743  0.6608  0.2784
10473TIP3   OH252909   2.667   0.665   1.837  0.7923  0.0942  0.1652
10473TIP3    H152910   2.635   0.690   1.924  0.9587  0.5012  0.1111
10473TIP3    H252911   2.704   0.578   1.849 -0.3659 -0.3996  0.2224
10474TIP3   OH252912   2.431   1.622   5.981 -0.1608 -0.1556 -0.1157
10474TIP3    H152913   2.377   1.651   5.907 -0.6863 -2.8064 -0.8218
10474TIP3    H252914   2.459   1.533   5.957 -0.2526 -1.0193  2.8194
10475TIP3   OH252915   4.754   6.113   1.834  0.2307 -0.3729  0.0955
10475TIP3    H152916   4.819   6.104   1.903  0.3483  1.0465  0.1908
10475TIP3    H252917   4.747   6.207   1.820  0.1678 -0.6336 -1.7874
10476TIP3   OH252918   2.671   6.047   4.769 -0.3892  0.2187 -0.3315
10476TIP3    H152919   2.762   6.074   4.775 -0.3656  0.2441 -0.8368
10476TIP3    H252920   2.627   6.117   4.721 -0.4546 -0.3182 -1.0574
10477TIP3   OH252921   3.711   6.622  15.725  0.4960  0.0304 -0.5013
10477TIP3    H152922   3.722   6.530  15.699 -0.4513 -0.4740  0.8102
10477TIP3    H252923   3.793   6.643  15.770  0.2787 -0.5187  0.1655
10478TIP3   OH252924   5.815   3.560  11.045  0.0403 -0.1771 -0.0112
10478TIP3    H152925   5.752   3.490  11.055 -0.1364 -0.0498 -0.2169
10478TIP3    H252926   5.861   3.540  10.963  0.1873 -0.2111  0.0798
10479TIP3   OH252927   3.957   4.859   4.736  0.3292 -0.3339 -0.5994
10479TIP3    H152928   4.030   4.892   4.683  0.3945  0.5503  0.0299
10479TIP3    H252929   3.978   4.767   4.752  0.0607 -0.7644 -2.5284
10480TIP3   OH252930   1.093   1.650   1.536 -0.0411 -0.1668  0.2112
10480TIP3    H152931   1.013   1.698   1.514  0.2262 -0.2477 -0.9761
10480TIP3    H252932   1.147   1.656   1.458 -0.1981 -2.8175 -0.1464
10481TIP3   OH252933   1.719   5.411   5.791  0.4443 -0.2127 -0.4745
10481TIP3    H152934   1.719   5.440   5.883  1.2064 -0.5482 -0.3680
10481TIP3    H252935   1.715   5.492   5.740 -0.1178 -0.0303 -0.1441
10482TIP3   OH252936   5.377   1.116   0.586  0.1812  0.0090 -0.1415
10482TIP3    H152937   5.427   1.126   0.505 -0.1358 -0.6714 -0.4312
10482TIP3    H252938   5.442   1.090   0.652  0.2944 -0.3713 -0.3985
10483TIP3   OH252939   6.218   1.656  16.082  0.1084 -0.2966  0.4493
10483TIP3    H152940   6.175   1.742  16.089  1.7162  0.3692  2.5157
10483TIP3    H252941   6.148   1.597  16.055 -1.8022  1.0272  2.3459
10484TIP3   OH252942   1.793   4.240  16.281 -0.1220 -0.1860  0.2156
10484TIP3    H152943   1.710   4.232  16.233 -0.2437  0.9680  0.2084
10484TIP3    H252944   1.783   4.183  16.357 -1.5809  1.1426  1.0746
10485TIP3   OH252945   2.796   0.955   3.483  1.0592  0.3866 -0.3743
10485TIP3    H152946   2.792   1.027   3.420  1.7868  0.3102 -0.5053
10485TIP3    H252947   2.889   0.948   3.505  0.9724 -0.4496 -0.2846
10486TIP3   OH252948   4.508   4.859   3.819 -0.0704  0.1288 -0.4009
10486TIP3    H152949   4.545   4.816   3.896 -0.0055 -0.8769 -0.9922
10486TIP3    H252950   4.466   4.937   3.853  1.0249  0.3356  0.5161
10487TIP3   OH252951   6.157   2.789   6.587  0.0445 -0.0307 -0.3076
10487TIP3    H152952   6.214   2.764   6.659  0.0082 -0.4732 -0.4333
10487TIP3    H252953   6.164   2.885   6.583 -0.6826  0.0753  0.8737
10488TIP3   OH252954   1.787   5.733   2.632 -0.1457  0.2037 -0.0862
10488TIP3    H152955   1.816   5.752   2.543  0.9390  0.3418  0.2904
10488TIP3    H252956   1.832   5.652   2.656  0.3708  0.7183  0.7048
10489TIP3   OH252957   5.235   6.632   1.078  0.2107 -0.5456 -0.3673
10489TIP3    H152958   5.170   6.697   1.049  1.0868  0.0239 -1.1100
10489TIP3    H252959   5.200   6.548   1.050 -0.7838 -0.3683  0.3126
10490TIP3   OH252960   3.312   2.172  13.737 -0.7823 -0.5793 -0.4395
10490TIP3    H152961   3.356   2.238  13.790 -0.2858  0.5951 -2.2773
10490TIP3    H252962   3.265   2.117  13.801  1.4108 -0.4303  1.3446
10491TIP3   OH252963   3.226   2.803  12.139 -0.0897 -0.1199 -0.6173
10491TIP3    H152964   3.294   2.746  12.102  0.0430  0.3629 -1.1191
10491TIP3    H252965   3.274   2.874  12.180 -0.2654 -0.2318 -0.2139
10492TIP3   OH252966   5.444   3.917  15.152  0.3909  0.5397  0.3071
10492TIP3    H152967   5.385   3.974  15.202  1.5342  2.7983 -0.8352
10492TIP3    H252968   5.451   3.838  15.205 -1.8502  1.1334  1.5819
10493TIP3   OH252969   2.488   1.128   2.243  0.1417 -0.0020 -0.5004
10493TIP3    H152970   2.490   1.127   2.339 -1.5350 -1.1727 -0.4697
10493TIP3    H252971   2.581   1.125   2.218  0.6007  0.3409  1.0736
10494TIP3   OH252972   4.904   6.260   1.506  0.8640 -0.4291  0.0599
10494TIP3    H152973   4.853   6.179   1.502  1.3348 -0.6622 -3.2556
10494TIP3    H252974   4.838   6.330   1.502  0.5884 -0.6983 -0.1976
10495TIP3   OH252975   6.672   4.243  17.253 -0.4852 -0.0859  0.1285
10495TIP3    H152976   6.746   4.303  17.243 -1.1747  0.4632 -2.0201
10495TIP3    H252977   6.695   4.188  17.328  0.9891  1.6586  0.9946
10496TIP3   OH252978   3.987   0.501   2.059  0.1892  0.3853  0.2732
10496TIP3    H152979   3.974   0.432   2.124 -0.7910 -0.5166 -0.8606
10496TIP3    H252980   3.900   0.538   2.046  0.3662  0.4914 -0.6137
10497TIP3   OH252981   6.650   4.149   1.110  0.7417 -0.1148  1.0457
10497TIP3    H152982   6.682   4.238   1.123 -0.9590  0.5808  0.5123
10497TIP3    H252983   6.580   4.139   1.174 -1.0015 -0.0663 -0.8219
10498TIP3   OH252984   4.664   4.880   2.907 -0.0738  0.2106 -0.3170
10498TIP3    H152985   4.584   4.915   2.866  0.1325 -0.2575 -1.1261
10498TIP3    H252986   4.734   4.902   2.845  0.2837 -0.2474 -0.0733
10499TIP3   OH252987   4.842   5.957   4.913 -0.0994 -0.5395 -0.8374
10499TIP3    H152988   4.857   6.011   4.991 -2.4580  2.0079 -2.0948
10499TIP3    H252989   4.900   5.994   4.847  1.8423 -2.6564 -0.4049
10500TIP3   OH252990   2.142   5.499  13.891  0.2928 -0.4395 -0.3805
10500TIP3    H152991   2.212   5.456  13.841 -1.3082 -2.0891 -1.2621
10500TIP3    H252992   2.141   5.589  13.857  0.5887 -0.9844 -1.8765
10501TIP3   OH252993   0.698   2.939   0.017  0.3988  0.1114 -0.0206
10501TIP3    H152994   0.727   2.865   0.071 -0.3864  1.0554  1.6971
10501TIP3    H252995   0.661   2.898  -0.062 -0.3069 -1.3427  1.0464
10502TIP3   OH252996   4.549   3.626   1.718  0.1997  0.0362 -0.2902
10502TIP3    H152997   4.624   3.640   1.661 -0.2401 -0.8697 -1.1032
10502TIP3    H252998   4.518   3.714   1.739  0.7437  0.3865 -0.9478
10503TIP3   OH252999   1.672   2.962  15.624  0.0397 -0.1889 -0.0573
10503TIP3    H153000   1.759   2.922  15.629  1.1165  2.1576  0.8606
10503TIP3    H253001   1.689   3.056  15.632 -2.8279  0.1558  2.8440
10504TIP3   OH253002   5.933   5.096   2.287  0.1880 -0.3076 -0.1632
10504TIP3    H153003   5.857   5.144   2.252 -0.0257 -0.2267  0.4102
10504TIP3    H253004   5.908   5.004   2.282  0.3871 -0.3315 -0.7634
10505TIP3   OH253005   3.620   5.774  15.956  0.3065  0.4839  0.2168
10505TIP3    H153006   3.599   5.726  16.035  0.5850  1.5107  0.9225
10505TIP3    H253007   3.715   5.788  15.961  0.1822  1.4069  0.2051
10506TIP3   OH253008   5.675   5.368  12.839  0.2806  0.5087 -0.2225
10506TIP3    H153009   5.616   5.420  12.895  0.7962 -0.3338  1.1362
10506TIP3    H253010   5.627   5.288  12.821  0.2670  0.6197 -0.6820
10507TIP3   OH253011   5.751   2.213   3.315 -0.2360  0.0103 -0.0596
10507TIP3    H153012   5.767   2.144   3.251 -0.3783 -1.0613  1.0424
10507TIP3    H253013   5.837   2.251   3.332  0.4546 -2.5312  2.2696
10508TIP3   OH253014   3.874   3.049   5.282 -0.1464 -0.2890  0.0555
10508TIP3    H153015   3.925   3.106   5.340  1.2554 -0.6940 -0.7346
10508TIP3    H253016   3.843   2.978   5.339 -0.1472  0.1772  0.6368
10509TIP3   OH253017   5.730   3.819  13.884  0.4614 -0.3590  0.0322
10509TIP3    H153018   5.789   3.870  13.828 -1.5023  2.5332  0.5099
10509TIP3    H253019   5.789   3.763  13.936  2.7180  1.6694 -0.2791
10510TIP3   OH253020   0.351   4.737  13.191  0.1362 -0.1097  0.6776
10510TIP3    H153021   0.329   4.646  13.172  1.4317 -0.2417 -0.2710
10510TIP3    H253022   0.344   4.744  13.286  1.1617 -1.5167  0.8747
10511TIP3   OH253023   6.714   4.224   0.332 -0.1405 -0.1571 -0.3146
10511TIP3    H153024   6.746   4.147   0.286 -0.0383  0.3489 -1.0910
10511TIP3    H253025   6.764   4.297   0.295  1.6762 -0.0180  2.2934
10512TIP3   OH253026   3.450   5.627   1.478  0.1443  0.3623 -0.5932
10512TIP3    H153027   3.370   5.650   1.430  1.3825 -0.1321 -2.9223
10512TIP3    H253028   3.427   5.545   1.523 -0.5685  0.0707 -1.4724
10513TIP3   OH253029   4.802   1.957   2.336 -0.5348  0.2762 -0.5612
10513TIP3    H153030   4.864   2.027   2.359  0.6815 -0.0646 -2.6502
10513TIP3    H253031   4.737   2.000   2.281  0.5904 -0.3259 -2.4122
10514TIP3   OH253032   1.968   4.218   0.411  0.7902  0.1273 -0.1241
10514TIP3    H153033   2.036   4.176   0.358 -0.3495 -0.6427 -0.9885
10514TIP3    H253034   1.975   4.311   0.389  1.5551  0.0568 -0.2049
10515TIP3   OH253035   1.693   3.230  11.471  0.3313 -0.1813  0.2439
10515TIP3    H153036   1.633   3.282  11.524  0.2118 -1.3762  1.2971
10515TIP3    H253037   1.765   3.208  11.530  1.6554  0.9383 -0.9117
10516TIP3   OH253038   4.404   4.647   1.617  0.2371 -0.6115  0.5486
10516TIP3    H153039   4.394   4.727   1.565  1.7577 -1.1471 -0.5946
10516TIP3    H253040   4.453   4.675   1.695  0.0001 -0.2710  0.5770
10517TIP3   OH253041   5.183   5.950  14.840  0.4523  0.0451  0.1167
10517TIP3    H153042   5.090   5.972  14.835  0.7878  1.4280 -0.0196
10517TIP3    H253043   5.214   5.957  14.750  0.3990 -1.7897 -0.0717
10518TIP3   OH253044   5.681   2.048   4.945 -1.4183  0.5670 -0.9784
10518TIP3    H153045   5.697   2.122   5.003  0.5864  0.9346 -1.9718
10518TIP3    H253046   5.677   2.086   4.857  0.2081 -0.5420 -1.5593
10519TIP3   OH253047   1.511   1.826   2.378 -0.1417  0.5808 -0.5950
10519TIP3    H153048   1.568   1.769   2.326  0.5672  0.3399  0.4361
10519TIP3    H253049   1.571   1.881   2.428 -0.8219  1.3438 -0.6097
10520TIP3   OH253050   3.013   3.578   1.561  0.0936  0.5858  0.3239
10520TIP3    H153051   3.037   3.513   1.495  1.3223  1.6896 -0.3651
10520TIP3    H253052   3.093   3.630   1.573 -0.6757  1.5708  1.3044
10521TIP3   OH253053   1.355   0.741  12.804  0.4709 -0.0167 -0.3537
10521TIP3    H153054   1.326   0.832  12.811  0.8078  0.0919 -0.3498
10521TIP3    H253055   1.436   0.738  12.856  0.0974 -0.4787  0.2040
10522TIP3   OH253056   3.013   4.993   4.137 -0.3334 -0.1187  0.6672
10522TIP3    H153057   2.929   4.968   4.098 -0.1871 -0.8441  0.8066
10522TIP3    H253058   3.076   4.981   4.066 -0.2047 -0.5366  0.8488
10523TIP3   OH253059   6.091   6.405   1.314  0.8003  0.0482  0.0028
10523TIP3    H153060   6.032   6.480   1.315 -0.1105 -0.6320 -1.0705
10523TIP3    H253061   6.153   6.424   1.243  0.9339  0.0668  0.1244
10524TIP3   OH253062   4.755   2.521   5.728  0.4447  0.3749 -0.2813
10524TIP3    H153063   4.764   2.464   5.652 -1.4149  0.4927 -0.6285
10524TIP3    H253064   4.660   2.529   5.740  0.7086 -0.4165  2.6397
10525TIP3   OH253065   1.593   1.256  12.090 -0.1360 -0.0837  0.6756
10525TIP3    H153066   1.528   1.187  12.086  0.5852 -0.6917 -0.6042
10525TIP3    H253067   1.662   1.229  12.030  0.8333  1.0454  1.2426
10526TIP3   OH253068   4.086   2.187  12.590 -0.4347  0.2800  0.2311
10526TIP3    H153069   4.177   2.200  12.562  0.1186 -0.4432  1.6278
10526TIP3    H253070   4.035   2.195  12.510  1.0742 -1.4669 -0.9347
10527TIP3   OH253071   3.021   2.487   5.318 -0.1078 -0.0730 -0.0093
10527TIP3    H153072   2.958   2.416   5.323  0.2727 -0.3345  1.2193
10527TIP3    H253073   3.033   2.515   5.409 -1.3316  2.5281 -0.6179
10528TIP3   OH253074   5.566   0.798   4.425 -0.6256  0.0980 -0.1812
10528TIP3    H153075   5.602   0.852   4.495  0.2026 -2.1238  1.1558
10528TIP3    H253076   5.642   0.771   4.373 -1.1942  1.4105 -1.7471
10529TIP3   OH253077   4.404   0.807  13.936  0.3747  0.3157 -0.8074
10529TIP3    H153078   4.313   0.778  13.941  1.1847 -2.0465  1.5005
10529TIP3    H253079   4.398   0.898  13.905 -2.8039  0.4627  0.0016
10530TIP3   OH253080   4.693   0.432   1.037  0.1996 -0.1748 -0.4997
10530TIP3    H153081   4.651   0.500   0.984 -1.2929 -1.5850 -1.1631
10530TIP3    H253082   4.782   0.426   1.002  0.0087  0.6816 -1.1470
10531TIP3   OH253083   6.260   1.812  17.265 -0.1135 -0.2531  0.3974
10531TIP3    H153084   6.235   1.888  17.318  0.1480 -0.6683  1.1342
10531TIP3    H253085   6.229   1.736  17.315 -2.5744 -0.5699 -1.5370
10532TIP3   OH253086   2.730   1.767  12.847  0.3098  0.2396  0.2470
10532TIP3    H153087   2.753   1.761  12.755 -1.0824  2.0830 -0.2535
10532TIP3    H253088   2.693   1.682  12.869  1.6699 -0.5804 -0.5854
10533TIP3   OH253089   5.899   5.535   2.793  1.4210  0.8258 -0.4384
10533TIP3    H153090   5.869   5.463   2.849  2.1644  0.6126 -0.3029
10533TIP3    H253091   5.837   5.537   2.720  0.5478  0.9886  0.3018
10534TIP3   OH253092   4.758   3.206  12.873  0.7443 -0.2202 -0.4110
10534TIP3    H153093   4.720   3.120  12.856  1.3830 -0.4350 -0.7739
10534TIP3    H253094   4.684   3.267  12.864 -0.0512 -0.8721  1.4252
10535TIP3   OH253095   6.012   3.362   2.429 -0.1390 -0.4535  0.2061
10535TIP3    H153096   6.035   3.336   2.518 -2.0346  1.4810  1.3332
10535TIP3    H253097   6.050   3.450   2.420 -0.7989 -0.2376 -0.5113
10536TIP3   OH253098   1.823   0.013  12.625 -0.5818 -0.7460  0.2413
10536TIP3    H153099   1.790   0.101  12.643 -0.4477 -0.8441  0.9544
10536TIP3    H253100   1.744  -0.040  12.611 -0.6717 -0.5977  0.1855
10537TIP3   OH253101   2.639   3.928  15.331 -0.1533  0.3527  0.5740
10537TIP3    H153102   2.599   3.842  15.320  2.4338 -0.9159  0.6552
10537TIP3    H253103   2.647   3.962  15.241 -0.2664  0.0728  0.4559
10538TIP3   OH253104   3.332   0.376  16.283 -0.6368  0.2739  0.0330
10538TIP3    H153105   3.266   0.308  16.279 -1.3951  0.9213  1.0978
10538TIP3    H253106   3.387   0.352  16.358 -1.5149  1.3574  1.0337
10539TIP3   OH253107   5.754   5.539  10.814  0.4350 -0.3006  0.6737
10539TIP3    H153108   5.824   5.475  10.821  0.8961  0.2653  1.2418
10539TIP3    H253109   5.674   5.487  10.812  0.9177 -1.0484 -1.4622
10540TIP3   OH253110   4.146   2.044  11.884  0.2823  0.4900  0.2252
10540TIP3    H153111   4.212   1.974  11.881 -0.5504 -0.2713 -0.4508
10540TIP3    H253112   4.069   2.006  11.844 -0.1064  1.8909 -0.3753
10541TIP3   OH253113   5.253   3.630   3.802 -0.1413 -0.1701  0.3100
10541TIP3    H153114   5.283   3.661   3.887 -0.1345  0.0305  0.2338
10541TIP3    H253115   5.176   3.576   3.822  0.6088 -1.1653  0.5647
10542TIP3   OH253116   2.116   5.210   4.349  0.2620  0.5254  0.2469
10542TIP3    H153117   2.036   5.163   4.372 -1.1316  2.2591 -0.9270
10542TIP3    H253118   2.118   5.285   4.409  1.8127 -0.3018  1.2725
10543TIP3   OH253119   3.876   4.600  11.655  0.1028  0.0664  0.5100
10543TIP3    H153120   3.867   4.683  11.609 -2.8207  0.4829  1.7345
10543TIP3    H253121   3.970   4.591  11.671  0.9736  1.0247 -3.4165
10544TIP3   OH253122   4.700   2.000   2.592  0.7917 -0.2397 -0.5636
10544TIP3    H153123   4.757   2.003   2.516  1.8784  0.6908  0.2708
10544TIP3    H253124   4.720   2.081   2.640 -0.1528 -0.6285  0.5049
10545TIP3   OH253125   5.886   3.125  16.587  0.1242 -0.1200 -0.2653
10545TIP3    H153126   5.829   3.194  16.555 -2.4245 -2.1165 -0.2041
10545TIP3    H253127   5.922   3.085  16.508  0.6197  0.4874 -0.3464
10546TIP3   OH253128   0.874   1.885   2.092  0.4100 -0.0221 -0.4750
10546TIP3    H153129   0.933   1.913   2.162  0.6637  0.7856 -1.0006
10546TIP3    H253130   0.795   1.855   2.138  1.3922 -1.5143  0.2457
10547TIP3   OH253131   0.468   4.595   1.748  0.3059  0.1736 -0.2016
10547TIP3    H153132   0.408   4.546   1.805  1.1462  0.0973  0.6195
10547TIP3    H253133   0.453   4.687   1.771  0.3647  0.1653 -0.1280
10548TIP3   OH253134   0.053   2.379   6.314  0.0483  0.3288 -0.4887
10548TIP3    H153135   0.045   2.427   6.396 -0.3208  1.3889 -1.1413
10548TIP3    H253136   0.054   2.446   6.246 -0.9680 -0.6065 -1.4468
10549TIP3   OH253137   1.389   3.097  13.338  0.0550 -0.6181  0.4055
10549TIP3    H153138   1.326   3.168  13.353  0.1368 -0.5806  0.5760
10549TIP3    H253139   1.367   3.031  13.403  1.0070 -0.0485  1.3171
10550TIP3   OH253140   1.600   4.431   1.054  0.2247 -0.2001  0.6659
10550TIP3    H153141   1.512   4.394   1.046  0.9332 -1.7676 -0.1476
10550TIP3    H253142   1.658   4.361   1.026  1.6900  1.1833  0.1607
10551TIP3   OH253143   3.985   3.377   4.765 -0.0295 -0.5065 -0.3193
10551TIP3    H153144   3.947   3.462   4.747  0.9259 -0.1364 -0.6350
10551TIP3    H253145   4.067   3.377   4.715 -0.4005 -1.9073 -0.9627
10552TIP3   OH253146   1.118   3.269  15.452 -0.2172  0.0359  0.7141
10552TIP3    H153147   1.066   3.339  15.412  3.6046  2.3339 -0.5408
10552TIP3    H253148   1.119   3.199  15.387 -1.2696  0.2197  0.5026
10553TIP3   OH253149   1.671   0.068   2.703  0.3194  0.6940  0.2951
10553TIP3    H153150   1.602   0.113   2.654  1.2168  1.5647 -0.1703
10553TIP3    H253151   1.696   0.130   2.771  0.1213  0.0794  0.9292
10554TIP3   OH253152   4.960   5.726   5.667 -0.4738  0.2176 -0.2036
10554TIP3    H153153   4.938   5.634   5.654 -1.5798  0.5774 -0.9451
10554TIP3    H253154   4.911   5.752   5.745 -0.4825  0.2963 -0.2358
10555TIP3   OH253155   6.612   4.244  16.937  0.2022 -0.1871  0.4556
10555TIP3    H153156   6.604   4.233  17.032  0.2023 -0.2375  0.4499
10555TIP3    H253157   6.610   4.155  16.903 -4.0677 -0.0753  0.0607
10556TIP3   OH253158   2.205   1.525  13.508 -0.2552  0.2101 -0.3602
10556TIP3    H153159   2.255   1.447  13.534 -1.9763  0.2295  3.3678
10556TIP3    H253160   2.248   1.597  13.555 -1.0382  0.9107 -0.7155
10557TIP3   OH253161   5.286   2.085  16.835  0.4209  0.3845  0.3187
10557TIP3    H153162   5.237   2.003  16.831  0.7162  0.1417  1.6046
10557TIP3    H253163   5.220   2.153  16.845  0.2154  0.2614 -0.1708
10558TIP3   OH253164   0.030   1.279   4.942 -0.6084 -0.4070 -0.6673
10558TIP3    H153165   0.003   1.191   4.916 -1.3520 -0.1294 -0.8502
10558TIP3    H253166   0.018   1.280   5.037  1.3917 -1.1748 -0.3759
10559TIP3   OH253167   3.197   3.567   2.127 -0.2174 -0.2183  0.2688
10559TIP3    H153168   3.170   3.577   2.036 -0.2411 -2.6958 -0.0109
10559TIP3    H253169   3.233   3.479   2.133  1.2952  0.4802  2.2922
10560TIP3   OH253170   0.952   2.989   3.451 -0.2028 -0.2539 -0.5950
10560TIP3    H153171   0.865   2.965   3.420 -0.9036  0.6390  0.6781
10560TIP3    H253172   1.001   3.007   3.370 -1.0077 -1.3184 -1.3400
10561TIP3   OH253173   2.566   5.783   1.136 -0.2008  0.2473  0.0459
10561TIP3    H153174   2.656   5.758   1.159  0.3301 -0.2009 -2.4445
10561TIP3    H253175   2.512   5.741   1.203  1.2665 -1.5233  0.1475
10562TIP3   OH253176   1.764   4.551   0.558 -0.5949  0.3103 -0.2877
10562TIP3    H153177   1.781   4.580   0.648 -0.0103  1.4040 -0.7364
10562TIP3    H253178   1.669   4.563   0.547 -0.8634 -0.9609  0.5643
10563TIP3   OH253179   5.502   3.510   0.642  0.4412  0.2717  0.2141
10563TIP3    H153180   5.596   3.520   0.656  0.5472 -0.8832  0.3417
10563TIP3    H253181   5.462   3.543   0.722  0.9022 -2.8021  1.7942
10564TIP3   OH253182   6.459   2.288   4.541 -0.5814  0.1563  0.9882
10564TIP3    H153183   6.554   2.298   4.540 -0.6469  0.9884  2.1382
10564TIP3    H253184   6.443   2.222   4.608 -0.7246 -1.0757 -0.2548
10565TIP3   OH253185   0.488   5.842  15.702  0.5341 -0.1236  0.3356
10565TIP3    H153186   0.468   5.761  15.656 -2.4600  0.7818 -0.0829
10565TIP3    H253187   0.490   5.818  15.794 -0.0904 -0.7290  0.1896
10566TIP3   OH253188   0.676   3.632  17.285  0.2787 -0.3007 -0.1555
10566TIP3    H153189   0.728   3.598  17.212  0.7082  1.5046 -0.7190
10566TIP3    H253190   0.675   3.726  17.271 -0.4736 -0.0295  1.6383
10567TIP3   OH253191   1.950   1.143  16.896  0.0441 -0.6662  0.2379
10567TIP3    H153192   1.877   1.197  16.929  1.0872  0.2333  1.1257
10567TIP3    H253193   1.927   1.054  16.921 -0.5714 -0.3403  0.8564
10568TIP3   OH253194   2.002   3.629   5.963  0.7109 -0.2397  0.3266
10568TIP3    H153195   2.080   3.576   5.984  0.9893  0.2741  0.6041
10568TIP3    H253196   1.929   3.581   6.003  0.7356 -1.2721 -0.8153
10569TIP3   OH253197   1.827   4.673   3.357 -0.4539  0.5528  0.5557
10569TIP3    H153198   1.800   4.730   3.285 -0.1907  0.1670  0.1486
10569TIP3    H253199   1.803   4.721   3.436 -1.1691  0.7743  0.2052
10570TIP3   OH253200   0.404   1.148  17.037  0.4409 -0.0239 -0.0651
10570TIP3    H153201   0.454   1.210  17.090  1.6931 -0.2252 -0.9621
10570TIP3    H253202   0.352   1.202  16.978 -1.6135  0.2198  1.8985
10571TIP3   OH253203   6.408   6.670   3.291 -0.0026 -0.0151 -0.2766
10571TIP3    H153204   6.440   6.703   3.375  0.2640  1.2273 -0.8533
10571TIP3    H253205   6.364   6.588   3.312 -0.8720  0.8252  1.2291
10572TIP3   OH253206   1.882   6.386  12.855  0.1058 -0.0810 -0.3940
10572TIP3    H153207   1.894   6.308  12.909  0.3923  0.2933  0.0895
10572TIP3    H253208   1.922   6.363  12.771 -0.8621 -0.8796 -0.6542
10573TIP3   OH253209   3.649   6.477   1.454  0.1232  0.5194 -0.4639
10573TIP3    H153210   3.608   6.488   1.539  2.0424  0.3399  0.5242
10573TIP3    H253211   3.730   6.429   1.473 -0.0689 -0.6975 -2.5577
10574TIP3   OH253212   4.879   2.726  14.593 -0.4101 -0.0683 -0.0900
10574TIP3    H153213   4.899   2.644  14.638  0.4971 -0.9296 -2.0128
10574TIP3    H253214   4.889   2.706  14.500 -2.5182  1.5897 -0.7381
10575TIP3   OH253215   6.525   5.025  14.577  0.6150  0.8024 -0.4854
10575TIP3    H153216   6.430   5.022  14.568  0.7836 -0.4086 -2.0067
10575TIP3    H253217   6.550   5.110  14.540  0.1377  1.0783 -0.1790
10576TIP3   OH253218   2.007   6.297   0.968  0.1322  0.3179 -0.2820
10576TIP3    H153219   2.042   6.370   0.918 -0.0472  0.3583 -0.3479
10576TIP3    H253220   2.008   6.328   1.059 -0.0556  0.4484 -0.3232
10577TIP3   OH253221   6.372   5.125   6.467  0.4800  0.3328 -0.6226
10577TIP3    H153222   6.300   5.163   6.416 -0.6348 -1.3380 -0.3526
10577TIP3    H253223   6.444   5.187   6.457 -0.9593  1.9883 -0.9996
10578TIP3   OH253224   2.649   4.937  16.921  0.7650 -0.1994 -0.0835
10578TIP3    H153225   2.729   4.983  16.896  0.3571  0.3728 -0.3325
10578TIP3    H253226   2.679   4.852  16.952  1.6235  0.6448  1.4800
10579TIP3   OH253227   2.523   4.589  14.269 -0.4858 -0.1747 -0.5936
10579TIP3    H153228   2.435   4.584  14.306 -1.3551  0.5277 -2.4804
10579TIP3    H253229   2.581   4.603  14.344 -2.1238  0.5704  0.5447
10580TIP3   OH253230   4.386   5.158   2.485 -0.0658 -0.2600  0.1404
10580TIP3    H153231   4.429   5.115   2.411  1.1696 -2.0959  1.8733
10580TIP3    H253232   4.337   5.087   2.528 -1.5511  0.9792  0.5447
10581TIP3   OH253233   0.539   0.782   1.101  0.2073  0.0393 -0.1689
10581TIP3    H153234   0.468   0.722   1.079 -0.6028  0.8307  0.2635
10581TIP3    H253235   0.553   0.833   1.021  0.5091 -0.3235 -0.3526
10582TIP3   OH253236   5.176   2.008   5.645  0.3092  0.5880 -0.3847
10582TIP3    H153237   5.245   2.023   5.709 -0.2145 -1.6769  0.7427
10582TIP3    H253238   5.106   1.965   5.694 -0.4200 -0.4906 -2.3083
10583TIP3   OH253239   6.589   3.416   2.715 -0.1755  0.3460 -0.0124
10583TIP3    H153240   6.561   3.325   2.705 -0.5805  0.3512  1.0951
10583TIP3    H253241   6.662   3.425   2.653 -0.4028 -0.6144 -0.4234
10584TIP3   OH253242   0.477   6.350  15.470 -0.4368  0.2704 -0.7742
10584TIP3    H153243   0.524   6.378  15.548 -1.4630 -0.9184  0.2961
10584TIP3    H253244   0.540   6.299  15.420 -0.6611 -1.6172  0.8214
10585TIP3   OH253245   2.204   5.655   3.560  0.1269 -0.2985  0.8041
10585TIP3    H153246   2.143   5.650   3.634  0.9684  0.0766  1.5237
10585TIP3    H253247   2.179   5.582   3.504  0.0259 -1.0876  1.8713
10586TIP3   OH253248   0.855   2.444   4.379 -0.3824  0.0191 -0.5195
10586TIP3    H153249   0.869   2.513   4.314  1.7853 -0.0166 -0.1096
10586TIP3    H253250   0.911   2.372   4.350  0.1012 -0.2418  1.0326
10587TIP3   OH253251   4.713   5.089  16.169  0.9561 -0.1370  0.1232
10587TIP3    H153252   4.677   5.039  16.096  0.7240  2.7206 -1.7934
10587TIP3    H253253   4.805   5.063  16.173  0.8052 -0.8093 -0.7357
10588TIP3   OH253254   4.012   1.241   4.492 -0.6057 -0.5089  0.0042
10588TIP3    H153255   4.057   1.159   4.475 -1.3847 -1.1296  0.8971
10588TIP3    H253256   4.034   1.297   4.417 -0.7307 -1.8106 -1.0158
10589TIP3   OH253257   0.784   2.350  12.833 -0.9153 -0.0270 -0.3998
10589TIP3    H153258   0.732   2.423  12.800 -1.7202 -0.6557 -0.5446
10589TIP3    H253259   0.760   2.344  12.926 -1.1021 -0.3113 -0.4663
10590TIP3   OH253260   2.974   3.872  12.939  0.1468  0.3968 -0.0148
10590TIP3    H153261   2.972   3.926  12.860 -0.3139  1.1419  0.5062
10590TIP3    H253262   2.900   3.812  12.928  1.5610 -1.1572 -1.3054
10591TIP3   OH253263   2.344   6.310  14.132 -0.0604  0.3777 -0.3356
10591TIP3    H153264   2.438   6.299  14.149  0.0775  0.7653 -0.8096
10591TIP3    H253265   2.329   6.262  14.051  0.4739  3.2518 -2.1997
10592TIP3   OH253266   1.245   6.174  15.155 -0.3689  0.3082 -0.3102
10592TIP3    H153267   1.226   6.084  15.181 -1.3780  1.3086  2.6223
10592TIP3    H253268   1.164   6.222  15.175  0.5963  2.0873 -0.6246
10593TIP3   OH253269   4.938   1.095   3.587 -0.8128 -0.2670  0.0549
10593TIP3    H153270   4.933   1.001   3.573 -0.0868 -0.3149  0.1061
10593TIP3    H253271   4.874   1.132   3.525  0.3701 -0.6615 -1.4229
10594TIP3   OH253272   2.217   0.668  12.036  0.2363 -0.5489 -0.2654
10594TIP3    H153273   2.130   0.705  12.049 -0.1183 -2.2516  2.6508
10594TIP3    H253274   2.202   0.588  11.986  0.4431  0.4821 -2.0183
10595TIP3   OH253275   5.182   3.148   2.994  0.2954 -0.2037 -0.5410
10595TIP3    H153276   5.191   3.243   3.007  1.5523 -0.4738  0.7241
10595TIP3    H253277   5.271   3.115   2.997 -0.2684 -1.6743  1.1473
10596TIP3   OH253278   4.938   2.035   4.803  0.0478 -0.1046 -0.0001
10596TIP3    H153279   4.953   1.979   4.727  0.1460  0.7323 -0.5964
10596TIP3    H253280   5.024   2.070   4.826 -0.1758  0.6551 -0.2937
10597TIP3   OH253281   2.641   6.602  14.691 -0.1030 -0.1936  0.1609
10597TIP3    H153282   2.622   6.569  14.604 -0.7339  2.1447 -0.6164
10597TIP3    H253283   2.563   6.652  14.716 -0.1505 -1.2365  2.2848
10598TIP3   OH253284   6.669   4.062  15.604 -0.5070 -0.2297 -1.0319
10598TIP3    H153285   6.593   4.119  15.610 -2.1799 -2.6415  2.4575
10598TIP3    H253286   6.633   3.973  15.610  2.5391 -1.4485  0.3477
10599TIP3   OH253287   4.246   4.928   1.846 -0.0046 -0.3217 -0.1784
10599TIP3    H153288   4.187   4.914   1.919  0.2553 -0.0321  0.0868
10599TIP3    H253289   4.192   4.913   1.768 -0.1997 -0.9446  0.0713
10600TIP3   OH253290   2.148   1.258  11.464 -0.5960  0.0352  0.2581
10600TIP3    H153291   2.100   1.254  11.547  1.4939  0.0197  1.5148
10600TIP3    H253292   2.141   1.170  11.428 -0.8638 -0.1758  0.8108
10601TIP3   OH253293   5.497   1.842   6.092  0.4405  0.6069 -0.3272
10601TIP3    H153294   5.578   1.861   6.045  0.3818  0.1494 -0.6146
10601TIP3    H253295   5.451   1.926   6.098  0.8297  0.8199 -0.3614
10602TIP3   OH253296   5.521   1.476  15.645 -0.0136  0.5119  0.7386
10602TIP3    H153297   5.488   1.411  15.707  0.5662 -0.8900 -0.3958
10602TIP3    H253298   5.453   1.543  15.643 -3.0774 -2.4686 -1.7725
10603TIP3   OH253299   6.394   1.793   2.637 -0.5728 -0.2990  0.2209
10603TIP3    H153300   6.334   1.838   2.578  0.8831  1.5684  0.1177
10603TIP3    H253301   6.473   1.780   2.585 -0.1718 -0.9305  0.9782
10604TIP3   OH253302   4.434   0.876  11.460  0.0358 -0.2421 -0.3757
10604TIP3    H153303   4.363   0.927  11.499 -0.5627 -2.1953  1.1671
10604TIP3    H253304   4.395   0.836  11.382 -0.6006 -1.2676  0.4405
10605TIP3   OH253305   2.842   6.525  13.841  0.1995  0.6450  0.3228
10605TIP3    H153306   2.899   6.475  13.783 -2.3260 -1.7803 -0.1947
10605TIP3    H253307   2.838   6.612  13.801  2.5197  0.5018 -0.2950
10606TIP3   OH253308   3.292   0.744  16.564 -0.1719 -0.0814  0.3274
10606TIP3    H153309   3.208   0.751  16.518  0.8917  1.6902 -1.4561
10606TIP3    H253310   3.293   0.819  16.623  0.1218 -0.1385  0.3955
10607TIP3   OH253311   0.850   6.802   2.141  0.2077 -0.2569  0.1936
10607TIP3    H153312   0.756   6.794   2.158  0.2065 -1.0367 -0.2198
10607TIP3    H253313   0.883   6.713   2.140  0.8077 -0.0336 -0.5505
10608TIP3   OH253314   5.995   2.548  13.284 -0.6330  0.0032  0.3081
10608TIP3    H153315   5.979   2.533  13.191 -1.6121  0.4175  0.4070
10608TIP3    H253316   6.090   2.539  13.293 -0.3746  1.2414 -0.9610
10609TIP3   OH253317   6.043   1.735   6.143  0.1772 -0.4632  0.1830
10609TIP3    H153318   5.955   1.713   6.173 -0.8802  1.1127 -1.6695
10609TIP3    H253319   6.029   1.789   6.065  2.7856 -0.9829 -0.6925
10610TIP3   OH253320   2.632   2.188   1.961 -0.0907 -0.6928  0.0508
10610TIP3    H153321   2.715   2.141   1.956  0.2226 -0.0914 -0.5018
10610TIP3    H253322   2.631   2.227   2.048 -0.2106 -1.4676  0.3925
10611TIP3   OH253323   6.437   2.346   5.515 -0.6300  0.1053 -0.2200
10611TIP3    H153324   6.430   2.440   5.496 -1.4158 -0.2427 -1.7135
10611TIP3    H253325   6.435   2.304   5.429 -1.7680 -1.3773  0.5168
10612TIP3   OH253326   5.878   1.290  14.544  0.2445 -0.5895  0.2899
10612TIP3    H153327   5.871   1.385  14.544 -1.0931 -0.6761  0.2144
10612TIP3    H253328   5.907   1.267  14.632 -2.0460 -0.2660  1.1701
10613TIP3   OH253329   0.822   6.785   1.860 -0.2208  0.2303 -0.3393
10613TIP3    H153330   0.846   6.776   1.952 -0.7318 -1.3088 -0.3353
10613TIP3    H253331   0.746   6.843   1.860  1.1562  2.0549 -0.0072
10614TIP3   OH253332   2.182   4.285  13.925 -0.5603 -0.5290 -0.1092
10614TIP3    H153333   2.212   4.214  13.867  0.5562 -1.0823  1.1436
10614TIP3    H253334   2.095   4.256  13.954 -0.0775 -1.4143  0.4534
10615TIP3   OH253335   2.702   1.757  17.287 -0.2961 -0.5102  0.3045
10615TIP3    H153336   2.747   1.838  17.311 -1.8269  0.0627  1.2791
10615TIP3    H253337   2.614   1.785  17.262 -0.3939 -1.7252 -0.7721
10616TIP3   OH253338   3.927   5.044   3.314 -0.2259  0.4063 -0.2655
10616TIP3    H153339   3.939   4.958   3.355 -0.3445  0.1987 -0.6607
10616TIP3    H253340   4.014   5.085   3.319  0.1420 -0.2461 -1.2069
10617TIP3   OH253341   0.423   4.399  12.900 -0.7357  0.0140  0.0439
10617TIP3    H153342   0.372   4.434  12.827 -0.3361 -1.5990 -1.0448
10617TIP3    H253343   0.435   4.306  12.878 -0.2563 -0.3985  1.9577
10618TIP3   OH253344   4.880   5.344  12.242 -0.2362  0.0584 -0.1596
10618TIP3    H153345   4.858   5.435  12.262 -1.3587 -0.5841  1.5830
10618TIP3    H253346   4.916   5.309  12.323 -0.9519 -1.3980 -0.4591
10619TIP3   OH253347   5.707   2.635   3.415 -0.4283  0.3412  0.3717
10619TIP3    H153348   5.801   2.626   3.396 -1.1981 -0.0588 -3.6907
10619TIP3    H253349   5.698   2.726   3.445  1.0790  0.8131 -0.5328
10620TIP3   OH253350   5.638   1.377   2.056 -0.2701 -0.5804  0.4422
10620TIP3    H153351   5.566   1.330   2.015 -0.1501 -1.2293  0.9606
10620TIP3    H253352   5.706   1.383   1.988 -0.5650 -0.5288  0.1545
10621TIP3   OH253353   4.969   2.955  11.748 -0.4888  0.7792 -0.0371
10621TIP3    H153354   4.898   3.008  11.782 -0.9963  1.3843 -1.9858
10621TIP3    H253355   5.042   3.016  11.738 -0.4730  0.6963 -0.4362
10622TIP3   OH253356   0.133   6.053  12.273 -0.1070  0.2744  0.4002
10622TIP3    H153357   0.111   5.962  12.253 -0.6128  0.3640  0.5491
10622TIP3    H253358   0.067   6.104  12.227 -0.3242  0.5384  1.0049
10623TIP3   OH253359   2.307   0.818  11.301 -0.5862  0.4582 -0.9847
10623TIP3    H153360   2.397   0.827  11.335 -0.9183  1.1032 -0.2706
10623TIP3    H253361   2.316   0.758  11.227  0.2217 -0.6176 -0.0399
10624TIP3   OH253362   6.403   3.856  16.755 -0.2825  0.2224  0.1618
10624TIP3    H153363   6.340   3.786  16.737 -0.6145  0.2785  1.0538
10624TIP3    H253364   6.458   3.859  16.677 -0.6605 -0.6057 -0.1527
10625TIP3   OH253365   0.991   1.950   0.606 -0.8001 -0.0826  0.3592
10625TIP3    H153366   1.084   1.944   0.587 -0.4154 -0.0022  2.1335
10625TIP3    H253367   0.971   2.044   0.599 -0.7641 -0.0980  0.0017
10626TIP3   OH253368   6.072   0.354  16.966  0.0020 -0.0707  0.2508
10626TIP3    H153369   6.142   0.387  16.909 -0.6658 -0.0078 -0.5474
10626TIP3    H253370   6.078   0.259  16.958 -1.5451 -0.0381 -1.7583
10627TIP3   OH253371   6.099   1.607   0.047  0.1501 -0.9612  0.0209
10627TIP3    H153372   6.086   1.693   0.007 -0.3478 -0.7339  0.6695
10627TIP3    H253373   6.012   1.580   0.075  0.7945 -0.0701  3.0866
10628TIP3   OH253374   0.939   5.930   6.536 -0.3318 -0.2941  0.2467
10628TIP3    H153375   1.032   5.926   6.558 -0.6968 -0.1908  1.8883
10628TIP3    H253376   0.921   5.847   6.492  0.8376  0.3001 -1.4349
10629TIP3   OH253377   2.810   6.576  14.103  0.4108  0.1268 -0.0029
10629TIP3    H153378   2.821   6.568  14.008  1.0439 -0.6748  0.1408
10629TIP3    H253379   2.897   6.601  14.135  0.8330 -2.1210  0.6536
10630TIP3   OH253380   6.634   2.823  15.613 -0.2259  0.2147 -0.1744
10630TIP3    H153381   6.688   2.896  15.583  1.2123 -1.0491 -0.7349
10630TIP3    H253382   6.685   2.783  15.684 -0.5694 -0.7785 -0.4745
10631TIP3   OH253383   2.600   2.858   1.028  0.7173 -0.3686 -0.1164
10631TIP3    H153384   2.564   2.932   0.980  1.5296 -0.4737 -0.8999
10631TIP3    H253385   2.612   2.891   1.117  2.7521  1.0233 -0.8639
10632TIP3   OH253386   1.674   0.650  11.710 -0.3271 -0.2882  0.0279
10632TIP3    H153387   1.670   0.743  11.733  1.1820  0.0581 -1.0279
10632TIP3    H253388   1.740   0.614  11.769 -0.2415 -0.4936 -0.1915
10633TIP3   OH253389   6.057   3.281  16.314  0.0100  0.2049  0.4014
10633TIP3    H153390   5.992   3.330  16.364  0.0921 -0.9639  1.6792
10633TIP3    H253391   6.139   3.293  16.361  1.0134  2.6570 -1.8554
10634TIP3   OH253392   5.183   5.060   6.419  0.2832 -0.1537  0.0565
10634TIP3    H153393   5.249   5.130   6.422 -1.1826  1.2956 -0.7432
10634TIP3    H253394   5.099   5.105   6.430 -0.6632 -1.8356 -0.0745
10635TIP3   OH253395   3.446   0.175   0.992 -0.2833  0.3886 -0.2579
10635TIP3    H153396   3.534   0.147   0.968 -0.7966 -0.5172 -1.1315
10635TIP3    H253397   3.437   0.147   1.083  0.2641  0.3063 -0.2247
10636TIP3   OH253398   6.244   2.975  15.989  0.5776 -0.2579 -0.0960
10636TIP3    H153399   6.197   2.963  15.906  0.5817 -2.8130  0.2177
10636TIP3    H253400   6.244   3.069  16.003 -1.1298  0.0754 -2.0330
10637TIP3   OH253401   3.605   2.424  12.188  0.0077  0.5066 -0.1269
10637TIP3    H153402   3.615   2.386  12.100  0.8535  0.8356 -0.1760
10637TIP3    H253403   3.617   2.349  12.247 -1.3200  0.1434 -0.3107
10638TIP3   OH253404   6.764   3.447  16.783  0.2351  0.5629  0.1532
10638TIP3    H153405   6.706   3.427  16.856 -0.4369  0.5394 -0.3864
10638TIP3    H253406   6.799   3.362  16.756 -0.5733  0.4097 -0.4300
10639TIP3   OH253407   2.622   2.426   2.816 -0.2286 -0.2779  0.2129
10639TIP3    H153408   2.540   2.473   2.801  0.1697  0.8341  1.4344
10639TIP3    H253409   2.595   2.335   2.832 -1.1488 -0.1040 -0.3318
10640TIP3   OH253410   0.469   5.289   4.416  0.2789 -0.1734  0.7327
10640TIP3    H153411   0.480   5.381   4.442 -0.3004  0.0982  0.0172
10640TIP3    H253412   0.556   5.262   4.387  0.6496 -0.1076  1.7326
10641TIP3   OH253413   5.434   1.776   0.868  0.3546  0.3304 -0.0053
10641TIP3    H153414   5.364   1.824   0.823  0.2362 -0.9349 -1.1764
10641TIP3    H253415   5.503   1.841   0.880 -0.3034  1.1196 -0.4431
10642TIP3   OH253416   0.617   3.050  16.162 -0.2319 -0.5110  0.8340
10642TIP3    H153417   0.626   3.067  16.068  0.4269 -0.6768  0.8614
10642TIP3    H253418   0.555   3.116  16.193  0.8812  0.6642  0.5947
10643TIP3   OH253419   6.733   5.234   2.447 -0.4176  0.1607 -0.2600
10643TIP3    H153420   6.808   5.229   2.387  0.1660 -0.3527  0.5024
10643TIP3    H253421   6.690   5.317   2.426  0.0796  0.2233 -1.0401
10644TIP3   OH253422   1.984   4.070  12.293 -0.6272  0.8610 -0.3462
10644TIP3    H153423   1.894   4.092  12.270 -0.4468  1.5996 -0.3483
10644TIP3    H253424   2.035   4.090  12.215 -0.2757  1.6702  0.0877
10645TIP3   OH253425   6.001   4.848  14.468 -0.2151 -0.1808 -0.1441
10645TIP3    H153426   5.918   4.895  14.465 -1.0439 -1.6373  0.0380
10645TIP3    H253427   5.990   4.783  14.537  0.4790 -1.4845 -1.2417
10646TIP3   OH253428   6.678   6.488   0.167 -0.0731  0.0485 -0.0243
10646TIP3    H153429   6.639   6.401   0.168 -0.5190  0.2417 -0.2999
10646TIP3    H253430   6.644   6.531   0.245 -2.5414  1.1308 -1.6371
10647TIP3   OH253431   3.991   0.263  12.246  1.0318 -0.3308  0.3521
10647TIP3    H153432   3.928   0.335  12.255  1.0354 -0.1503 -0.9062
10647TIP3    H253433   3.971   0.225  12.160  1.2587 -1.6159  0.8690
10648TIP3   OH253434   0.015   1.924  11.186  0.1223 -0.1141  0.0742
10648TIP3    H153435   0.101   1.914  11.147 -0.2435 -2.4762 -0.1946
10648TIP3    H253436   0.018   1.872  11.266 -1.5682 -1.6496 -0.8228
10649TIP3   OH253437   2.951   2.179  17.085 -0.0755  0.5154  0.1101
10649TIP3    H153438   2.907   2.230  17.017  2.8065  0.8163 -1.5926
10649TIP3    H253439   2.933   2.088  17.061  0.3301  0.6340 -0.6723
10650TIP3   OH253440   4.739   4.522  16.446  0.3630 -0.2687 -0.1079
10650TIP3    H153441   4.665   4.583  16.443 -1.3183 -2.2065  0.3127
10650TIP3    H253442   4.793   4.546  16.371 -0.4858  1.4593 -0.1915
10651TIP3   OH253443   1.491   4.294   5.259 -0.1533 -0.8373 -0.2444
10651TIP3    H153444   1.456   4.247   5.336  1.0808 -1.0150  0.2095
10651TIP3    H253445   1.577   4.257   5.245  1.3964  2.1558  0.9123
10652TIP3   OH253446   1.279   4.869   2.785  0.0539 -0.2084 -0.4028
10652TIP3    H153447   1.331   4.803   2.739 -0.5123 -1.2494  0.4175
10652TIP3    H253448   1.332   4.949   2.782  0.2759 -0.4162 -2.3280
10653TIP3   OH253449   5.935   0.728   4.655 -0.0339  0.0734  0.3489
10653TIP3    H153450   5.934   0.816   4.616 -2.0037 -0.4303 -0.8297
10653TIP3    H253451   5.857   0.727   4.712 -0.2370 -1.0344  0.0558
10654TIP3   OH253452   6.587   4.356   1.948  0.5720 -0.2720  0.3514
10654TIP3    H153453   6.651   4.291   1.974  2.3136  0.3374 -2.2125
10654TIP3    H253454   6.570   4.338   1.855  2.1752  3.7210 -0.8195
10655TIP3   OH253455   5.274   2.103   5.410  0.3840  0.1650 -0.1731
10655TIP3    H153456   5.225   2.070   5.485 -2.0856 -1.2426 -2.3538
10655TIP3    H253457   5.291   2.026   5.356  1.4224  1.2870 -1.4958
10656TIP3   OH253458   5.806   3.011  12.178  0.3369 -0.4853 -0.0113
10656TIP3    H153459   5.713   3.012  12.154  0.6648  0.4793 -1.2466
10656TIP3    H253460   5.849   3.062  12.110  1.7204 -0.5188  0.8281
10657TIP3   OH253461   5.393   1.924  12.717 -0.1304 -0.3213 -0.0402
10657TIP3    H153462   5.470   1.917  12.774 -0.0320 -0.7740 -0.2310
10657TIP3    H253463   5.350   2.005  12.746  1.1564  0.6657 -0.8409
10658TIP3   OH253464   3.291   6.618   0.049 -0.1189 -0.2203 -0.1389
10658TIP3    H153465   3.336   6.622   0.133 -2.2346  0.3922  1.0246
10658TIP3    H253466   3.316   6.533   0.012  2.1459  0.2163  0.3264
10659TIP3   OH253467   1.666   3.560   4.811  0.1843  0.0821  0.3591
10659TIP3    H153468   1.746   3.581   4.762 -0.6210  1.6513 -0.3057
10659TIP3    H253469   1.610   3.516   4.746  0.3793 -0.7576  0.7499
10660TIP3   OH253470   5.528   6.217  15.391 -0.3799 -0.1256  0.7289
10660TIP3    H153471   5.523   6.168  15.473 -0.4531  0.7211  1.2451
10660TIP3    H253472   5.439   6.249  15.377 -0.2924  0.0155  0.4961
10661TIP3   OH253473   5.513   5.065  12.133 -0.2800 -0.3474  0.1778
10661TIP3    H153474   5.473   4.979  12.138  2.3899 -1.6499  0.1430
10661TIP3    H253475   5.544   5.082  12.222  2.3185 -1.0259 -0.5578
10662TIP3   OH253476   3.954   4.762  13.889 -0.9641  0.2631  0.6581
10662TIP3    H153477   4.036   4.792  13.849 -1.3937  2.1459  1.1525
10662TIP3    H253478   3.896   4.745  13.815 -1.1903  2.0664  0.4121
10663TIP3   OH253479   4.837   0.225   0.409  0.2140 -0.1681 -0.4941
10663TIP3    H153480   4.903   0.217   0.340  0.3676  1.5421 -0.5563
10663TIP3    H253481   4.880   0.191   0.488  1.0784  0.6992 -0.5935
10664TIP3   OH253482   2.961   5.954  13.776  0.1025 -0.2614  0.2411
10664TIP3    H153483   2.943   6.019  13.708 -1.5804 -0.3737  0.5370
10664TIP3    H253484   2.901   5.882  13.757  1.9018 -1.7031 -0.0330
10665TIP3   OH253485   4.040   4.295  11.701 -0.0474 -0.4302  0.1409
10665TIP3    H153486   4.001   4.310  11.615  0.7751 -0.2361 -0.2064
10665TIP3    H253487   4.101   4.223  11.688  0.8457  0.2835  0.3170
10666TIP3   OH253488   0.407   0.529  14.795 -0.0517 -0.2882  0.2317
10666TIP3    H153489   0.462   0.511  14.719 -0.3238 -0.5237  0.0857
10666TIP3    H253490   0.342   0.457  14.794 -0.3414 -0.0298  0.4125
10667TIP3   OH253491   5.878   2.342   2.522  0.1782  0.0348  0.1225
10667TIP3    H153492   5.792   2.352   2.563 -0.5233  0.7137 -1.4735
10667TIP3    H253493   5.873   2.257   2.477  0.6387 -0.2957  0.6792
10668TIP3   OH253494   6.384   5.155   0.611  0.1458  0.5851  0.4523
10668TIP3    H153495   6.464   5.111   0.641 -0.1853  0.8211  1.7282
10668TIP3    H253496   6.411   5.204   0.534  1.0535  0.0394  0.4127
10669TIP3   OH253497   5.640   2.778  14.723 -0.2446 -0.0687  0.2471
10669TIP3    H153498   5.552   2.804  14.695 -0.5181  0.9585  1.9960
10669TIP3    H253499   5.661   2.839  14.794  1.6741 -0.6400  0.1740
10670TIP3   OH253500   3.931   0.823  14.032  0.1071  0.4777  0.1667
10670TIP3    H153501   3.894   0.755  14.089  1.6406 -0.4721  0.0740
10670TIP3    H253502   3.861   0.887  14.021 -0.9126 -0.4173  1.3733
10671TIP3   OH253503   5.476   5.108  11.822  0.0195  0.5368 -0.4712
10671TIP3    H153504   5.518   5.053  11.887 -1.5590 -1.6501 -1.2388
10671TIP3    H253505   5.506   5.074  11.738  1.7989  3.1305 -0.9540
10672TIP3   OH253506   6.390   2.314  13.716  0.0884 -0.1069  0.2792
10672TIP3    H153507   6.440   2.374  13.660 -1.6300  0.3322 -0.8306
10672TIP3    H253508   6.326   2.371  13.759 -0.2287 -0.8470  0.7783
10673TIP3   OH253509   3.972   1.782   2.122 -1.0049  0.0701  0.3150
10673TIP3    H153510   3.968   1.870   2.086  1.3163  1.1201  2.4766
10673TIP3    H253511   3.933   1.727   2.054  0.0339  2.4055 -2.2701
10674TIP3   OH253512   3.769   0.625  14.596  0.5587 -0.2833 -0.0012
10674TIP3    H153513   3.846   0.665  14.556  0.3652  0.0059 -0.0863
10674TIP3    H253514   3.769   0.658  14.686  1.1200 -1.1118  0.3060
10675TIP3   OH253515   0.989   3.094   0.323 -0.2821 -0.2215  0.0859
10675TIP3    H153516   1.017   3.003   0.321 -3.7879 -1.3270 -0.9789
10675TIP3    H253517   0.945   3.108   0.239 -1.1512  1.9995  0.8651
10676TIP3   OH253518   5.860   6.593  14.670 -0.4752  0.1293  0.0040
10676TIP3    H153519   5.918   6.630  14.603 -0.8128  0.0045 -0.3552
10676TIP3    H253520   5.919   6.565  14.740 -0.2417  1.7128  0.4535
10677TIP3   OH253521   0.618   6.267  16.723 -0.0571  0.2140 -0.5175
10677TIP3    H153522   0.710   6.250  16.744 -0.2314  0.0867  0.1777
10677TIP3    H253523   0.611   6.255  16.629  0.4225 -0.7737 -0.4292
10678TIP3   OH253524   1.258   2.799   3.087  0.4083 -0.2051 -0.0885
10678TIP3    H153525   1.280   2.840   3.170  2.6860  0.9241 -1.2220
10678TIP3    H253526   1.216   2.868   3.036 -2.2307 -1.2480  0.5496
10679TIP3   OH253527   5.433   4.090   4.064 -0.1528  0.5048 -0.6479
10679TIP3    H153528   5.477   4.169   4.095  1.0050  0.3078 -1.7777
10679TIP3    H253529   5.490   4.055   3.997 -0.2921 -1.6912  0.3288
10680TIP3   OH253530   5.406   0.736   2.312 -0.2200 -0.5429 -0.0303
10680TIP3    H153531   5.454   0.655   2.331  0.1409 -0.1799  0.6308
10680TIP3    H253532   5.409   0.785   2.394  1.4493  1.1000 -1.0403
10681TIP3   OH253533   3.812   4.197   1.483 -0.1569  0.1842  0.0097
10681TIP3    H153534   3.787   4.289   1.480 -2.8451 -0.5016  0.1278
10681TIP3    H253535   3.795   4.165   1.395  0.0201 -0.3870  0.1807
10682TIP3   OH253536   5.873   2.128  15.439 -0.0896 -0.2655  0.6467
10682TIP3    H153537   5.842   2.089  15.521  0.9241  0.6179  1.4841
10682TIP3    H253538   5.969   2.127  15.447  0.0018  0.3642 -0.2645
10683TIP3   OH253539   6.328   6.547  14.969 -0.3796 -0.0613 -0.3652
10683TIP3    H153540   6.279   6.582  15.043  0.1117  2.2103 -1.0483
10683TIP3    H253541   6.369   6.625  14.930  2.5641 -1.6830 -0.6636
10684TIP3   OH253542   4.160   0.051   5.500 -0.2406 -0.0713  0.1650
10684TIP3    H153543   4.199   0.093   5.576 -0.1250 -0.6769  0.4395
10684TIP3    H253544   4.232   0.004   5.458 -0.5441 -0.6916  0.3313
10685TIP3   OH253545   0.343   5.660   5.297 -0.1666  0.0490  0.5168
10685TIP3    H153546   0.304   5.743   5.326 -1.0393 -0.3456  0.4953
10685TIP3    H253547   0.418   5.647   5.355 -0.4999  0.4526  1.0492
10686TIP3   OH253548   1.291   1.161  12.442 -0.0886  0.5522  0.0593
10686TIP3    H153549   1.301   1.125  12.530 -0.8456 -0.2098 -0.1613
10686TIP3    H253550   1.338   1.245  12.445 -0.1265  0.5431  1.1854
10687TIP3   OH253551   4.955   3.912   1.254 -0.0956  0.0054 -0.0748
10687TIP3    H153552   4.877   3.902   1.200 -0.3252  0.5548  0.1561
10687TIP3    H253553   4.930   3.975   1.322  0.7761  0.7495 -0.4356
10688TIP3   OH253554   6.566   4.358  12.551  0.3002  0.1769  0.1017
10688TIP3    H153555   6.576   4.270  12.588  0.9729 -0.4153 -1.4397
10688TIP3    H253556   6.630   4.411  12.599  0.5837 -0.3914  0.3589
10689TIP3   OH253557   1.797   2.638   5.910  0.5240  0.0757 -0.0543
10689TIP3    H153558   1.823   2.690   5.987 -1.5297  2.8379 -1.1180
10689TIP3    H253559   1.834   2.686   5.836  1.3427 -1.8232 -0.8909
10690TIP3   OH253560   6.292   5.156   2.615  0.3920  0.0375  0.0352
10690TIP3    H153561   6.318   5.086   2.676 -2.5984  1.6069  3.3126
10690TIP3    H253562   6.297   5.236   2.667  1.7627  2.0534 -3.0788
10691TIP3   OH253563   0.450   2.357  17.011  0.2313 -0.1000  0.2514
10691TIP3    H153564   0.359   2.338  16.987  0.0250  0.8631  0.2446
10691TIP3    H253565   0.451   2.451  17.028  1.1903 -0.1383  0.4344
10692TIP3   OH253566   2.525   2.317  12.766 -0.0535  0.0199  0.0681
10692TIP3    H153567   2.557   2.358  12.686  0.0559 -1.5252 -0.6882
10692TIP3    H253568   2.525   2.223  12.747 -0.0395 -0.3633  1.8661
10693TIP3   OH253569   5.025   0.361   0.108  0.0831 -0.6395 -0.3112
10693TIP3    H153570   4.996   0.310   0.033 -1.0102 -0.4203 -0.0516
10693TIP3    H253571   5.116   0.335   0.122 -0.3489 -2.2176 -0.4126
10694TIP3   OH253572   1.935   6.734  13.701 -0.3271  0.2376  0.2286
10694TIP3    H153573   1.963   6.643  13.691  1.5302  0.7459  0.5705
10694TIP3    H253574   2.000   6.784  13.651 -0.6125  1.4723  1.0748
10695TIP3   OH253575   3.789   5.689  11.268  0.1244 -0.3503 -0.1417
10695TIP3    H153576   3.885   5.687  11.265  0.1408 -0.8236  0.4921
10695TIP3    H253577   3.767   5.645  11.351 -0.6032  0.7875  0.2832
10696TIP3   OH253578   2.433   3.910   2.394 -0.1977  0.3286 -0.0085
10696TIP3    H153579   2.410   3.962   2.472 -2.9180 -0.2827 -0.3246
10696TIP3    H253580   2.456   3.824   2.429 -0.3641  0.3645  0.1932
10697TIP3   OH253581   3.494   1.862  14.238 -0.4726  0.3069  0.2459
10697TIP3    H153582   3.418   1.912  14.207 -0.7159 -0.5754 -0.5736
10697TIP3    H253583   3.473   1.841  14.329 -0.1335  2.1569  0.7804
10698TIP3   OH253584   6.209   0.825   1.151  0.4242  0.3343  0.4963
10698TIP3    H153585   6.135   0.766   1.131  0.3732  0.6038 -0.1185
10698TIP3    H253586   6.235   0.860   1.066 -0.9416  2.8763  1.0789
10699TIP3   OH253587   1.426   2.307   4.902  0.2803 -0.1258  0.0373
10699TIP3    H153588   1.501   2.272   4.949  1.4636  0.7008 -1.1965
10699TIP3    H253589   1.391   2.375   4.960  2.1328  1.3541 -0.5261
10700TIP3   OH253590   3.164   1.668   0.689 -0.0517 -0.5794 -0.2469
10700TIP3    H153591   3.206   1.723   0.756 -0.7731 -0.7371  0.3308
10700TIP3    H253592   3.238   1.627   0.643  0.5003  0.7112 -0.5644
10701TIP3   OH253593   6.626   5.054   0.747  0.0113 -0.0575 -0.1839
10701TIP3    H153594   6.570   4.976   0.751 -0.8673  0.4931 -1.3774
10701TIP3    H253595   6.652   5.070   0.838 -0.9306 -0.9361  0.2478
10702TIP3   OH253596   0.227   5.491  16.702 -0.2858 -0.1101  0.1745
10702TIP3    H153597   0.166   5.561  16.678  1.5055  1.0137 -1.2122
10702TIP3    H253598   0.279   5.528  16.773 -0.5344 -0.7142  0.6768
10703TIP3   OH253599   3.968   5.043  15.339  0.0298  0.1749  0.1393
10703TIP3    H153600   3.999   5.108  15.276 -1.6044  0.3179 -0.5308
10703TIP3    H253601   3.940   4.969  15.286  1.4716 -0.9214  0.8821
10704TIP3   OH253602   3.589   1.938  13.363  0.4933 -0.1267 -0.1084
10704TIP3    H153603   3.633   2.022  13.368  2.5809 -1.2372  0.7453
10704TIP3    H253604   3.504   1.953  13.404  0.5703  1.7250 -0.5796
10705TIP3   OH253605   2.272   6.105   3.338  0.6021  0.0099  0.7077
10705TIP3    H153606   2.193   6.116   3.286  1.1151  0.5417  0.0357
10705TIP3    H253607   2.304   6.194   3.353  0.1335 -0.0996  2.4439
10706TIP3   OH253608   5.167   1.597   0.723 -0.2522 -0.0687 -0.2988
10706TIP3    H153609   5.232   1.582   0.655 -0.8756 -1.3464 -0.6338
10706TIP3    H253610   5.123   1.677   0.696  1.4988  1.0883  0.1989
10707TIP3   OH253611   1.995   0.313   0.863 -0.9533  0.1089 -0.1312
10707TIP3    H153612   2.041   0.395   0.844 -0.7608 -0.5011 -2.4414
10707TIP3    H253613   1.940   0.333   0.938 -1.9163  2.7530 -1.4822
10708TIP3   OH253614   0.624   0.431  15.241 -0.7975  0.0645  0.0576
10708TIP3    H153615   0.662   0.354  15.199  0.2033 -0.3854  1.7595
10708TIP3    H253616   0.663   0.505  15.193 -0.5660 -0.4473 -0.5549
10709TIP3   OH253617   1.851   1.712   1.943  0.3891  0.0105  0.0746
10709TIP3    H153618   1.894   1.767   2.009 -0.3050  1.0135 -0.2900
10709TIP3    H253619   1.759   1.712   1.969  0.4246 -1.2201  0.2220
10710TIP3   OH253620   1.989   2.188  13.737 -0.3809  0.0502  0.0807
10710TIP3    H153621   2.008   2.220  13.649  0.3381 -0.5383  0.0161
10710TIP3    H253622   1.932   2.113  13.723 -0.1506 -0.1295  0.1117
10711TIP3   OH253623   2.003   5.795   3.128 -0.1439 -0.3856 -0.0025
10711TIP3    H153624   2.070   5.826   3.068  1.0369 -0.5371  1.2131
10711TIP3    H253625   2.011   5.851   3.205 -1.7373 -0.1001 -0.0185
10712TIP3   OH253626   1.242   4.569  14.044  0.2905  0.4131 -0.1440
10712TIP3    H153627   1.168   4.589  13.986  0.9400  2.3761 -0.3168
10712TIP3    H253628   1.302   4.643  14.033  0.5605  0.6883  2.7881
10713TIP3   OH253629   6.080   2.864  13.114 -0.3846 -0.4357 -0.1228
10713TIP3    H153630   5.999   2.812  13.118 -0.7315 -0.2366 -3.4554
10713TIP3    H253631   6.050   2.953  13.096  0.5151 -0.0902  0.0629
10714TIP3   OH253632   1.423   4.611   1.956 -0.8129  0.2987 -0.2328
10714TIP3    H153633   1.328   4.624   1.948 -0.6596  1.4061 -0.2226
10714TIP3    H253634   1.462   4.675   1.897 -0.0833 -0.8486 -1.0358
10715TIP3   OH253635   5.173   0.291   3.574  0.1036 -0.0234 -0.2238
10715TIP3    H153636   5.211   0.377   3.589 -1.1322  0.3609  0.7385
10715TIP3    H253637   5.195   0.270   3.483  3.9644 -0.4908  0.7337
10716TIP3   OH253638   4.843   6.188   6.352  0.7392 -0.2329  0.0172
10716TIP3    H153639   4.794   6.239   6.418 -0.2926 -0.3533 -0.6399
10716TIP3    H253640   4.900   6.252   6.310  0.4144  0.1148  0.1002
10717TIP3   OH253641   3.462   4.409   0.640  0.5653 -0.4200  0.1082
10717TIP3    H153642   3.458   4.446   0.728  0.2729 -0.7548  0.2387
10717TIP3    H253643   3.371   4.406   0.610  0.6864 -0.0728 -0.3082
10718TIP3   OH253644   2.286   4.025   2.851 -0.1459  0.2507 -0.1293
10718TIP3    H153645   2.233   3.997   2.925  0.0736 -1.0794 -0.4408
10718TIP3    H253646   2.270   3.958   2.784  0.3474  0.9408 -0.9506
10719TIP3   OH253647   4.742   2.746   2.396  0.3118  0.8775 -0.5582
10719TIP3    H153648   4.703   2.756   2.309 -0.7626  1.2090 -0.0443
10719TIP3    H253649   4.801   2.821   2.404  0.7060  0.6358 -1.1500
10720TIP3   OH253650   4.803   2.064  16.731 -0.3195 -0.4055 -0.0637
10720TIP3    H153651   4.778   2.065  16.638 -0.2005 -0.9128 -0.1003
10720TIP3    H253652   4.774   2.149  16.764  0.0718 -0.0215 -0.6841
10721TIP3   OH253653   5.034   6.499  15.793  0.2145  0.2864 -0.0502
10721TIP3    H153654   5.067   6.486  15.882 -0.0859  1.4479  0.2409
10721TIP3    H253655   5.107   6.540  15.746 -0.0111  0.6930 -0.0440
10722TIP3   OH253656   2.040   5.911  15.089 -0.5713  0.7865 -0.8145
10722TIP3    H153657   1.957   5.881  15.054 -1.0206  0.8006  0.2229
10722TIP3    H253658   2.068   5.842  15.150  0.6028  0.3696 -1.8057
10723TIP3   OH253659   4.861   2.359   5.193 -0.1049  0.3744 -0.3737
10723TIP3    H153660   4.827   2.445   5.216 -0.0025  0.2467  0.2624
10723TIP3    H253661   4.793   2.298   5.221 -0.3804  0.2821 -1.2481
10724TIP3   OH253662   6.614   6.099  13.060  0.6100 -0.3118 -0.1342
10724TIP3    H153663   6.554   6.116  13.133  1.1405 -0.9549  0.4564
10724TIP3    H253664   6.561   6.114  12.982 -0.3621 -0.9888  0.3855
10725TIP3   OH253665   0.215   2.323   1.366  0.3637  0.2269 -0.1840
10725TIP3    H153666   0.304   2.292   1.381  0.2941  0.8528  1.7272
10725TIP3    H253667   0.216   2.357   1.277  2.0769  0.3615 -0.1375
10726TIP3   OH253668   0.549   6.489   0.576  0.0669 -0.2822  0.0836
10726TIP3    H153669   0.630   6.444   0.601 -0.3436 -1.0326  0.0624
10726TIP3    H253670   0.560   6.578   0.610 -0.3762 -1.2076  2.7513
10727TIP3   OH253671   0.268   4.859   5.398 -0.4133 -0.3275  0.0371
10727TIP3    H153672   0.337   4.851   5.332 -1.4491  1.6491 -1.3114
10727TIP3    H253673   0.230   4.771   5.405  1.5462 -1.2017  0.0690
10728TIP3   OH253674   5.320   2.794  13.796 -0.1397  0.5295  0.0750
10728TIP3    H153675   5.387   2.850  13.757 -1.1767  2.5477  1.1180
10728TIP3    H253676   5.339   2.707  13.763  2.1108  1.3320 -0.7991
10729TIP3   OH253677   5.636   0.481  17.199  0.7625 -0.1218  0.5021
10729TIP3    H153678   5.665   0.559  17.246 -1.8297  1.1993 -0.0414
10729TIP3    H253679   5.710   0.460  17.141  1.1239  2.5038 -0.0498
10730TIP3   OH253680   2.456   2.920  11.930  0.1409  0.0337  0.0702
10730TIP3    H153681   2.363   2.944  11.926 -0.4418 -2.3134 -1.0348
10730TIP3    H253682   2.462   2.859  12.004  0.2286 -2.1156 -1.6699
10731TIP3   OH253683   3.166   3.335  15.085  0.2109  0.0842  0.0640
10731TIP3    H153684   3.233   3.270  15.105  1.4633  1.1015 -0.7913
10731TIP3    H253685   3.188   3.410  15.140 -0.4014  0.3136 -0.0026
10732TIP3   OH253686   3.275   3.435   1.146  0.8085 -0.3453  0.3577
10732TIP3    H153687   3.352   3.379   1.142  2.4839  1.9201 -0.1715
10732TIP3    H253688   3.306   3.522   1.119 -1.8550  0.6989  0.4093
10733TIP3   OH253689   6.616   5.795   6.346  0.0275  0.0017  0.2342
10733TIP3    H153690   6.567   5.871   6.379 -0.9220 -0.6112  0.2506
10733TIP3    H253691   6.701   5.831   6.320  0.3462  0.7167  2.1662
10734TIP3   OH253692   4.786   5.900   4.044 -0.1851  0.4339 -0.3548
10734TIP3    H153693   4.813   5.840   3.974  1.9065  0.2885  0.5449
10734TIP3    H253694   4.691   5.898   4.041 -0.1483  1.0854 -3.7726
10735TIP3   OH253695   0.173   3.497  15.586  0.1423 -0.1510 -0.3305
10735TIP3    H153696   0.233   3.571  15.598  0.3001 -0.0531 -1.6109
10735TIP3    H253697   0.207   3.430  15.645  0.3448  0.5837  0.4156
10736TIP3   OH253698   3.929   4.333  15.001  0.2125 -0.0430  0.3818
10736TIP3    H153699   3.996   4.268  14.978 -1.0932 -1.3957  0.3057
10736TIP3    H253700   3.846   4.290  14.980 -0.6408  2.2807 -1.2286
10737TIP3   OH253701   6.628   3.890  17.159  0.0750 -0.1113 -0.1239
10737TIP3    H153702   6.666   3.803  17.146 -1.4297 -0.6837 -0.8741
10737TIP3    H253703   6.658   3.917  17.246 -0.7847 -2.1078  0.8281
10738TIP3   OH253704   4.053   0.507   2.833 -0.4200  0.4852  0.0975
10738TIP3    H153705   4.071   0.439   2.898 -0.5013 -0.0898 -0.4698
10738TIP3    H253706   4.116   0.576   2.853  0.3085 -0.1620  0.1033
10739TIP3   OH253707   3.091   2.900  16.312  0.6875  0.1839 -0.0511
10739TIP3    H153708   3.027   2.971  16.316 -0.4816 -0.7471 -1.7372
10739TIP3    H253709   3.086   2.869  16.222 -2.2490 -5.1472  1.7397
10740TIP3   OH253710   1.143   4.402  17.257 -0.2209 -0.7972  0.0051
10740TIP3    H153711   1.174   4.480  17.303 -1.4636 -0.9470  1.1314
10740TIP3    H253712   1.050   4.418  17.242 -1.2772 -3.3798  3.1304
10741TIP3   OH253713   0.284   6.027   1.728 -0.1913  0.5498 -0.2275
10741TIP3    H153714   0.295   6.113   1.769  2.1981  0.9150 -1.5430
10741TIP3    H253715   0.237   6.045   1.647 -0.2866  0.5414 -0.1735
10742TIP3   OH253716   4.660   0.705  13.616 -0.1502  0.2646 -0.2091
10742TIP3    H153717   4.712   0.725  13.694 -0.2735  0.7672 -0.2503
10742TIP3    H253718   4.684   0.774  13.553  0.0262 -0.1964 -0.6522
10743TIP3   OH253719   4.051   3.649   1.144 -0.1815  0.2276 -0.1689
10743TIP3    H153720   4.006   3.564   1.151  1.4216 -0.5693  0.7033
10743TIP3    H253721   4.139   3.627   1.114  1.2654  1.2451  3.0980
10744TIP3   OH253722   3.421   6.541   2.488 -0.1758  0.0821  0.4454
10744TIP3    H153723   3.367   6.464   2.471  0.9318 -1.0496  2.0096
10744TIP3    H253724   3.508   6.507   2.507  0.9433  1.8519 -1.2849
10745TIP3   OH253725   1.527   0.392   4.653 -0.8639  0.4827  0.8848
10745TIP3    H153726   1.442   0.367   4.618 -0.0843  0.3250 -0.9675
10745TIP3    H253727   1.529   0.356   4.742 -1.8397 -1.4256  0.1425
10746TIP3   OH253728   1.265   6.203  16.921  0.7069 -0.4495 -0.3453
10746TIP3    H153729   1.279   6.113  16.952  0.0610 -0.0719  1.0957
10746TIP3    H253730   1.215   6.193  16.840  1.7855 -1.4391 -0.9063
10747TIP3   OH253731   0.685   2.691   1.008 -0.8990 -0.0928  0.5135
10747TIP3    H153732   0.726   2.623   0.955  0.8039  0.7083  0.7531
10747TIP3    H253733   0.596   2.660   1.023 -0.3480 -1.9507  0.0660
10748TIP3   OH253734   2.147   4.100   4.694 -0.1951 -0.2255 -0.3224
10748TIP3    H153735   2.222   4.160   4.697  0.2407 -0.6642 -1.8605
10748TIP3    H253736   2.131   4.086   4.600 -2.8963  0.6920 -0.0417
10749TIP3   OH253737   0.201   0.247  15.851  0.4427 -0.3706 -0.2320
10749TIP3    H153738   0.155   0.205  15.924 -0.7065  0.6639 -0.3510
10749TIP3    H253739   0.278   0.287  15.892 -1.2734  1.9990  0.8199
10750TIP3   OH253740   5.751   1.547   5.875 -0.0535 -0.4659 -0.2639
10750TIP3    H153741   5.696   1.602   5.818 -0.0397 -0.6489 -0.4560
10750TIP3    H253742   5.741   1.585   5.962  0.5602  0.3111 -0.5250
10751TIP3   OH253743   1.706   0.267   5.432  0.4256  0.8021  0.3156
10751TIP3    H153744   1.742   0.226   5.510  0.9574 -2.1480 -1.3999
10751TIP3    H253745   1.773   0.330   5.405  1.7815 -0.5794  0.3778
10752TIP3   OH253746   4.856   2.616  11.949 -0.8497 -0.0487 -0.4183
10752TIP3    H153747   4.822   2.637  12.036 -0.8923 -0.6885 -0.2787
10752TIP3    H253748   4.802   2.666  11.889 -1.8782 -0.8725 -0.1866
10753TIP3   OH253749   6.295   3.166   5.551  0.3789 -0.4353  0.0432
10753TIP3    H153750   6.381   3.153   5.512 -0.0439  0.4163 -1.2184
10753TIP3    H253751   6.266   3.079   5.577 -0.0159 -1.2748 -3.0502
10754TIP3   OH253752   0.391   6.494  15.783 -0.4949  0.1948 -0.3200
10754TIP3    H153753   0.377   6.403  15.755  0.9452  0.2011 -1.1199
10754TIP3    H253754   0.467   6.490  15.841 -1.0400  0.7539  0.4377
10755TIP3   OH253755   4.264   6.372  12.673  0.2687  0.4811 -0.6132
10755TIP3    H153756   4.351   6.385  12.634  0.6747 -1.6752 -0.4910
10755TIP3    H253757   4.205   6.420  12.616  1.1542 -0.7238 -2.5928
10756TIP3   OH253758   2.823   0.577  16.700 -0.2374  0.3586  0.3098
10756TIP3    H153759   2.799   0.524  16.776  1.9533  0.2626  0.9755
10756TIP3    H253760   2.872   0.650  16.737  2.7071 -0.8069 -1.1454
10757TIP3   OH253761   1.860   4.457   4.185  0.6768  0.6600 -0.2501
10757TIP3    H153762   1.788   4.416   4.137 -0.7812  2.7905  0.0442
10757TIP3    H253763   1.817   4.502   4.257  2.4714  0.7798  0.7510
10758TIP3   OH253764   1.654   2.810   1.824 -0.4254 -0.1343  0.0285
10758TIP3    H153765   1.731   2.754   1.815  0.0326  0.3725  0.7937
10758TIP3    H253766   1.685   2.887   1.872 -1.0759  0.7268 -0.8947
10759TIP3   OH253767   3.052   1.422  13.784 -0.2504 -0.5871  0.8139
10759TIP3    H153768   3.119   1.447  13.847  0.1520 -1.7074  0.8470
10759TIP3    H253769   3.101   1.397  13.706 -0.5817 -1.8814  1.0014
10760TIP3   OH253770   3.440   5.387  14.449  0.4920  0.3559  0.3919
10760TIP3    H153771   3.392   5.455  14.496 -1.2968 -0.6790  0.1174
10760TIP3    H253772   3.525   5.383  14.492  0.7366  2.9539  0.2168
10761TIP3   OH253773   5.282   5.221   4.819 -0.9389  0.2844  0.0968
10761TIP3    H153774   5.187   5.217   4.833 -0.8651 -0.9029  0.2520
10761TIP3    H253775   5.311   5.293   4.875 -1.5999 -0.0624  0.8966
10762TIP3   OH253776   6.596   3.894  12.940 -0.3223  0.4722 -0.3058
10762TIP3    H153777   6.662   3.943  12.989  1.0917 -0.4316 -1.2794
10762TIP3    H253778   6.614   3.802  12.961 -0.6669  0.1666 -1.3213
10763TIP3   OH253779   5.364   6.410  15.828 -0.2421 -0.4698 -0.3745
10763TIP3    H153780   5.366   6.336  15.767 -0.1789  0.4021 -1.4586
10763TIP3    H253781   5.351   6.487  15.772 -1.0212  0.2735  0.7984
10764TIP3   OH253782   3.936   3.076  15.802 -0.8482  0.0889 -0.2516
10764TIP3    H153783   3.994   3.143  15.767 -3.0711  1.2989 -1.7221
10764TIP3    H253784   3.918   3.018  15.728  0.9779 -2.1540  0.9815
10765TIP3   OH253785   0.723   2.092   1.555 -0.1723 -0.2024 -0.1984
10765TIP3    H153786   0.801   2.141   1.583 -0.4579  0.1321  0.0084
10765TIP3    H253787   0.756   2.032   1.487  0.3393 -0.3318  0.1549
10766TIP3   OH253788   6.296   2.387  16.445 -0.0769 -0.3373 -0.1722
10766TIP3    H153789   6.375   2.339  16.470  0.1541  0.5590  0.8730
10766TIP3    H253790   6.226   2.346  16.496  0.2546  0.9323  1.3601
10767TIP3   OH253791   3.987   2.450  13.717 -0.9181 -0.4687  0.2527
10767TIP3    H153792   4.065   2.396  13.726 -0.4288  0.1775 -0.0558
10767TIP3    H253793   3.942   2.415  13.641 -1.6702 -1.7464  1.2557
10768TIP3   OH253794   5.131   5.314   0.090  0.2807 -0.0727 -0.6479
10768TIP3    H153795   5.197   5.379   0.114  0.1444 -0.0674 -0.2778
10768TIP3    H253796   5.157   5.235   0.138 -1.3213  0.6048  1.4347
10769TIP3   OH253797   2.373   2.255   0.931  0.2458  0.1917 -0.2944
10769TIP3    H153798   2.438   2.286   0.994 -0.9518 -0.4230  1.2741
10769TIP3    H253799   2.420   2.192   0.877  0.6877 -1.1297  1.5816
10770TIP3   OH253800   3.840   0.111   0.004 -0.3219 -0.3365 -0.3129
10770TIP3    H153801   3.831   0.206   0.009 -1.3343 -0.5244  1.5197
10770TIP3    H253802   3.804   0.078   0.086  0.2622 -2.2977 -0.8097
10771TIP3   OH253803   4.859   6.345   3.611  0.3930  0.4368 -0.1903
10771TIP3    H153804   4.868   6.322   3.518 -1.6789  1.6463 -0.6996
10771TIP3    H253805   4.805   6.275   3.648  0.9934  0.1007  0.0641
10772TIP3   OH253806   5.506   3.374  14.930  0.2591  0.4858  0.5960
10772TIP3    H153807   5.577   3.380  14.993  1.7776 -0.4174 -0.9939
10772TIP3    H253808   5.430   3.411  14.975  1.3321 -0.0821  2.8962
10773TIP3   OH253809   1.906   5.783  15.526 -0.4986 -0.1160 -0.1393
10773TIP3    H153810   1.852   5.711  15.558  2.4939 -2.3348  0.1436
10773TIP3    H253811   1.972   5.741  15.470 -0.8659  2.8347 -2.9490
10774TIP3   OH253812   0.382   0.704   4.187 -0.4141  0.0717 -0.3693
10774TIP3    H153813   0.446   0.642   4.151  0.4356  0.0043  1.1818
10774TIP3    H253814   0.349   0.660   4.266  0.3258  1.6397  0.8444
10775TIP3   OH253815   5.881   3.556   4.822  0.6149 -0.0412 -0.4268
10775TIP3    H153816   5.865   3.634   4.769  1.4861  1.1196  0.9822
10775TIP3    H253817   5.798   3.543   4.869 -0.2519 -1.2305 -2.2128
10776TIP3   OH253818   4.013   2.941   0.697 -0.1911 -0.3095  0.4135
10776TIP3    H153819   4.083   2.954   0.633  1.2133 -3.5053  1.2065
10776TIP3    H253820   3.932   2.949   0.646  0.8554 -0.7106 -1.3542
10777TIP3   OH253821   2.598   3.189   5.296  0.2475  0.7951  0.4689
10777TIP3    H153822   2.643   3.267   5.262  0.3828  0.7153  0.4620
10777TIP3    H253823   2.662   3.150   5.356 -0.0162  0.9773  0.8687
10778TIP3   OH253824   2.907   3.021   2.982 -0.2340 -0.3471 -0.1053
10778TIP3    H153825   2.900   2.956   3.051  2.0621  0.4796  0.9769
10778TIP3    H253826   2.990   3.066   3.000 -1.3045  2.2312 -1.3615
10779TIP3   OH253827   1.547   5.265  13.470  0.0030 -0.3700 -0.1753
10779TIP3    H153828   1.510   5.290  13.555 -0.5582 -0.8620 -0.2732
10779TIP3    H253829   1.532   5.171  13.464 -1.6169 -0.0387 -1.6331
10780TIP3   OH253830   0.005   5.051  12.429 -0.0389 -0.0766 -0.0058
10780TIP3    H153831   0.040   4.966  12.405 -0.5580 -0.2854 -0.0289
10780TIP3    H253832  -0.087   5.035  12.451 -0.5576  0.7188 -1.5032
10781TIP3   OH253833   2.522   2.691   3.832  0.1093 -0.1959  0.2376
10781TIP3    H153834   2.526   2.680   3.927  0.6399 -0.4067  0.1921
10781TIP3    H253835   2.457   2.760   3.819 -0.8537 -1.0123  0.6893
10782TIP3   OH253836   4.076   6.371  16.144 -0.5071  0.2849 -0.1928
10782TIP3    H153837   4.096   6.464  16.137 -0.0933  0.2604  0.5885
10782TIP3    H253838   4.125   6.342  16.221 -0.3407 -0.6588 -0.6471
10783TIP3   OH253839   2.575   5.638   4.856  0.0268 -0.2257  0.2704
10783TIP3    H153840   2.583   5.729   4.885  1.3834 -0.3382  0.2730
10783TIP3    H253841   2.588   5.586   4.936 -1.3013 -0.4146  0.3727
10784TIP3   OH253842   4.774   3.249   4.440 -0.1375  0.0921 -0.1983
10784TIP3    H153843   4.804   3.332   4.476  0.7880 -1.0429  1.6813
10784TIP3    H253844   4.694   3.228   4.488  0.0695 -0.5061 -0.1073
10785TIP3   OH253845   0.126   2.071   1.279  0.5395 -0.1074  0.2279
10785TIP3    H153846   0.148   2.158   1.312 -0.6914  0.6773 -0.9997
10785TIP3    H253847   0.209   2.023   1.279  1.5194  1.5647 -0.5988
10786TIP3   OH253848   4.051   2.197  11.363 -0.2477  0.4436  0.0876
10786TIP3    H153849   4.047   2.240  11.278 -0.2623 -1.6354 -0.9954
10786TIP3    H253850   4.140   2.214  11.394 -0.7303  2.5572  0.4273
10787TIP3   OH253851   0.796   5.914  12.858  0.0050  0.5441 -0.3322
10787TIP3    H153852   0.704   5.939  12.851 -0.4200 -0.9600 -0.4014
10787TIP3    H253853   0.842   5.994  12.883 -1.3597  1.2444 -0.0580
10788TIP3   OH253854   0.065   0.586   5.700  0.1008 -0.2523  0.3065
10788TIP3    H153855   0.032   0.629   5.621 -0.3783 -0.8180  0.1982
10788TIP3    H253856  -0.011   0.582   5.758  0.6562  0.9180  1.1272
10789TIP3   OH253857   0.782   0.574   5.782 -0.7490  0.4725 -0.1106
10789TIP3    H153858   0.688   0.574   5.764 -0.8697  1.7261  0.4819
10789TIP3    H253859   0.796   0.650   5.837  0.3482 -0.7208  1.3075
10790TIP3   OH253860   0.555   5.575   2.467 -0.5022 -0.0862  0.7757
10790TIP3    H153861   0.554   5.663   2.429  1.4369 -0.0184  0.8281
10790TIP3    H253862   0.492   5.526   2.415  0.9621  0.4352 -1.5764
10791TIP3   OH253863   1.648   5.280   2.820  0.2381  0.2952  0.3035
10791TIP3    H153864   1.588   5.216   2.783  1.3174  0.2509 -1.4336
10791TIP3    H253865   1.593   5.338   2.873 -1.0605 -0.7395  0.0923
10792TIP3   OH253866   3.433   1.809  14.490  0.0085  0.3952  0.1253
10792TIP3    H153867   3.462   1.725  14.526 -0.6696 -0.2055 -0.7078
10792TIP3    H253868   3.439   1.870  14.564  1.3013 -0.1906  0.5210
10793TIP3   OH253869   3.561   1.783  15.550 -0.1976  0.0972  0.1293
10793TIP3    H153870   3.525   1.755  15.466 -1.4157 -0.3363  0.7807
10793TIP3    H253871   3.494   1.758  15.614  0.8413  0.1719  1.2599
10794TIP3   OH253872   5.910   6.666   5.929  0.1575  0.5202  0.2394
10794TIP3    H153873   5.960   6.746   5.914  3.2262 -0.9982  1.8792
10794TIP3    H253874   5.821   6.696   5.948  1.0455  3.4613 -0.0641
10795TIP3   OH253875   4.160   4.111  14.613 -0.4087  0.3100  0.1418
10795TIP3    H153876   4.121   4.197  14.593 -2.2150 -0.3125  0.8237
10795TIP3    H253877   4.092   4.048  14.588  0.9579 -0.9385 -0.4804
10796TIP3   OH253878   5.046   6.527  14.539  0.3107 -0.8523 -0.3902
10796TIP3    H153879   4.974   6.583  14.566 -0.5879 -1.1346 -2.2075
10796TIP3    H253880   5.118   6.552  14.597 -0.2254  1.7913 -0.8182
10797TIP3   OH253881   0.974   5.473  13.658 -0.1685  0.0542 -0.0801
10797TIP3    H153882   0.940   5.395  13.701  0.4910 -0.6391 -0.7959
10797TIP3    H253883   1.010   5.526  13.729  0.3717 -0.8118  0.2966
10798TIP3   OH253884   6.812   2.265   0.714  0.6827 -0.3911 -0.1979
10798TIP3    H153885   6.742   2.257   0.778  0.4434  3.7175  0.1637
10798TIP3    H253886   6.771   2.305   0.637  2.2867  0.5754 -0.5813
10799TIP3   OH253887   0.864   0.617  13.328 -0.2793 -0.6395 -0.3830
10799TIP3    H153888   0.820   0.652  13.250 -1.0968 -1.3233 -0.2457
10799TIP3    H253889   0.792   0.601  13.390  0.3021 -0.6693  0.2839
10800TIP3   OH253890   1.006   0.032   0.630 -0.1170 -0.0963  0.3054
10800TIP3    H153891   0.921   0.050   0.590 -1.0333 -2.9606  0.8163
10800TIP3    H253892   1.045  -0.035   0.574  1.9338  1.3063 -0.0174
10801TIP3   OH253893   1.295   2.429   0.361  0.1983 -0.0573 -0.1146
10801TIP3    H153894   1.222   2.368   0.354 -0.8671  1.1868 -0.0295
10801TIP3    H253895   1.278   2.494   0.292  1.7460 -0.3057 -0.7404
10802TIP3   OH253896   5.416   6.816  14.115  0.0080 -0.0712  0.4951
10802TIP3    H153897   5.430   6.785  14.025  0.3545 -0.5864  0.7225
10802TIP3    H253898   5.421   6.911  14.109 -2.0311 -0.0010 -0.3802
10803TIP3   OH253899   6.534   2.754   0.431 -0.1109  0.2495 -0.3793
10803TIP3    H153900   6.460   2.707   0.469 -1.5395  1.8956 -1.0375
10803TIP3    H253901   6.606   2.742   0.494 -0.3731 -2.8475 -0.5867
10804TIP3   OH253902   0.256   6.790   1.175  0.1668 -0.0610  0.1011
10804TIP3    H153903   0.220   6.717   1.125 -2.2024  0.7368  0.5731
10804TIP3    H253904   0.276   6.752   1.261 -1.2360 -0.1671  0.4093
10805TIP3   OH253905   0.211   5.234   1.063 -0.1867  0.2119  0.3438
10805TIP3    H153906   0.272   5.265   1.129 -0.6149  0.8301  0.4533
10805TIP3    H253907   0.136   5.294   1.069 -1.4407 -1.4294  1.2093
10806TIP3   OH253908   5.741   3.286  13.252 -0.3848  0.2961  0.2535
10806TIP3    H153909   5.665   3.278  13.194 -0.1922 -0.4128  0.0980
10806TIP3    H253910   5.772   3.197  13.264  1.0626  0.6722 -0.5363
10807TIP3   OH253911   4.035   4.413  16.987  0.3239 -0.2544 -0.2647
10807TIP3    H153912   3.951   4.459  16.997  1.1703  0.7049  3.0961
10807TIP3    H253913   4.101   4.480  17.003  1.7358 -1.2734 -1.7085
10808TIP3   OH253914   4.034   3.200  11.243 -0.0425 -0.1740  0.0112
10808TIP3    H153915   3.948   3.187  11.203  0.5205 -1.2283 -0.8796
10808TIP3    H253916   4.092   3.144  11.193  1.2594  0.8727  0.3212
10809TIP3   OH253917   5.783   5.961  17.277  0.0952  0.0337  0.0075
10809TIP3    H153918   5.828   6.046  17.277  1.4613 -0.6603  0.5863
10809TIP3    H253919   5.773   5.940  17.184  0.2316  0.5808 -0.1372
10810TIP3   OH253920   0.668   2.691  14.950 -0.1505 -0.5377  0.4061
10810TIP3    H153921   0.706   2.678  14.863  0.2272 -0.5298  0.5684
10810TIP3    H253922   0.595   2.751  14.936  1.7250  1.8342  0.5284
10811TIP3   OH253923   3.798   6.765  13.481  0.2097  0.0629 -0.3234
10811TIP3    H153924   3.744   6.843  13.468 -0.8733 -0.6839 -0.3808
10811TIP3    H253925   3.803   6.724  13.395 -1.4960 -1.3612  0.2107
10812TIP3   OH253926   2.299   1.136  16.637 -0.4977  0.4362 -0.2831
10812TIP3    H153927   2.306   1.103  16.548  0.4052  0.5663 -0.2581
10812TIP3    H253928   2.336   1.067  16.692 -0.2041  0.7454 -0.0885
10813TIP3   OH253929   4.489   2.074   3.762 -0.2768 -0.1803  0.6543
10813TIP3    H153930   4.513   2.150   3.816  0.8810  0.2375 -0.4314
10813TIP3    H253931   4.572   2.027   3.749 -0.2346  0.6200 -2.1501
10814TIP3   OH253932   2.102   2.433  14.373 -0.2425 -0.1226  0.0607
10814TIP3    H153933   2.158   2.510  14.385  0.5255 -0.3160 -2.0229
10814TIP3    H253934   2.156   2.360  14.402 -0.2805 -0.0790  0.2451
10815TIP3   OH253935   2.241   5.431  14.456  0.3888  0.0087 -0.5981
10815TIP3    H153936   2.221   5.354  14.509  0.0569  0.2453 -0.3828
10815TIP3    H253937   2.182   5.499  14.488 -0.7570 -0.2180 -2.1646
10816TIP3   OH253938   5.204   0.195   5.267  0.1749  0.0867  1.2143
10816TIP3    H153939   5.243   0.123   5.216 -0.9842 -1.2624  2.1837
10816TIP3    H253940   5.277   0.255   5.283  0.8561 -0.1877 -0.7953
10817TIP3   OH253941   1.009   3.660  16.010 -0.5091 -0.0761  0.0577
10817TIP3    H153942   1.033   3.740  16.057  0.5132 -0.6537  0.5438
10817TIP3    H253943   1.069   3.657  15.935 -0.3237 -0.5528  0.2210
10818TIP3   OH253944   6.191   6.599   5.073 -0.0026  0.1319 -0.3504
10818TIP3    H153945   6.097   6.597   5.051 -0.4525  0.5945  1.4389
10818TIP3    H253946   6.204   6.685   5.114  1.0149 -0.2969  0.2298
10819TIP3   OH253947   5.662   3.647  11.937 -0.0764 -0.0158  0.3734
10819TIP3    H153948   5.624   3.680  12.018 -1.8248 -1.7364  0.3174
10819TIP3    H253949   5.651   3.552  11.943 -1.2083 -0.1147 -2.3014
10820TIP3   OH253950   2.359   4.703  13.892 -0.3399 -0.4381  0.3701
10820TIP3    H153951   2.414   4.697  13.813  1.0359 -0.0388  1.2808
10820TIP3    H253952   2.419   4.683  13.964 -1.9809 -2.5107  1.1894
10821TIP3   OH253953   2.169   1.972  14.177 -0.4504 -0.4799  0.4329
10821TIP3    H153954   2.083   1.950  14.141 -1.4384 -1.2931  3.1351
10821TIP3    H253955   2.175   2.067  14.169 -0.7880 -0.6081 -1.4819
10822TIP3   OH253956   0.753   6.651  17.080  0.5414  0.3326  0.2710
10822TIP3    H153957   0.782   6.697  17.001 -0.9220 -0.1973 -0.5998
10822TIP3    H253958   0.704   6.575  17.047 -0.4954  0.3662  1.6801
10823TIP3   OH253959   6.358   1.350   2.220  0.5376  0.3992 -0.0992
10823TIP3    H153960   6.371   1.444   2.228  2.6597  0.0099  1.7365
10823TIP3    H253961   6.433   1.312   2.266  0.0570 -2.1892 -1.3515
10824TIP3   OH253962   5.378   3.226   6.834 -0.0571 -0.1605 -0.3485
10824TIP3    H153963   5.359   3.153   6.892  0.8633  0.2033  0.4125
10824TIP3    H253964   5.466   3.255   6.858  0.2666  0.1114 -1.7954
10825TIP3   OH253965   1.980   5.086   5.593 -0.6196  0.5614  0.3779
10825TIP3    H153966   1.936   5.024   5.535 -0.3862  0.1603  0.6272
10825TIP3    H253967   1.991   5.038   5.675  1.6902  0.1198 -0.1677
10826TIP3   OH253968   6.450   6.607  16.926  0.0538  0.3844 -0.2247
10826TIP3    H153969   6.426   6.517  16.902  0.9498  0.2299 -0.5698
10826TIP3    H253970   6.526   6.626  16.871  0.3191  1.0888  0.3873
10827TIP3   OH253971   0.474   1.400   1.792  0.0215  0.5440 -0.4688
10827TIP3    H153972   0.446   1.449   1.714  1.2196  1.3814 -0.3793
10827TIP3    H253973   0.514   1.465   1.849  1.4212 -0.4884 -0.2379
10828TIP3   OH253974   3.458   6.504   0.302  0.3218  0.0067 -0.2769
10828TIP3    H153975   3.382   6.450   0.282  1.5380 -2.5638  1.7100
10828TIP3    H253976   3.422   6.578   0.351 -1.2668  0.6344 -2.3236
10829TIP3   OH253977   0.878   3.499   1.983  0.0694  0.2145  0.7329
10829TIP3    H153978   0.960   3.451   1.976  0.6684  1.4198 -0.6204
10829TIP3    H253979   0.815   3.447   1.934  0.3775  0.0656  0.4947
10830TIP3   OH253980   0.095   1.851  10.569 -0.2504  0.0687  0.6176
10830TIP3    H153981   0.168   1.879  10.514  0.4676 -3.2239 -0.2450
10830TIP3    H253982   0.031   1.921  10.563  1.4273  1.4607 -1.3811
10831TIP3   OH253983   3.904   2.723   4.560  0.0527  0.1704  0.2092
10831TIP3    H153984   3.810   2.738   4.551 -0.2316 -1.1805  0.9058
10831TIP3    H253985   3.935   2.713   4.469 -0.8656 -1.6223  0.0661
10832TIP3   OH253986   2.683   5.289  16.592  0.1404 -0.1935  0.5888
10832TIP3    H153987   2.617   5.245  16.538  0.7601  1.2012 -1.3292
10832TIP3    H253988   2.632   5.342  16.653 -0.5644  1.2897 -1.2215
10833TIP3   OH253989   6.049   2.850   4.640  0.1205 -0.0301  0.2142
10833TIP3    H153990   6.013   2.804   4.715 -0.8029  0.4376  0.0724
10833TIP3    H253991   6.058   2.941   4.669 -1.1137  0.3395 -0.5155
10834TIP3   OH253992   0.554   1.105   0.372  0.5147 -0.1490  0.8061
10834TIP3    H153993   0.537   1.024   0.324 -0.2718  0.7924 -0.5369
10834TIP3    H253994   0.648   1.121   0.360  0.4279 -0.2155  0.0490
10835TIP3   OH253995   3.708   1.393   5.023  0.1381 -0.7405  0.1686
10835TIP3    H153996   3.765   1.356   4.955  0.3311 -0.2667  0.0666
10835TIP3    H253997   3.746   1.479   5.041 -0.5231 -0.4368  0.1296
10836TIP3   OH253998   3.955   3.092  17.252 -0.4834  0.7331  0.4794
10836TIP3    H153999   3.890   3.048  17.305 -0.6600  1.1628  0.6214
10836TIP3    H254000   3.937   3.064  17.162 -0.5376  0.4503  0.5793
10837TIP3   OH254001   4.587   4.114  11.589  0.2343  0.5639  0.0989
10837TIP3    H154002   4.675   4.077  11.595  0.0968  0.4094  1.3012
10837TIP3    H254003   4.544   4.063  11.519  0.4522 -0.7038  0.8771
10838TIP3   OH254004   0.958   1.259  12.743 -0.1347 -0.4791 -0.1386
10838TIP3    H154005   0.883   1.250  12.802  0.1916  0.9538  0.5217
10838TIP3    H254006   1.033   1.227  12.793 -0.1111 -0.7372 -0.3404
10839TIP3   OH254007   0.885   5.878   5.936 -0.2864 -0.5677 -0.0937
10839TIP3    H154008   0.891   5.867   6.031 -0.6745 -1.2846 -0.1545
10839TIP3    H254009   0.879   5.789   5.902  2.7539 -0.4760 -0.9842
10840TIP3   OH254010   4.172   0.519  12.021 -0.1167 -0.3213 -0.6649
10840TIP3    H154011   4.097   0.535  11.964 -0.2404  0.1457 -0.3760
10840TIP3    H254012   4.134   0.514  12.109  0.1846 -0.1434 -0.5242
10841TIP3   OH254013   1.825   1.876  11.376  0.2735 -0.4298  0.2777
10841TIP3    H154014   1.879   1.897  11.452 -0.2351  2.4242 -0.1084
10841TIP3    H254015   1.742   1.920  11.393  0.4486  0.9539 -2.3043
10842TIP3   OH254016   2.116   1.213   4.746  0.3880 -0.1397  0.3116
10842TIP3    H154017   2.089   1.141   4.802  0.8151 -0.4372  0.1379
10842TIP3    H254018   2.078   1.291   4.786 -0.8875 -0.5713 -0.0330
10843TIP3   OH254019   1.298   3.121   1.247 -0.0246  0.4329  0.4787
10843TIP3    H154020   1.278   3.214   1.255  0.7771  0.7583 -1.1371
10843TIP3    H254021   1.215   3.077   1.262 -0.5805  1.4562  0.4354
10844TIP3   OH254022   1.534   4.297   2.729 -0.5565  0.7974  0.3199
10844TIP3    H154023   1.470   4.358   2.691 -2.2044 -0.3354  1.2083
10844TIP3    H254024   1.588   4.352   2.786  1.6739  2.4463 -3.2156
10845TIP3   OH254025   6.301   1.643  16.342 -0.5681  0.1586  0.1318
10845TIP3    H154026   6.250   1.630  16.262 -0.9732  0.9358  0.2573
10845TIP3    H254027   6.363   1.712  16.319 -0.5799  0.2718  0.4452
10846TIP3   OH254028   3.541   6.292  15.011 -0.2426 -0.1443 -0.4044
10846TIP3    H154029   3.568   6.280  15.102  0.7696 -0.4138 -0.7299
10846TIP3    H254030   3.474   6.225  14.997  1.3801 -1.7980 -0.5622
10847TIP3   OH254031   0.055   1.104   3.689 -0.1879  0.1635  0.2065
10847TIP3    H154032   0.069   1.091   3.595  1.4241 -0.4841  0.5033
10847TIP3    H254033   0.097   1.188   3.709 -0.8183  0.4608  0.2900
10848TIP3   OH254034   2.960   1.775  14.884 -0.2429 -0.5114 -0.3586
10848TIP3    H154035   2.943   1.737  14.798  0.8140 -1.4766 -0.1535
10848TIP3    H254036   2.875   1.810  14.912 -0.1697  1.5513 -2.5937
10849TIP3   OH254037   2.810   4.859  14.616 -0.2012 -0.2566  0.5903
10849TIP3    H154038   2.901   4.833  14.604  0.2732  1.7863 -0.5684
10849TIP3    H254039   2.814   4.932  14.679 -1.2147 -1.2295  1.8008
10850TIP3   OH254040   5.600   4.796   2.671  0.3415 -0.0040  0.0595
10850TIP3    H154041   5.663   4.856   2.631 -0.2804 -0.7988 -2.1950
10850TIP3    H254042   5.605   4.717   2.618  0.9672 -1.8992  2.8380
10851TIP3   OH254043   0.668   4.553   2.276 -0.0883  0.7456  0.2052
10851TIP3    H154044   0.609   4.497   2.326 -0.5218 -0.5013 -1.6518
10851TIP3    H254045   0.685   4.504   2.196  0.9151  2.5134 -0.6884
10852TIP3   OH254046   2.862   3.635  11.028  0.8723 -0.2043 -0.6642
10852TIP3    H154047   2.913   3.605  11.103 -0.1826  0.9410  0.5503
10852TIP3    H254048   2.804   3.561  11.007 -0.5285  0.3024  1.2245
10853TIP3   OH254049   4.562   3.516   2.027 -0.0600 -0.2759 -0.8745
10853TIP3    H154050   4.504   3.472   2.089 -1.3420  1.5802 -0.7143
10853TIP3    H254051   4.550   3.468   1.945 -0.6081 -0.8919 -0.4360
10854TIP3   OH254052   1.686   1.818   4.727  0.0681  0.2288 -0.4134
10854TIP3    H154053   1.614   1.848   4.783  0.2260 -0.6625  0.2960
10854TIP3    H254054   1.723   1.897   4.689  1.8883  1.1806  3.1238
10855TIP3   OH254055   0.775   1.113  12.888  0.3638  0.6681 -0.0136
10855TIP3    H154056   0.832   1.042  12.857 -1.3533 -0.5233 -0.5936
10855TIP3    H254057   0.694   1.068  12.915 -1.0118  2.4590 -1.0059
10856TIP3   OH254058   6.663   3.826   4.024  0.2501 -0.3954 -0.0399
10856TIP3    H154059   6.721   3.871   3.963  0.3847  0.8069  0.9576
10856TIP3    H254060   6.638   3.893   4.088 -1.4883 -1.1354  0.0808
10857TIP3   OH254061   6.784   0.584  10.934 -0.1803  0.1041  0.3777
10857TIP3    H154062   6.822   0.531  10.863  1.4985  1.3073  0.3578
10857TIP3    H254063   6.777   0.672  10.897 -0.2817  0.5076  1.3480
10858TIP3   OH254064   5.187   5.314   0.865  0.4928  0.0131  0.5106
10858TIP3    H154065   5.151   5.403   0.862  1.2957  0.3339  0.3113
10858TIP3    H254066   5.209   5.301   0.958  1.9608  0.6681  0.2662
10859TIP3   OH254067   3.419   1.949   0.665  0.1120  0.1903 -0.2469
10859TIP3    H154068   3.478   1.986   0.600 -1.8285  0.5721 -1.8671
10859TIP3    H254069   3.340   1.926   0.615 -1.5198  0.6965  2.0018
10860TIP3   OH254070   3.621   3.669  16.591  0.5358  0.0740 -0.4951
10860TIP3    H154071   3.585   3.758  16.592  0.8527  0.1936  0.2641
10860TIP3    H254072   3.670   3.661  16.672 -0.5695 -1.2324  0.0749
10861TIP3   OH254073   1.938   5.641  14.368 -0.5292  0.0146 -0.0850
10861TIP3    H154074   1.963   5.633  14.276 -0.2099 -1.5946  0.1331
10861TIP3    H254075   1.981   5.721  14.397  1.7009 -0.9688 -0.6011
10862TIP3   OH254076   2.973   5.504   5.732  0.4458  0.1174  0.0954
10862TIP3    H154077   2.999   5.566   5.664 -1.3135  0.0924 -0.6305
10862TIP3    H254078   2.895   5.543   5.771  0.1788 -0.9397  0.6279
10863TIP3   OH254079   1.762   2.104   5.457  0.5752  0.1120 -0.1427
10863TIP3    H154080   1.774   2.010   5.453  0.2314  0.0919 -0.6865
10863TIP3    H254081   1.847   2.138   5.486  1.0811 -0.2537 -1.1975
10864TIP3   OH254082   0.635   5.081   4.759  0.1914  0.3772 -0.6039
10864TIP3    H154083   0.580   5.044   4.690 -0.3994  0.6991 -0.3135
10864TIP3    H254084   0.600   5.170   4.772  0.8003  0.5939 -0.4369
10865TIP3   OH254085   3.551   0.339   3.570 -0.2392  0.3854 -0.3236
10865TIP3    H154086   3.541   0.335   3.475  2.1965 -1.6641 -0.5576
10865TIP3    H254087   3.591   0.425   3.585 -1.7736  1.2326 -1.0213
10866TIP3   OH254088   3.742   4.601   5.570  0.4320  0.3448 -0.1692
10866TIP3    H154089   3.664   4.579   5.621  0.9876  0.9220  0.9466
10866TIP3    H254090   3.771   4.686   5.605  2.1492 -0.3406  0.1280
10867TIP3   OH254091   3.414   6.440   5.191  0.1671 -0.0850 -0.3582
10867TIP3    H154092   3.480   6.449   5.123  1.1778  2.2851  0.8783
10867TIP3    H254093   3.463   6.423   5.271 -0.7544  1.1024  0.4772
10868TIP3   OH254094   2.999   1.101  11.654  0.0484 -0.3052  0.5771
10868TIP3    H154095   2.949   1.139  11.582 -0.8107 -3.4821 -0.5641
10868TIP3    H254096   2.937   1.096  11.727  0.1630  0.4241  0.7315
10869TIP3   OH254097   6.140   3.811   1.102  0.9419 -0.0135  0.1482
10869TIP3    H154098   6.069   3.786   1.161 -0.9395  3.1246 -0.6458
10869TIP3    H254099   6.100   3.813   1.015  2.4718 -0.0108 -0.5801
10870TIP3   OH254100   3.088   5.857   0.892 -0.0621  0.1965  0.2218
10870TIP3    H154101   3.020   5.910   0.932 -1.3356 -0.1564 -1.4428
10870TIP3    H254102   3.068   5.767   0.919  0.3116  0.1989  0.5193
10871TIP3   OH254103   6.599   4.089  13.854 -0.7084 -0.0557 -0.2368
10871TIP3    H154104   6.655   4.099  13.931 -1.0842  0.4002 -0.0218
10871TIP3    H254105   6.510   4.090  13.888 -0.8726  0.0212 -0.6633
10872TIP3   OH254106   2.803   3.655   3.233  0.3386  0.2569 -0.2293
10872TIP3    H154107   2.841   3.572   3.203 -0.6434  0.0311 -0.8799
10872TIP3    H254108   2.873   3.697   3.282  1.3784 -0.2220 -1.2717
10873TIP3   OH254109   4.041   6.796  17.194 -0.9365  0.1933 -0.5311
10873TIP3    H154110   4.014   6.704  17.200 -1.8607  0.1774 -3.7753
10873TIP3    H254111   3.970   6.845  17.236 -2.2730 -0.3791 -2.0577
10874TIP3   OH254112   0.009   3.961   3.797 -0.1004  0.5295  0.3880
10874TIP3    H154113  -0.029   4.049   3.789  0.7634  0.8440 -0.4139
10874TIP3    H254114   0.046   3.944   3.710  1.0724 -0.0039  0.9877
10875TIP3   OH254115   1.984   6.211   2.736  0.5959 -0.2269 -0.0404
10875TIP3    H154116   2.003   6.163   2.655 -0.0202  0.0998 -0.3857
10875TIP3    H254117   1.987   6.303   2.711 -0.8789 -0.1502  0.0062
10876TIP3   OH254118   1.090   2.307   5.140  0.4497  0.4629  0.0241
10876TIP3    H154119   1.036   2.355   5.202  0.3549  0.3394  0.0357
10876TIP3    H254120   1.178   2.312   5.176  0.2953 -0.1300  0.4809
10877TIP3   OH254121   4.481   5.951   3.147  0.4843  0.3402  0.6020
10877TIP3    H154122   4.433   6.020   3.103  0.4123 -1.4208 -2.1862
10877TIP3    H254123   4.562   5.942   3.097  1.2159 -0.4998  1.8927
10878TIP3   OH254124   2.542   0.452  14.000 -0.4268  0.5252 -0.1651
10878TIP3    H154125   2.463   0.445  13.947 -1.6282  0.3159  1.5881
10878TIP3    H254126   2.516   0.508  14.073  2.2489  3.9213 -1.6836
10879TIP3   OH254127   6.466   3.438  17.234 -0.0300 -0.3325  0.1213
10879TIP3    H154128   6.526   3.493  17.284  0.2253 -0.3849 -0.1248
10879TIP3    H254129   6.380   3.456  17.272 -0.2568  1.8308 -1.3573
10880TIP3   OH254130   0.050   1.858   2.002 -0.0949 -0.2847 -0.3749
10880TIP3    H154131   0.055   1.772   2.043  0.5581  0.9361  2.1809
10880TIP3    H254132  -0.021   1.850   1.938 -1.1733 -2.2047  1.0285
10881TIP3   OH254133   0.541   0.091  14.219  0.2068 -0.6310 -0.4597
10881TIP3    H154134   0.467   0.092  14.157  0.4679  0.6436 -0.7744
10881TIP3    H254135   0.500   0.080  14.305 -0.3026 -0.5382 -0.6870
10882TIP3   OH254136   6.398   5.519   5.641 -0.3708  0.2384  0.7080
10882TIP3    H154137   6.486   5.538   5.609 -0.9902 -0.1310 -1.2621
10882TIP3    H254138   6.345   5.593   5.612 -0.5793  0.8815  2.6101
10883TIP3   OH254139   5.578   3.921  12.924 -0.5863  0.0889  0.7072
10883TIP3    H154140   5.579   3.948  12.832  0.4574  1.3176  1.0691
10883TIP3    H254141   5.636   3.845  12.927  0.5979  0.9646  0.6020
10884TIP3   OH254142   0.959   2.734  13.828 -0.0902 -0.0883 -0.3952
10884TIP3    H154143   0.939   2.823  13.858  1.9986  0.2766 -0.0074
10884TIP3    H254144   0.944   2.737  13.733  0.0900  0.7250 -0.4048
10885TIP3   OH254145   4.111   1.158  13.600 -0.3039 -0.3571 -0.3809
10885TIP3    H154146   4.114   1.067  13.568  1.9103 -0.2649 -0.4812
10885TIP3    H254147   4.116   1.150  13.695 -0.6661 -0.3572 -0.3606
10886TIP3   OH254148   3.455   0.511   1.468 -0.3710  0.1182  0.2739
10886TIP3    H154149   3.541   0.496   1.431  0.3596  0.9242  1.5931
10886TIP3    H254150   3.395   0.511   1.393  0.6161 -1.4880 -0.5359
10887TIP3   OH254151   0.768   4.882   2.998  0.2044 -0.3296  0.1422
10887TIP3    H154152   0.813   4.825   3.061  0.7647 -0.5948 -0.4910
10887TIP3    H254153   0.820   4.874   2.918 -0.9965 -0.6550 -0.6018
10888TIP3   OH254154   2.509   1.379   3.822  0.0789 -0.6394 -0.2864
10888TIP3    H154155   2.455   1.349   3.749  0.6847  0.6883 -1.2954
10888TIP3    H254156   2.454   1.442   3.868  0.0172 -0.8279 -0.1003
10889TIP3   OH254157   0.348   1.395  13.937 -0.1464 -0.2359  0.3782
10889TIP3    H154158   0.297   1.433  13.865 -0.6752 -3.2703 -0.9628
10889TIP3    H254159   0.284   1.348  13.989  0.6728 -0.4931  1.1629
10890TIP3   OH254160   6.708   0.846   3.210  0.3473  0.1533 -0.1797
10890TIP3    H154161   6.662   0.929   3.224 -1.2209 -0.6332 -0.5859
10890TIP3    H254162   6.659   0.803   3.140  1.8020 -0.6460 -0.7215
10891TIP3   OH254163   6.045   3.181   1.076  0.6273  0.4129  0.2854
10891TIP3    H154164   6.051   3.185   1.171 -0.1096 -0.1657  0.3606
10891TIP3    H254165   6.013   3.268   1.050 -1.2357 -0.1134  0.7425
10892TIP3   OH254166   0.517   3.690  14.723  0.1195 -0.4090  0.3925
10892TIP3    H154167   0.602   3.688  14.767 -0.5385 -0.7167  1.6575
10892TIP3    H254168   0.456   3.651  14.786 -0.8480 -0.7813 -0.7522
10893TIP3   OH254169   1.560   2.022   4.448  0.5893  0.0078 -0.9679
10893TIP3    H154170   1.610   2.104   4.447  0.7940 -0.0342  1.8211
10893TIP3    H254171   1.572   1.986   4.360  2.7807  1.6180 -1.3841
10894TIP3   OH254172   4.767   3.267  14.320  0.7438  0.7246  0.0807
10894TIP3    H154173   4.737   3.177  14.306  0.9560  0.2467  2.5640
10894TIP3    H254174   4.831   3.281  14.249  2.7340 -2.0558  1.2130
10895TIP3   OH254175   0.058   3.981   3.172  0.2654  0.1158 -0.0391
10895TIP3    H154176   0.001   3.905   3.183  1.6376 -1.0439 -0.7546
10895TIP3    H254177  -0.001   4.057   3.177 -1.2190 -1.0240 -0.0599
10896TIP3   OH254178   0.156   5.185  13.685  0.1800 -0.0078 -0.2876
10896TIP3    H154179   0.085   5.222  13.633  0.6841 -0.1952 -1.1324
10896TIP3    H254180   0.188   5.258  13.738  0.6430  0.5787 -1.3494
10897TIP3   OH254181   2.754   0.451  11.189 -0.0309 -0.0502 -0.4024
10897TIP3    H154182   2.682   0.414  11.138  0.0183 -1.6022  0.6436
10897TIP3    H254183   2.715   0.473  11.274  1.1021 -2.6335  0.8432
10898TIP3   OH254184   2.228   4.139  11.231  0.3678 -0.1970  0.0963
10898TIP3    H154185   2.251   4.216  11.180  1.8317 -0.0504  0.9509
10898TIP3    H254186   2.290   4.072  11.203  0.6488 -0.3596  1.0748
10899TIP3   OH254187   4.666   1.906   5.873  0.5588  0.3169 -0.0907
10899TIP3    H154188   4.708   1.877   5.954  0.9441  1.4140  0.1103
10899TIP3    H254189   4.602   1.971   5.901 -1.1164 -1.1376 -0.4227
10900TIP3   OH254190   1.749   3.923  13.762  0.6860  0.2369  0.4324
10900TIP3    H154191   1.663   3.906  13.801  0.1520 -1.9284 -1.6501
10900TIP3    H254192   1.739   4.008  13.718  0.2838  1.0194  1.9701
10901TIP3   OH254193   3.717   5.531   4.680  0.2465  0.2201 -0.4361
10901TIP3    H154194   3.763   5.497   4.758 -1.4102  0.4060  0.6408
10901TIP3    H254195   3.710   5.455   4.622 -1.0760 -0.6505  0.8360
10902TIP3   OH254196   0.090   3.436  13.980  0.1634 -0.1123 -0.9281
10902TIP3    H154197   0.052   3.386  13.907 -1.7709 -0.6784  0.4086
10902TIP3    H254198   0.153   3.376  14.020 -1.8248 -1.3768  0.3943
10903TIP3   OH254199   0.836   1.985  17.203 -0.8083 -0.5467  0.1806
10903TIP3    H154200   0.908   1.939  17.246  0.9201  1.3377 -0.6236
10903TIP3    H254201   0.773   2.002  17.274  0.5110 -0.3445  1.3199
10904TIP3   OH254202   6.570   0.331   5.328  0.2616 -0.4369 -0.2981
10904TIP3    H154203   6.556   0.424   5.345  1.7598 -0.1538 -0.5345
10904TIP3    H254204   6.647   0.328   5.271 -0.2799 -1.7742 -0.9974
10905TIP3   OH254205   0.895   1.260  11.454 -0.4654  0.1292 -0.4732
10905TIP3    H154206   0.946   1.184  11.426 -1.0514 -0.1125 -0.8871
10905TIP3    H254207   0.916   1.328  11.389 -0.0608  0.2730 -0.1918
10906TIP3   OH254208   2.188   3.471   2.636  0.2821  0.5121  0.3934
10906TIP3    H154209   2.136   3.537   2.682 -1.3266 -0.8920  0.6450
10906TIP3    H254210   2.201   3.401   2.700  2.0332  0.6090  0.1522
10907TIP3   OH254211   1.756   4.731  12.083 -0.4402  0.4853 -0.4607
10907TIP3    H154212   1.772   4.689  12.167 -0.5525  1.8956  0.2728
10907TIP3    H254213   1.818   4.803  12.079  0.3349 -0.2303 -2.0868
10908TIP3   OH254214   1.728   5.992  14.900 -0.2138 -0.4740 -0.5535
10908TIP3    H154215   1.820   5.974  14.883 -0.2459 -0.5732 -0.6213
10908TIP3    H254216   1.691   6.012  14.814 -0.2473 -0.3972 -0.5204
10909TIP3   OH254217   2.380   6.735  15.990 -0.2920 -0.2889  0.0081
10909TIP3    H154218   2.469   6.722  16.022  0.2787 -0.2474 -1.5586
10909TIP3    H254219   2.389   6.797  15.917 -1.5734 -0.4587 -0.3064
10910TIP3   OH254220   0.975   6.000   1.890  0.2332 -0.1240 -0.6396
10910TIP3    H154221   0.952   5.928   1.831 -0.5887 -0.0320 -0.4383
10910TIP3    H254222   0.999   5.958   1.972 -1.0795 -0.1379 -0.2507
10911TIP3   OH254223   4.354   6.377  11.910 -0.2375  0.2756  0.0535
10911TIP3    H154224   4.286   6.310  11.919 -0.1118 -0.2199 -2.3695
10911TIP3    H254225   4.306   6.460  11.908 -0.6313  0.0553  0.2190
10912TIP3   OH254226   1.025   0.298   6.433  0.2503  0.4063  1.1624
10912TIP3    H154227   1.040   0.228   6.369  0.9317  1.8812 -0.3371
10912TIP3    H254228   0.966   0.359   6.388 -1.6737  0.0181  3.0488
10913TIP3   OH254229   5.166   2.997   0.923 -0.0688 -0.1079 -0.2192
10913TIP3    H154230   5.081   3.008   0.966  0.3534  0.6891  0.4380
10913TIP3    H254231   5.146   2.998   0.830 -0.6201  1.7290 -0.1152
10914TIP3   OH254232   4.968   2.436  16.126 -0.0038 -0.1348  0.0946
10914TIP3    H154233   5.054   2.407  16.096  0.1811  1.5231 -1.0360
10914TIP3    H254234   4.966   2.530  16.108 -1.0806  0.3498  2.4869
10915TIP3   OH254235   5.088   4.929  15.693  0.3341  0.4173 -0.2483
10915TIP3    H154236   5.103   4.891  15.780 -1.3841  0.1838 -0.0320
10915TIP3    H254237   5.037   4.862  15.647  1.7672  0.2783 -1.6554
10916TIP3   OH254238   1.488   1.975   4.930 -0.2815 -0.4116  0.4856
10916TIP3    H154239   1.419   1.989   4.994 -0.2173  1.0551  0.2506
10916TIP3    H254240   1.444   1.981   4.845  0.2917  1.5505  0.3079
10917TIP3   OH254241   3.652   3.326  15.135  0.5070  0.2329  0.2826
10917TIP3    H154242   3.617   3.298  15.051 -1.0164  0.9629  0.6569
10917TIP3    H254243   3.699   3.250  15.168 -1.3586 -1.0283  0.0939
10918TIP3   OH254244   6.695   2.941   3.823 -0.7963  0.4113  0.0475
10918TIP3    H154245   6.639   2.978   3.891  2.1079  2.5203  1.4299
10918TIP3    H254246   6.683   3.000   3.748 -2.5115 -0.7755 -0.6337
10919TIP3   OH254247   2.685   2.816  14.952  0.2193  0.4618  0.3256
10919TIP3    H154248   2.678   2.911  14.956 -0.1591  0.6068 -2.5275
10919TIP3    H254249   2.646   2.785  15.034 -2.0476  2.6479  0.1182
10920TIP3   OH254250   3.280   3.425   6.150  0.0815  0.0615  0.1024
10920TIP3    H154251   3.309   3.441   6.240 -1.3999  0.1393  0.5834
10920TIP3    H254252   3.298   3.332   6.135  2.1490  0.4843 -0.2301
10921TIP3   OH254253   5.729   6.327   2.816  0.1958 -0.0515  0.2093
10921TIP3    H154254   5.637   6.302   2.830  0.3865 -0.3505  0.9048
10921TIP3    H254255   5.750   6.385   2.889  0.8215 -0.6552  0.5061
10922TIP3   OH254256   0.149   1.436   1.020 -0.1224 -0.4332  0.0240
10922TIP3    H154257   0.242   1.416   1.021 -0.3412 -1.5611 -1.1151
10922TIP3    H254258   0.143   1.524   0.982  0.5103 -0.1587  0.5638
10923TIP3   OH254259   3.604   4.838  14.183  0.6050  0.0106  0.2193
10923TIP3    H154260   3.670   4.776  14.215  0.8612  0.7582  1.1620
10923TIP3    H254261   3.646   4.923  14.188 -0.0984  0.3841 -0.1043
10924TIP3   OH254262   5.849   1.645   1.759 -0.1784 -0.5234  0.1977
10924TIP3    H154263   5.837   1.724   1.706  0.6814 -0.0956  0.6208
10924TIP3    H254264   5.874   1.577   1.696 -2.1578 -0.7807 -0.3329
10925TIP3   OH254265   3.596   6.649  15.295  0.7351 -0.6541  0.6119
10925TIP3    H154266   3.676   6.596  15.297  1.0742 -0.2317 -0.7712
10925TIP3    H254267   3.548   6.616  15.218  0.9470  1.0188 -0.2598
10926TIP3   OH254268   2.425   6.640  12.402 -0.2402  0.2605  0.1002
10926TIP3    H154269   2.459   6.551  12.411 -0.1915  0.3158  0.4898
10926TIP3    H254270   2.471   6.677  12.327  0.7675  0.4367  0.8035
10927TIP3   OH254271   4.431   4.596   4.196  0.8422  0.5932 -0.3707
10927TIP3    H154272   4.430   4.515   4.247  1.5521 -0.3992 -1.9288
10927TIP3    H254273   4.366   4.652   4.239  0.4423 -0.7365  0.7817
10928TIP3   OH254274   5.791   0.970  17.215 -0.2572  0.2983 -0.3176
10928TIP3    H154275   5.803   1.051  17.166  3.1144  0.2541  0.3695
10928TIP3    H254276   5.814   0.901  17.153 -4.5784 -0.3130 -1.3897
10929TIP3   OH254277   3.314   2.623   5.897 -0.7258 -0.3895 -0.2201
10929TIP3    H154278   3.403   2.608   5.927 -0.5996  3.4661  1.5716
10929TIP3    H254279   3.324   2.648   5.805  0.2464  1.4853  0.3611
10930TIP3   OH254280   6.046   2.571  11.995  0.2108 -0.5368 -0.2706
10930TIP3    H154281   6.071   2.628  12.067  0.5104 -0.2793 -0.5802
10930TIP3    H254282   6.081   2.613  11.916 -1.5711  0.0870 -0.7674
10931TIP3   OH254283   4.902   5.705   4.843  0.3307 -0.1661 -0.1722
10931TIP3    H154284   4.840   5.702   4.771 -1.7253  0.2596  1.5365
10931TIP3    H254285   4.893   5.793   4.880  1.7126 -0.2109  0.3337
10932TIP3   OH254286   3.271   1.027   4.070 -0.3279 -0.4693  0.1044
10932TIP3    H154287   3.221   1.108   4.072 -2.4868 -1.7883  1.9273
10932TIP3    H254288   3.205   0.957   4.078  1.4454 -2.4250 -1.5864
10933TIP3   OH254289   1.546   4.460  12.441  0.2310  0.3337 -0.0879
10933TIP3    H154290   1.630   4.426  12.408 -0.5459 -0.2604 -1.5255
10933TIP3    H254291   1.502   4.493  12.363 -1.2633 -0.1941  0.5210
10934TIP3   OH254292   6.048   4.422   5.165 -0.6127  0.2658  0.5601
10934TIP3    H154293   6.060   4.491   5.230  0.3021  1.1182 -0.4880
10934TIP3    H254294   6.133   4.416   5.121 -1.3862  0.0939 -0.9341
10935TIP3   OH254295   3.134   2.153  15.558  0.7381  0.2164 -0.1206
10935TIP3    H154296   3.184   2.150  15.477  1.1149  2.0232  0.0153
10935TIP3    H254297   3.154   2.239  15.595 -1.1059  0.2752  0.8052
10936TIP3   OH254298   0.224   0.578   0.053 -0.3766  0.2767 -0.1052
10936TIP3    H154299   0.249   0.583   0.145  0.4617 -0.9139 -0.2604
10936TIP3    H254300   0.307   0.578   0.006 -0.7354 -0.8865 -0.7642
10937TIP3   OH254301   5.977   0.479   1.914 -0.0684  0.6622  0.0064
10937TIP3    H154302   6.034   0.410   1.949 -1.2800  0.4389  1.6096
10937TIP3    H254303   5.975   0.545   1.983 -0.2188  1.5535 -0.8448
10938TIP3   OH254304   1.569   3.870  15.813  0.3127 -0.3035  0.4224
10938TIP3    H154305   1.526   3.784  15.810 -0.1308 -0.0516 -1.7218
10938TIP3    H254306   1.497   3.933  15.812  0.6637  0.0947  0.1774
10939TIP3   OH254307   1.983   0.161  14.635  0.4293  0.0317  0.3135
10939TIP3    H154308   1.975   0.199  14.722  1.5641  3.3094 -0.9371
10939TIP3    H254309   1.893   0.155  14.603  0.2173  2.1564  0.4048
10940TIP3   OH254310   5.833   3.590  12.231 -0.3071 -0.1143 -0.0111
10940TIP3    H154311   5.771   3.633  12.172 -0.0633 -1.7863 -1.5548
10940TIP3    H254312   5.796   3.502  12.243  2.2304 -1.4678 -1.7456
10941TIP3   OH254313   1.749   2.504   5.555  0.1962 -0.0673  0.1918
10941TIP3    H154314   1.807   2.430   5.573 -0.5326 -0.5211  0.7189
10941TIP3    H254315   1.806   2.581   5.557  0.5837 -0.3771  1.9345
10942TIP3   OH254316   6.379   5.950   2.522 -0.6715 -0.4504 -0.8859
10942TIP3    H154317   6.300   5.935   2.470 -0.8269 -0.9506 -0.4978
10942TIP3    H254318   6.448   5.903   2.475 -0.6480 -0.2072 -1.0971
10943TIP3   OH254319   4.778   3.947   4.839 -0.2185 -0.5064  0.0092
10943TIP3    H154320   4.868   3.921   4.820 -1.1174 -1.9683 -2.4474
10943TIP3    H254321   4.751   3.997   4.762 -0.9087  1.6145  1.5694
10944TIP3   OH254322   5.354   4.971  14.185 -0.1025  0.6209  0.1861
10944TIP3    H154323   5.363   4.948  14.093 -2.3372 -0.6626  0.2518
10944TIP3    H254324   5.305   5.053  14.185 -0.2415  0.5393  0.2288
10945TIP3   OH254325   1.504   5.277  16.822 -0.5631  0.0295  0.0184
10945TIP3    H154326   1.474   5.365  16.797 -3.4686 -0.5264  1.3179
10945TIP3    H254327   1.467   5.220  16.754 -0.3285 -0.4283  0.2745
10946TIP3   OH254328   4.670   6.014  16.219  0.4223  0.0792 -0.2696
10946TIP3    H154329   4.661   6.109  16.225 -1.1755  0.1679 -3.4028
10946TIP3    H254330   4.757   5.996  16.255  1.4421  2.9125 -1.1790
10947TIP3   OH254331   0.251   2.921  17.055  0.1596 -0.3290 -0.5679
10947TIP3    H154332   0.309   2.892  17.125 -0.5134  0.4320  0.3077
10947TIP3    H254333   0.245   3.016  17.065  0.3510 -0.1704 -1.8820
10948TIP3   OH254334   4.767   5.174  13.986 -0.3580 -0.3487 -0.0573
10948TIP3    H154335   4.747   5.260  14.024 -0.0500 -0.4248  0.2746
10948TIP3    H254336   4.823   5.193  13.911 -0.1654 -0.2713  0.1069
10949TIP3   OH254337   5.742   6.414  15.446  0.0963 -0.1292  0.4162
10949TIP3    H154338   5.673   6.373  15.395  0.6930  1.1879 -1.5129
10949TIP3    H254339   5.696   6.469  15.509 -0.6327 -0.9932  0.6528
10950TIP3   OH254340   3.431   3.706   3.322 -0.4096  0.1391  0.4139
10950TIP3    H154341   3.344   3.704   3.361 -0.2749 -0.3839  0.6991
10950TIP3    H254342   3.446   3.798   3.300 -2.6554 -0.3262 -3.4327
10951TIP3   OH254343   6.318   2.047  17.050 -0.2666 -0.3542 -0.1640
10951TIP3    H154344   6.243   2.004  17.091  0.7696 -1.4919  0.6084
10951TIP3    H254345   6.340   2.119  17.108 -2.5809  1.8460 -1.9357
10952TIP3   OH254346   4.388   5.804   0.707 -0.6958  0.0867 -0.4944
10952TIP3    H154347   4.332   5.774   0.779  0.8290 -1.0518  0.2465
10952TIP3    H254348   4.407   5.895   0.727 -1.8012  0.3212 -0.4580
10953TIP3   OH254349   0.492   4.210  14.008  0.3446  0.7238  0.3931
10953TIP3    H154350   0.435   4.144  14.047  0.8157 -1.4650 -2.4722
10953TIP3    H254351   0.433   4.275  13.972 -0.1608  1.2088  2.0419
10954TIP3   OH254352   0.430   5.124  14.375  0.0415 -0.2546 -0.2165
10954TIP3    H154353   0.511   5.094  14.333  0.6733  0.3706  0.5301
10954TIP3    H254354   0.367   5.053  14.359  0.2836 -0.0626 -2.1196
10955TIP3   OH254355   2.766   5.938   4.393 -0.1544 -0.0487 -0.2390
10955TIP3    H154356   2.683   5.985   4.394 -0.8403 -1.2445 -0.3240
10955TIP3    H254357   2.778   5.909   4.483 -0.1559 -0.4580 -0.3722
10956TIP3   OH254358   4.846   5.530  11.173  0.2502 -0.4850  0.4392
10956TIP3    H154359   4.822   5.608  11.222  1.2864  0.6146 -0.7987
10956TIP3    H254360   4.938   5.542  11.150 -0.2832 -0.8381 -2.0339
10957TIP3   OH254361   4.561   4.672   1.847 -0.2464  0.2199  0.0875
10957TIP3    H154362   4.535   4.630   1.929  0.4297 -0.2025  0.0900
10957TIP3    H254363   4.647   4.635   1.827  2.5783  5.0243  2.4933
10958TIP3   OH254364   6.242   4.960  11.820  0.1249 -0.0163  0.6283
10958TIP3    H154365   6.231   4.996  11.732  0.1373 -0.5831  0.3910
10958TIP3    H254366   6.336   4.965  11.837  0.1159  0.1379  0.6242
10959TIP3   OH254367   4.840   6.681   0.749  0.2219 -0.4922  0.0650
10959TIP3    H154368   4.799   6.594   0.754  1.9062 -1.3056  0.1686
10959TIP3    H254369   4.927   6.664   0.712  0.7969  1.0818  0.6521
10960TIP3   OH254370   4.844   4.980  15.216  0.0574 -0.1366 -0.0104
10960TIP3    H154371   4.813   4.989  15.126  1.3855 -0.3351 -0.4998
10960TIP3    H254372   4.922   4.925  15.209 -0.3192 -0.8631  1.3702
10961TIP3   OH254373   0.207   0.983   5.828 -0.3327  0.2348  0.1291
10961TIP3    H154374   0.291   1.026   5.812  0.8163 -2.5826 -1.7503
10961TIP3    H254375   0.203   0.973   5.923  1.1339  1.0435  0.2885
10962TIP3   OH254376   1.578   0.686  11.450  0.0130 -0.1080 -0.1764
10962TIP3    H154377   1.566   0.779  11.469  0.7717  0.1146 -0.8184
10962TIP3    H254378   1.639   0.656  11.518 -1.2272 -0.4310  0.8217
10963TIP3   OH254379   0.934   5.626   4.885 -0.3880  0.2410 -0.2877
10963TIP3    H154380   0.935   5.619   4.789 -1.1409  1.3970 -0.3892
10963TIP3    H254381   0.999   5.693   4.905  0.7991 -1.0098  0.1195
10964TIP3   OH254382   5.678   2.290  14.328 -0.1695 -0.0610 -0.2054
10964TIP3    H154383   5.768   2.315  14.352  0.1103 -0.6210 -0.6641
10964TIP3    H254384   5.642   2.368  14.285  0.2575 -0.0006 -0.4550
10965TIP3   OH254385   5.752   5.240  14.920  0.9374  0.1601 -0.2188
10965TIP3    H154386   5.805   5.319  14.924  0.3751  0.5182  0.2231
10965TIP3    H254387   5.711   5.234  15.007  1.3113 -0.8422 -0.1099
10966TIP3   OH254388   2.460   3.437   1.619  0.1197  0.0442  0.5008
10966TIP3    H154389   2.394   3.504   1.600 -0.5388 -0.6634  0.2721
10966TIP3    H254390   2.531   3.454   1.557  0.7728  1.6669  1.6684
10967TIP3   OH254391   6.774   1.648   6.000  0.2189  0.6116  0.3802
10967TIP3    H154392   6.785   1.629   6.093 -1.2210  0.3778  0.5085
10967TIP3    H254393   6.770   1.743   5.995 -0.4621  0.5957  0.6427
10968TIP3   OH254394   1.595   1.637   1.661 -0.8393  0.6810  0.0881
10968TIP3    H154395   1.654   1.654   1.588  0.0456 -0.4161  0.5268
10968TIP3    H254396   1.509   1.627   1.621 -0.2405 -0.6530 -0.9061
10969TIP3   OH254397   3.827   1.406   3.533  0.5683 -0.2947  0.0195
10969TIP3    H154398   3.875   1.363   3.604 -0.0653 -0.0842  0.5815
10969TIP3    H254399   3.752   1.349   3.516 -0.9212  1.1695  1.5759
10970TIP3   OH254400   3.927   6.559  12.367  0.2755 -0.2397 -0.1173
10970TIP3    H154401   3.941   6.633  12.308 -0.8131  0.4365  0.4618
10970TIP3    H254402   3.998   6.566  12.430 -0.8601  1.4419  1.0457
10971TIP3   OH254403   1.396   3.578  12.001  0.2719 -0.6342 -0.3242
10971TIP3    H154404   1.329   3.624  12.052 -1.6149 -2.9641 -0.5936
10971TIP3    H254405   1.403   3.629  11.920 -2.8422 -1.5518 -1.2439
10972TIP3   OH254406   2.763   2.369  14.900  0.1201  0.0673  0.0780
10972TIP3    H154407   2.671   2.348  14.917  0.0192  0.7432  0.4054
10972TIP3    H254408   2.811   2.321  14.968 -0.1386  1.1781  1.0688
10973TIP3   OH254409   5.558   4.762   5.972  0.0867 -0.6013 -0.3444
10973TIP3    H154410   5.465   4.783   5.985 -0.7357 -2.9053 -2.1346
10973TIP3    H254411   5.605   4.834   6.014 -2.5256  1.3973 -0.6982
10974TIP3   OH254412   2.475   4.600  14.854  0.2396  0.5002  0.1392
10974TIP3    H154413   2.435   4.595  14.767  0.5179  3.3539 -0.1971
10974TIP3    H254414   2.562   4.563  14.842 -1.1770 -3.0390  0.2124
10975TIP3   OH254415   3.617   0.437  15.198 -0.2458  0.2065 -0.0777
10975TIP3    H154416   3.610   0.517  15.147 -2.1721  2.3589  3.3420
10975TIP3    H254417   3.704   0.441  15.238 -0.0938  0.2825 -0.4181
10976TIP3   OH254418   4.205   0.235  16.461  0.0644  0.4444  0.0430
10976TIP3    H154419   4.146   0.310  16.448 -1.9301 -1.0115  0.4333
10976TIP3    H254420   4.280   0.272  16.509 -0.8137  2.2189  0.1049
10977TIP3   OH254421   0.131   4.318   2.889 -0.3885 -0.0331 -0.0503
10977TIP3    H154422   0.211   4.364   2.862  0.3349 -0.2305  1.7222
10977TIP3    H254423   0.162   4.245   2.942 -1.7203 -0.5111  0.0762
10978TIP3   OH254424   4.482   3.536  17.027  0.1713 -0.5203 -0.0453
10978TIP3    H154425   4.420   3.469  17.055  0.3176 -1.1171 -1.1436
10978TIP3    H254426   4.551   3.488  16.981  0.8836  0.2528  0.1964
10979TIP3   OH254427   1.775   4.349  16.585  0.0820 -0.3538 -0.5804
10979TIP3    H154428   1.816   4.436  16.581 -0.7682  0.0457 -0.7410
10979TIP3    H254429   1.780   4.315  16.496  1.0962 -0.7914 -0.3649
10980TIP3   OH254430   5.357   1.734  17.214 -0.4462 -0.4444 -0.0067
10980TIP3    H154431   5.429   1.715  17.153  1.4172  1.0153  1.6508
10980TIP3    H254432   5.329   1.823  17.191 -2.2087 -1.2354 -1.0548
10981TIP3   OH254433   4.069   0.971  14.756  0.1987  0.6855  0.2598
10981TIP3    H154434   4.100   0.930  14.676  0.9712  2.4606 -0.3689
10981TIP3    H254435   3.994   1.024  14.728 -2.0248 -1.7501  1.3818
10982TIP3   OH254436   1.867   5.709   2.362  0.3242 -0.0880 -0.4462
10982TIP3    H154437   1.889   5.713   2.269  0.7407  0.0202 -0.3450
10982TIP3    H254438   1.941   5.665   2.402 -0.0427 -0.5001 -0.2219
10983TIP3   OH254439   0.523   1.212   0.814  0.3019 -0.6339 -0.5316
10983TIP3    H154440   0.510   1.199   0.720  0.5945  1.6551 -0.9178
10983TIP3    H254441   0.588   1.146   0.838  0.2527 -1.2200 -1.9334
10984TIP3   OH254442   6.256   5.109   1.388 -0.0202 -0.3299  0.3342
10984TIP3    H154443   6.341   5.073   1.415 -0.1823 -1.5917 -0.7763
10984TIP3    H254444   6.216   5.039   1.337 -1.0307  0.8624 -0.5392
10985TIP3   OH254445   4.005   5.901  11.086  0.7015  0.2557  0.8107
10985TIP3    H154446   3.997   5.889  10.992 -1.8666  0.2846  0.9825
10985TIP3    H254447   3.990   5.813  11.122 -0.6013  0.6761  1.2943
10986TIP3   OH254448   5.732   1.543   4.914 -0.4200  0.0004 -0.0905
10986TIP3    H154449   5.647   1.572   4.881 -1.0832 -0.7826  0.9306
10986TIP3    H254450   5.782   1.624   4.925 -1.1392  0.4852 -0.3589
10987TIP3   OH254451   2.371   1.563  10.992  0.1192 -0.2595 -0.5458
10987TIP3    H154452   2.308   1.533  10.927 -1.1996  0.9808  0.1144
10987TIP3    H254453   2.379   1.489  11.053 -1.9806  0.1216  0.2635
10988TIP3   OH254454   0.819   4.985  11.921  0.1215 -0.5319  0.0810
10988TIP3    H154455   0.880   4.920  11.955  3.2698  0.7370 -2.8228
10988TIP3    H254456   0.783   4.945  11.841  0.5876  0.4689 -0.6461
10989TIP3   OH254457   3.155   4.856   3.446 -0.5121 -0.4507  0.1230
10989TIP3    H154458   3.082   4.913   3.469  1.2631  1.4737  1.1609
10989TIP3    H254459   3.156   4.855   3.351 -1.4888  0.0501  0.1024
10990TIP3   OH254460   1.213   3.447  14.569  0.0971  0.4784 -0.3724
10990TIP3    H154461   1.198   3.414  14.480  1.0967  0.3019 -0.4813
10990TIP3    H254462   1.261   3.529  14.557  0.0223  0.5779 -0.0010
10991TIP3   OH254463   4.922   3.640   4.950  0.0486  0.3826  0.0407
10991TIP3    H154464   5.010   3.631   4.985  0.2185  2.6104  0.3123
10991TIP3    H254465   4.928   3.715   4.890 -1.6645  0.6002  0.1192
10992TIP3   OH254466   0.217   1.223  11.759 -0.6065 -0.0800  0.1523
10992TIP3    H154467   0.239   1.274  11.837  1.1956 -2.3293  1.1844
10992TIP3    H254468   0.208   1.133  11.791  0.2730 -1.0670 -2.2447
10993TIP3   OH254469   5.636   2.350   1.627  0.3117 -0.2004 -0.0330
10993TIP3    H154470   5.570   2.418   1.637  0.6799  0.1498 -0.0119
10993TIP3    H254471   5.713   2.395   1.593  0.5704 -0.5960  0.0244
10994TIP3   OH254472   2.042   5.101   3.000 -0.4077 -0.4968  0.0579
10994TIP3    H154473   1.966   5.046   2.983 -0.4287 -0.9183  1.4088
10994TIP3    H254474   2.095   5.095   2.920 -0.3026 -2.6879  0.2514
10995TIP3   OH254475   1.600   4.569  15.782  0.0856 -0.2550 -0.4225
10995TIP3    H154476   1.578   4.506  15.850  0.0751 -0.1892 -0.3659
10995TIP3    H254477   1.519   4.581  15.733  0.3699 -1.1419 -1.1277
10996TIP3   OH254478   0.467   1.674  13.432  0.2644  0.6791 -0.3452
10996TIP3    H154479   0.518   1.622  13.371 -0.8090 -0.6031 -0.1776
10996TIP3    H254480   0.483   1.765  13.406  0.8406  0.1959 -1.6956
10997TIP3   OH254481   2.965   5.843   2.018 -0.3390  0.2525  0.0861
10997TIP3    H154482   3.046   5.892   2.031  1.3989 -2.3147 -0.5745
10997TIP3    H254483   2.968   5.775   2.086 -1.0002 -1.0051 -1.1238
10998TIP3   OH254484   1.154   1.458  16.668  0.5630 -0.2036 -0.9874
10998TIP3    H154485   1.195   1.539  16.697  2.3086 -1.2879 -0.3577
10998TIP3    H254486   1.225   1.407  16.629 -0.2373 -1.9383 -0.2522
10999TIP3   OH254487   1.474   5.330   3.471  0.4161 -0.4218 -0.7007
10999TIP3    H154488   1.551   5.384   3.456  0.2105 -0.0891 -0.5709
10999TIP3    H254489   1.406   5.392   3.497  0.2399 -0.7718 -0.3262
11000TIP3   OH254490   4.560   3.838   0.790 -0.4426  0.0233  0.2458
11000TIP3    H154491   4.616   3.911   0.817 -2.6707  1.6458  0.5617
11000TIP3    H254492   4.489   3.878   0.741 -1.8868 -1.9048  0.6959
11001TIP3   OH254493   4.009   4.397   1.684 -0.5341  0.3697 -0.0954
11001TIP3    H154494   3.941   4.344   1.726 -0.5840  0.7498  0.2985
11001TIP3    H254495   4.085   4.338   1.680 -0.9391 -0.1105 -0.6965
11002TIP3   OH254496   4.791   6.215  12.733  0.4083  0.4636 -0.8525
11002TIP3    H154497   4.841   6.234  12.812 -0.1420  0.5652 -0.5245
11002TIP3    H254498   4.712   6.269  12.741 -0.0688 -0.1976 -1.0320
11003TIP3   OH254499   5.276   5.591   1.639  0.4923 -0.3105  0.1078
11003TIP3    H154500   5.328   5.529   1.587 -3.1564 -2.4907 -1.0946
11003TIP3    H254501   5.253   5.543   1.718 -2.0714 -0.4684 -0.6771
11004TIP3   OH254502   3.865   1.578   1.976 -0.0288 -0.0042  0.2030
11004TIP3    H154503   3.786   1.558   2.028  1.0980 -2.2220  1.1128
11004TIP3    H254504   3.867   1.509   1.909 -1.1358  2.4901 -2.5011
11005TIP3   OH254505   5.591   2.587  12.142  0.3063 -0.0081  0.7528
11005TIP3    H154506   5.650   2.605  12.215  0.4904  1.1475  0.3343
11005TIP3    H254507   5.646   2.597  12.064  0.3508 -2.1818  0.4838
11006TIP3   OH254508   5.950   5.474   0.457 -0.1472  0.1929  0.4313
11006TIP3    H154509   5.902   5.416   0.517  0.5186 -1.3845 -0.5255
11006TIP3    H254510   5.945   5.560   0.498 -0.3707 -0.7089  2.3680
11007TIP3   OH254511   4.996   1.732   5.501  0.1106 -0.5491 -0.3356
11007TIP3    H154512   5.044   1.703   5.578 -0.8971 -1.2930  0.0258
11007TIP3    H254513   4.924   1.785   5.536  0.2817  0.0116 -0.8284
11008TIP3   OH254514   5.727   4.189   0.634 -0.3173 -0.3762 -0.1189
11008TIP3    H154515   5.744   4.177   0.541  0.8701 -1.1334  0.1961
11008TIP3    H254516   5.791   4.255   0.662 -2.0789  1.4712 -0.2826
11009TIP3   OH254517   4.692   2.715  11.761 -0.0259  0.0976  0.4901
11009TIP3    H154518   4.615   2.673  11.800  0.3964 -2.0815 -0.9397
11009TIP3    H254519   4.659   2.797  11.725 -2.0110 -1.4552 -1.3882
11010TIP3   OH254520   2.667   3.337  14.965  0.4233 -0.1052 -0.1872
11010TIP3    H154521   2.699   3.332  14.875 -0.3793  0.6560 -0.5258
11010TIP3    H254522   2.610   3.414  14.965  0.2944 -0.2034  0.9322
11011TIP3   OH254523   1.344   0.405  11.151 -0.1953 -0.5285 -0.3167
11011TIP3    H154524   1.282   0.396  11.223 -0.8553 -1.0899 -0.9510
11011TIP3    H254525   1.391   0.486  11.170 -0.9294 -0.2432  0.3015
11012TIP3   OH254526   6.432   4.869   4.053 -0.4934 -0.3124  0.1639
11012TIP3    H154527   6.417   4.777   4.074 -0.0215 -0.5376 -0.4615
11012TIP3    H254528   6.423   4.915   4.137 -0.4702 -0.9592  0.5219
11013TIP3   OH254529   6.571   1.556   0.687  0.2305  0.0218  0.0230
11013TIP3    H154530   6.579   1.493   0.615 -1.0047 -1.8135  1.4255
11013TIP3    H254531   6.494   1.526   0.736  1.2578  1.0116  2.3011
11014TIP3   OH254532   4.577   6.802   2.989 -0.0553  0.1567  0.2124
11014TIP3    H154533   4.594   6.895   3.003 -1.9046  0.5767 -0.1513
11014TIP3    H254534   4.519   6.778   3.061 -0.7639 -0.3406 -0.5116
11015TIP3   OH254535   4.250   6.284  11.445  0.9243 -0.8432  0.1852
11015TIP3    H154536   4.173   6.268  11.500 -0.6118  0.2240 -1.5536
11015TIP3    H254537   4.311   6.214  11.467 -0.0086 -0.9544  2.5541
11016TIP3   OH254538   1.392   1.471   0.985 -0.0668  0.2195  0.0409
11016TIP3    H154539   1.323   1.421   0.942  0.8803  1.1169 -2.6803
11016TIP3    H254540   1.442   1.406   1.035 -2.2437 -0.5796  1.2151
11017TIP3   OH254541   5.092   6.303  12.773 -0.4824  0.4636 -0.0050
11017TIP3    H154542   5.133   6.314  12.687 -0.2593  0.0145  0.0389
11017TIP3    H254543   5.089   6.391  12.810  0.0064  0.5698 -0.2085
11018TIP3   OH254544   1.970   1.721   2.634 -0.0846 -0.7286  0.0432
11018TIP3    H154545   2.043   1.667   2.605  0.1643 -0.4015  0.0701
11018TIP3    H254546   1.955   1.694   2.725 -0.6016 -1.4587 -0.2430
11019TIP3   OH254547   3.199   4.320   1.331 -0.0524 -0.2246 -0.6045
11019TIP3    H154548   3.255   4.390   1.296  2.2472 -1.4723  0.4629
11019TIP3    H254549   3.131   4.367   1.381 -0.8188  1.3741 -3.0746
11020TIP3   OH254550   4.211   5.332  12.539 -0.5809 -0.1498 -0.2234
11020TIP3    H154551   4.140   5.383  12.577 -0.6554  0.4504 -1.1561
11020TIP3    H254552   4.291   5.367  12.580 -0.7127  0.0402 -0.1293
11021TIP3   OH254553   3.076   1.980   3.601 -0.5941  0.1686 -0.2270
11021TIP3    H154554   3.095   1.889   3.577 -0.1372  0.3818 -0.6797
11021TIP3    H254555   3.126   2.032   3.538 -0.2896  0.7330  0.4813
11022TIP3   OH254556   0.873   1.340  15.007  0.6074 -0.1825 -0.0833
11022TIP3    H154557   0.791   1.292  14.995  1.1626 -0.9756 -0.7073
11022TIP3    H254558   0.934   1.275  15.041  1.6896 -0.2041 -2.0113
11023TIP3   OH254559   5.526   4.364   0.621 -0.1467 -0.4830 -0.2237
11023TIP3    H154560   5.594   4.303   0.652  0.2799 -0.6305 -1.4459
11023TIP3    H254561   5.542   4.372   0.527 -0.7116  0.8823 -0.2079
11024TIP3   OH254562   5.742   4.376   1.505  0.2101 -0.3944  0.3864
11024TIP3    H154563   5.773   4.457   1.463 -1.4884 -1.6986 -3.6662
11024TIP3    H254564   5.821   4.323   1.515  1.0729  1.0520  1.4711
11025TIP3   OH254565   2.162   2.640  12.072 -0.0120  0.2817 -0.3447
11025TIP3    H154566   2.253   2.612  12.072 -0.0980 -0.0012 -0.8706
11025TIP3    H254567   2.130   2.619  12.160 -0.2238 -1.7601 -0.8697
11026TIP3   OH254568   2.305   6.638   2.332  0.2480  0.6196 -0.3593
11026TIP3    H154569   2.277   6.627   2.241 -0.4754 -0.9701  0.0270
11026TIP3    H254570   2.240   6.697   2.371 -0.0515  0.4503 -0.6053
11027TIP3   OH254571   0.085   4.228   0.794  0.1108 -0.2312 -0.0090
11027TIP3    H154572  -0.009   4.228   0.816 -0.0288  1.2843 -0.5611
11027TIP3    H254573   0.109   4.135   0.795 -1.7078 -0.7604 -1.1735
11028TIP3   OH254574   6.707   5.794  10.958 -0.1511  0.6829  0.2624
11028TIP3    H154575   6.732   5.880  10.923  0.2244  0.8054  0.8222
11028TIP3    H254576   6.634   5.766  10.903  0.4483  0.8574 -0.6458
11029TIP3   OH254577   3.974   6.433  12.790  0.5360 -0.3143  0.0602
11029TIP3    H154578   4.027   6.357  12.769 -0.4044 -1.1780  0.7320
11029TIP3    H254579   3.965   6.430  12.886 -0.1965  0.1538  0.0148
11030TIP3   OH254580   4.666   6.578  14.508  0.4332 -0.2325  0.3553
11030TIP3    H154581   4.580   6.609  14.534  1.0518  0.8560  1.1626
11030TIP3    H254582   4.726   6.616  14.573  1.4423 -1.4726  0.1625
11031TIP3   OH254583   5.556   6.629  11.512 -0.0735  0.8392  0.3792
11031TIP3    H154584   5.572   6.687  11.587  0.2488  1.1504  0.0749
11031TIP3    H254585   5.564   6.686  11.436 -2.3406  0.9346  0.1944
11032TIP3   OH254586   1.460   1.247  15.723  0.3258 -0.2547  0.5214
11032TIP3    H154587   1.412   1.193  15.785 -1.9051  0.0584 -0.8441
11032TIP3    H254588   1.517   1.302  15.777 -1.3426 -0.1944  2.2573
11033TIP3   OH254589   4.228   4.868   5.547  0.1677 -0.8044  0.1470
11033TIP3    H154590   4.225   4.862   5.642  1.5975 -0.4207  0.2272
11033TIP3    H254591   4.206   4.959   5.528  1.3524 -0.5038  0.1962
11034TIP3   OH254592   3.311   5.244  17.133  0.0935 -0.2699 -0.2747
11034TIP3    H154593   3.219   5.218  17.135 -0.0565  0.2567 -0.1197
11034TIP3    H254594   3.360   5.165  17.156 -0.2753 -0.7481 -1.0970
11035TIP3   OH254595   0.848   0.712   4.170  0.5001  0.4939 -0.2293
11035TIP3    H154596   0.821   0.690   4.259  3.8652  1.4405  1.1010
11035TIP3    H254597   0.903   0.789   4.180 -2.6472  3.3887 -3.6767
11036TIP3   OH254598   5.019   1.393  13.808  0.1008 -0.1130 -0.1924
11036TIP3    H154599   5.015   1.488  13.801  0.7254  0.0992  2.0766
11036TIP3    H254600   4.947   1.370  13.867  1.3939 -0.8121  1.1450
11037TIP3   OH254601   5.255   0.180  11.042  0.0435 -0.1781 -0.2317
11037TIP3    H154602   5.349   0.172  11.028  0.0406 -0.4150 -0.1176
11037TIP3    H254603   5.245   0.189  11.136  0.0067  0.6729 -0.3162
11038TIP3   OH254604   2.077   1.764   4.570  0.0577 -0.4542 -0.0572
11038TIP3    H154605   2.082   1.688   4.629  0.8379 -1.6396 -1.6227
11038TIP3    H254606   1.991   1.757   4.529  0.3915 -0.8647 -0.6898
11039TIP3   OH254607   6.720   3.341  17.055 -0.1399  0.1167  0.2152
11039TIP3    H154608   6.635   3.384  17.067  0.6271  1.8019 -0.1238
11039TIP3    H254609   6.719   3.267  17.115 -2.1646 -0.3639 -0.3956
11040TIP3   OH254610   5.877   1.006   4.474  0.0812  0.0294  0.1913
11040TIP3    H154611   5.890   1.101   4.475 -2.2814  0.3767 -0.2518
11040TIP3    H254612   5.890   0.981   4.383  4.5045 -0.6837  0.9128
11041TIP3   OH254613   3.881   0.115  16.719 -0.0364  1.3753  0.0817
11041TIP3    H154614   3.944   0.054  16.681 -0.1010  1.7694 -0.6687
11041TIP3    H254615   3.905   0.120  16.811 -0.7496 -0.6978  0.4220
11042TIP3   OH254616   4.816   4.638   1.598 -0.3373  0.4181 -0.6041
11042TIP3    H154617   4.906   4.627   1.568 -0.6741 -2.5184 -0.6778
11042TIP3    H254618   4.822   4.634   1.694 -0.1640  2.2669 -0.5252
11043TIP3   OH254619   2.749   3.763  14.154 -0.3589  0.1073 -0.0294
11043TIP3    H154620   2.805   3.701  14.201 -0.8392 -0.4541 -0.1933
11043TIP3    H254621   2.781   3.761  14.064 -0.1451  0.3636  0.0413
11044TIP3   OH254622   3.344   4.141  15.915  0.1216 -0.2715 -0.0001
11044TIP3    H154623   3.420   4.088  15.940 -0.6401 -1.0333  0.7470
11044TIP3    H254624   3.378   4.230  15.910  0.9335 -0.5161  0.9585
11045TIP3   OH254625   2.897   4.613   4.791 -0.0124  0.6268 -0.3298
11045TIP3    H154626   2.955   4.686   4.769 -0.9311  1.4249 -0.1859
11045TIP3    H254627   2.886   4.566   4.708  0.1324  0.9948 -0.5646
11046TIP3   OH254628   3.253   1.343   2.030  0.5550 -0.1479 -0.3136
11046TIP3    H154629   3.302   1.407   1.978 -0.3216 -0.6154 -1.7101
11046TIP3    H254630   3.312   1.267   2.036  0.8047  0.0458 -0.2810
11047TIP3   OH254631   3.402   0.003   5.153 -0.0350  0.5369  0.4138
11047TIP3    H154632   3.458   0.028   5.226  0.4505  0.4780  0.0614
11047TIP3    H254633   3.333  -0.050   5.192 -1.0098  2.2989  1.1602
11048TIP3   OH254634   0.991   1.423  12.505 -0.3762  0.2066 -0.7488
11048TIP3    H154635   1.044   1.444  12.582  0.1334 -0.5043 -0.9055
11048TIP3    H254636   0.944   1.343  12.529 -0.7481  0.3710 -0.9232
11049TIP3   OH254637   5.664   4.553   1.714 -0.1960 -0.9876 -0.7217
11049TIP3    H154638   5.687   4.486   1.650  1.1492 -0.0145 -1.2797
11049TIP3    H254639   5.586   4.519   1.756 -1.2971 -1.5288 -3.0831
11050TIP3   OH254640   5.023   0.428  16.852  0.0764  0.4302 -0.1680
11050TIP3    H154641   5.043   0.464  16.765 -0.4358  0.9536 -0.0769
11050TIP3    H254642   5.107   0.396  16.885  0.1154 -0.5791 -1.2234
11051TIP3   OH254643   2.450   3.881  11.761 -0.0985  0.0927 -0.0401
11051TIP3    H154644   2.421   3.794  11.735 -0.7670  0.3094 -0.0224
11051TIP3    H254645   2.464   3.928  11.679  0.3570 -0.0618 -0.0514
11052TIP3   OH254646   5.048   6.021   4.688  0.2811  0.0706  0.3760
11052TIP3    H154647   5.091   5.936   4.679 -0.9618 -0.4706 -0.5837
11052TIP3    H254648   5.043   6.055   4.599 -0.2528  0.6356  0.6187
11053TIP3   OH254649   6.818   4.247   4.138  0.0288 -0.1328  0.4663
11053TIP3    H154650   6.822   4.317   4.202  0.6927 -1.4403  1.8814
11053TIP3    H254651   6.908   4.235   4.108 -0.0756 -0.3842  0.2452
11054TIP3   OH254652   2.166   2.033   3.308 -0.1554  0.5737 -0.1188
11054TIP3    H154653   2.248   2.062   3.268  0.3443 -1.7173 -0.8331
11054TIP3    H254654   2.180   1.940   3.326 -2.2995  0.3534  0.5408
11055TIP3   OH254655   3.791   4.978  13.923  0.1610 -0.6781  0.3491
11055TIP3    H154656   3.817   5.007  13.835  0.8585 -1.6485  0.2133
11055TIP3    H254657   3.850   4.904  13.941  0.1169 -0.3919  1.6931
11056TIP3   OH254658   6.189   5.665  16.449  0.3646 -0.6147 -0.2565
11056TIP3    H154659   6.284   5.656  16.447  0.5275  0.5298  1.9197
11056TIP3    H254660   6.161   5.609  16.521 -0.5671 -0.4586 -0.4905
11057TIP3   OH254661   4.803   5.176  11.740 -0.1448 -0.0090 -0.4319
11057TIP3    H154662   4.775   5.247  11.798  0.1875 -1.1119  1.1270
11057TIP3    H254663   4.896   5.193  11.726  0.2030 -0.7587  0.8838
11058TIP3   OH254664   1.055   4.667  16.092 -0.3750  0.3356 -0.2506
11058TIP3    H154665   1.077   4.757  16.115  0.3677  0.1916 -0.3836
11058TIP3    H254666   0.993   4.639  16.159 -0.1506  0.7505  0.1277
11059TIP3   OH254667   0.250   2.436   2.211 -0.6233  0.8979 -0.8867
11059TIP3    H154668   0.285   2.482   2.135  1.0618  0.9433 -0.0950
11059TIP3    H254669   0.285   2.483   2.287 -0.2873 -0.6273 -0.0754
11060TIP3   OH254670   1.533   1.928   3.016  0.4991  0.1696  0.0565
11060TIP3    H154671   1.471   1.858   2.994  0.1350  0.9984 -1.6375
11060TIP3    H254672   1.530   1.987   2.941  3.1695  0.3670  0.0646
11061TIP3   OH254673   1.245   6.576  13.611  0.0430 -0.0463  0.0687
11061TIP3    H154674   1.339   6.557  13.614  0.0498  0.0180  0.2247
11061TIP3    H254675   1.240   6.664  13.575 -0.0067 -0.5079 -1.0681
11062TIP3   OH254676   4.013   3.117  12.221 -0.4853  0.2535  0.0391
11062TIP3    H154677   3.925   3.081  12.227 -0.0801 -0.7927 -0.0697
11062TIP3    H254678   4.008   3.202  12.265 -1.1732 -0.4860  1.4234
11063TIP3   OH254679   3.441   0.244  10.740  0.3548  0.2972 -0.2705
11063TIP3    H154680   3.415   0.279  10.655  1.0272  0.4840 -0.4084
11063TIP3    H254681   3.504   0.175  10.719  1.4314  1.1411  0.1026
11064TIP3   OH254682   3.031   1.307   5.047 -0.1516  0.2433  0.5777
11064TIP3    H154683   3.022   1.227   5.098 -0.8005  0.8971  1.5058
11064TIP3    H254684   3.031   1.278   4.956  0.5589 -0.8897  0.9297
11065TIP3   OH254685   2.838   1.044   4.174 -0.3397  0.1217  0.2184
11065TIP3    H154686   2.873   1.120   4.127 -0.5246 -0.3269 -0.6539
11065TIP3    H254687   2.802   1.081   4.255  1.5718  0.6893  0.8571
11066TIP3   OH254688   5.907   5.981   0.558 -0.0402 -0.0575 -0.2631
11066TIP3    H154689   5.851   6.021   0.624  0.5702 -0.1525  0.3166
11066TIP3    H254690   5.973   6.048   0.539  1.5863 -1.1338  1.4417
11067TIP3   OH254691   2.357   6.791   4.236 -0.1894 -0.8107 -0.0285
11067TIP3    H154692   2.298   6.825   4.168  1.6427  1.0183 -0.7661
11067TIP3    H254693   2.307   6.802   4.317 -1.3799 -0.5079 -0.7778
11068TIP3   OH254694   5.494   5.683  14.218  0.1833 -0.4435 -0.1765
11068TIP3    H154695   5.518   5.730  14.299 -0.7636 -1.8079  0.9221
11068TIP3    H254696   5.565   5.703  14.157  0.7339  0.9041  0.8735
11069TIP3   OH254697   0.582   3.866   1.385  0.3762  0.1189 -0.6351
11069TIP3    H154698   0.544   3.795   1.333 -0.0391  0.6270 -1.0322
11069TIP3    H254699   0.676   3.847   1.386  0.2196 -0.6432 -0.4176
11070TIP3   OH254700   1.375   4.782  13.983  0.2163 -0.0530 -0.1789
11070TIP3    H154701   1.391   4.854  14.044 -2.1841  0.0984  0.3218
11070TIP3    H254702   1.340   4.824  13.904 -2.5811 -0.7517  0.6482
11071TIP3   OH254703   4.457   4.697   0.071  0.7569  0.3896  0.0468
11071TIP3    H154704   4.545   4.669   0.099  0.5239  0.1000  0.4933
11071TIP3    H254705   4.423   4.623   0.021  0.3010  0.0224  0.8844
11072TIP3   OH254706   6.019   6.128   2.286  0.0841 -0.1925  0.3384
11072TIP3    H154707   5.925   6.148   2.293  0.1408  0.0533  0.4029
11072TIP3    H254708   6.033   6.058   2.350 -0.1599 -0.5932 -0.0427
11073TIP3   OH254709   2.228   1.214  13.183 -0.1795 -0.4098  0.2053
11073TIP3    H154710   2.160   1.210  13.250  0.1582 -3.7137  0.4722
11073TIP3    H254711   2.200   1.151  13.117  0.7436  0.9755 -1.5397
11074TIP3   OH254712   6.183   2.040   6.129  0.2355  0.5353  0.2197
11074TIP3    H154713   6.179   2.106   6.059  1.2694 -0.7760 -1.1224
11074TIP3    H254714   6.114   1.977   6.107  2.3793 -1.3859 -1.2549
11075TIP3   OH254715   2.842   4.351   1.081 -0.1042 -0.1108 -0.0050
11075TIP3    H154716   2.849   4.428   1.137 -0.0186 -0.3358  0.2944
11075TIP3    H254717   2.748   4.338   1.069 -0.1169  0.0638 -0.0870
11076TIP3   OH254718   1.711   3.166  14.119  0.2375  0.2309 -0.7542
11076TIP3    H154719   1.720   3.076  14.088 -0.5826  0.4706 -1.6980
11076TIP3    H254720   1.788   3.211  14.085  0.9202 -0.2316  0.1603
11077TIP3   OH254721   4.547   3.860   3.664  0.1618  0.0245 -0.6411
11077TIP3    H154722   4.641   3.877   3.673  0.0869 -0.0364  0.3583
11077TIP3    H254723   4.509   3.889   3.747 -0.6937 -0.0497 -0.9948
11078TIP3   OH254724   1.824   5.071   1.489  0.1137 -0.2143 -0.5494
11078TIP3    H154725   1.788   5.084   1.402 -0.2220 -0.0346 -0.3829
11078TIP3    H254726   1.830   5.159   1.526 -0.0762 -0.3218 -0.2584
11079TIP3   OH254727   1.976   3.125   5.681  0.0411 -0.0655 -0.2912
11079TIP3    H154728   1.987   3.208   5.729 -3.0923  0.6229 -0.6143
11079TIP3    H254729   2.025   3.137   5.600  0.9464  0.8561  0.3859
11080TIP3   OH254730   3.260   1.953   5.484  0.3096 -0.0070 -0.0893
11080TIP3    H154731   3.230   1.905   5.561 -0.7952  0.2023 -0.3840
11080TIP3    H254732   3.205   1.922   5.413  0.2849  0.9383 -0.4926
11081TIP3   OH254733   3.835   1.241  14.161  0.1979 -0.1070 -0.1189
11081TIP3    H154734   3.746   1.256  14.128  0.5708 -1.0045 -1.5567
11081TIP3    H254735   3.892   1.255  14.086  1.1527 -1.0695  0.4100
11082TIP3   OH254736   6.446   5.952  12.015 -0.0046  0.3455  0.0863
11082TIP3    H154737   6.364   5.923  12.054 -0.4852  1.0791 -0.3609
11082TIP3    H254738   6.434   6.046  12.003  0.9523  0.4767  0.1338
11083TIP3   OH254739   5.459   2.502   5.719  0.3710  0.3378  0.6491
11083TIP3    H154740   5.484   2.410   5.725 -0.3203  0.0812 -0.3987
11083TIP3    H254741   5.369   2.504   5.750  0.0692  0.5088 -0.2260
11084TIP3   OH254742   1.249   1.368   1.531  0.0336  0.0930 -0.0774
11084TIP3    H154743   1.299   1.361   1.612  1.2258 -2.8078 -1.0060
11084TIP3    H254744   1.174   1.423   1.553  0.7680 -0.0089  2.7719
11085TIP3   OH254745   1.800   3.441  11.689 -0.1858 -0.2535 -0.8789
11085TIP3    H154746   1.848   3.455  11.771 -0.7555  0.2890 -0.6323
11085TIP3    H254747   1.757   3.356  11.701  0.2414 -0.4744 -0.8766
11086TIP3   OH254748   5.011   5.531   0.966  0.3588  0.2518 -0.4613
11086TIP3    H154749   5.064   5.601   1.003 -0.0919  0.5036 -0.2883
11086TIP3    H254750   4.961   5.497   1.040  1.7462 -1.3271 -0.2042
11087TIP3   OH254751   0.629   5.142  16.440 -0.2919  0.4593  0.1015
11087TIP3    H154752   0.605   5.090  16.516  0.5876  0.3943  0.3385
11087TIP3    H254753   0.717   5.111  16.416 -0.1887  1.1071 -0.3819
11088TIP3   OH254754   5.864   0.021   5.185 -0.3363 -0.3085  1.2117
11088TIP3    H154755   5.865  -0.058   5.239  0.4636 -0.9272  0.3170
11088TIP3    H254756   5.772   0.046   5.179 -0.7616 -2.0752  0.2088
11089TIP3   OH254757   6.577   1.447   4.855  0.1351 -0.4107  0.3974
11089TIP3    H154758   6.565   1.365   4.903  1.8872 -0.9432 -0.0590
11089TIP3    H254759   6.670   1.450   4.833 -0.2043  0.9176 -1.0030
11090TIP3   OH254760   0.303   0.402   1.586 -0.2471 -0.1982  0.5235
11090TIP3    H154761   0.273   0.335   1.525 -0.3147 -1.2198  1.6635
11090TIP3    H254762   0.365   0.357   1.643  1.9493  1.4205 -0.5326
11091TIP3   OH254763   6.034   2.745  11.612  0.5261  0.0344 -0.2485
11091TIP3    H154764   6.001   2.764  11.524 -0.5584 -0.6911 -0.0105
11091TIP3    H254765   6.022   2.827  11.660 -1.8155 -0.4721  0.0868
11092TIP3   OH254766   5.340   1.786   2.585  0.4910  0.7690  0.2730
11092TIP3    H154767   5.399   1.828   2.647 -1.7856  2.8023  1.1347
11092TIP3    H254768   5.295   1.719   2.637  2.3986 -1.2101 -0.5300
11093TIP3   OH254769   5.348   6.398  12.937 -0.1565 -0.0785  0.0662
11093TIP3    H154770   5.423   6.338  12.931  0.5345  0.8540 -0.7217
11093TIP3    H254771   5.272   6.340  12.949  0.8123 -0.9724  2.0596
11094TIP3   OH254772   0.996   4.381  10.719 -0.5083  0.0203 -0.8943
11094TIP3    H154773   1.054   4.443  10.674 -1.6832  0.5075 -1.7289
11094TIP3    H254774   0.953   4.333  10.649 -3.1606  1.5280 -0.3515
11095TIP3   OH254775   4.752   5.518   4.115 -0.1568  0.1887  0.5995
11095TIP3    H154776   4.723   5.428   4.105  1.3446 -0.4536  1.8685
11095TIP3    H254777   4.805   5.535   4.037 -1.2951  0.3332 -0.1563
11096TIP3   OH254778   0.509   1.265  16.541  0.1783 -0.0063  0.4009
11096TIP3    H154779   0.565   1.277  16.464  0.6602 -1.0364  0.5788
11096TIP3    H254780   0.571   1.255  16.613 -0.2661  0.4443  0.8457
11097TIP3   OH254781   1.316   3.813  15.618 -0.5077 -0.3728 -0.2505
11097TIP3    H154782   1.376   3.752  15.575 -0.2725  0.1488 -0.6761
11097TIP3    H254783   1.268   3.759  15.681 -1.3968 -1.3174 -1.6932
11098TIP3   OH254784   0.182   0.302   2.738  0.1489 -0.3669  0.3269
11098TIP3    H154785   0.166   0.234   2.673 -1.6133  0.4301 -0.0861
11098TIP3    H254786   0.144   0.269   2.819  0.0598 -0.2439  0.3358
11099TIP3   OH254787   2.106   6.415  14.278 -0.0557 -0.0156  0.0502
11099TIP3    H154788   2.073   6.487  14.224 -1.1283 -0.6965 -0.2143
11099TIP3    H254789   2.182   6.382  14.229  0.7684  1.2676  0.4393
11100TIP3   OH254790   2.129   0.370  15.537 -0.0790 -0.1653  0.2411
11100TIP3    H154791   2.064   0.435  15.512 -0.8780 -0.7119  0.8415
11100TIP3    H254792   2.114   0.357  15.631  1.5186  0.3830  0.5801
11101TIP3   OH254793   6.803   4.815  15.231 -0.0558  0.4687  0.2598
11101TIP3    H154794   6.788   4.760  15.308 -0.9478 -0.0781 -0.2780
11101TIP3    H254795   6.815   4.752  15.159 -0.6185  0.9608 -0.2786
11102TIP3   OH254796   6.424   4.041   1.317 -0.4150  0.6631 -0.1499
11102TIP3    H154797   6.411   3.966   1.259 -1.4501  1.1943 -0.6271
11102TIP3    H254798   6.464   4.005   1.396 -0.6934 -0.3497 -0.4723
11103TIP3   OH254799   4.121   3.589  14.133  0.8651  0.1180 -0.2988
11103TIP3    H154800   4.152   3.666  14.179  0.0123  0.9838 -1.1414
11103TIP3    H254801   4.038   3.616  14.093 -0.2106 -1.6665  0.6181
11104TIP3   OH254802   2.373   0.088  11.589  0.3723 -0.8613 -0.2139
11104TIP3    H154803   2.370   0.036  11.509  1.3359 -0.9666 -0.1896
11104TIP3    H254804   2.466   0.094  11.611  0.2839  0.9216 -0.2510
11105TIP3   OH254805   1.586   2.790  13.078  0.2611 -0.5847 -0.1649
11105TIP3    H154806   1.556   2.743  13.156  0.4404 -0.5026 -0.0471
11105TIP3    H254807   1.541   2.874  13.082  1.0818 -0.1651  0.4136
11106TIP3   OH254808   1.162   2.221  15.108 -0.2510 -0.2265 -0.7869
11106TIP3    H154809   1.246   2.178  15.124  0.0854  0.2391 -1.2516
11106TIP3    H254810   1.101   2.178  15.167  0.4801 -0.0588  0.0980
11107TIP3   OH254811   6.665   4.664   2.402  0.0866 -0.1637  0.6749
11107TIP3    H154812   6.612   4.726   2.351  2.8320  2.7916  1.2641
11107TIP3    H254813   6.643   4.682   2.493  2.0690  1.1390  0.9305
11108TIP3   OH254814   1.068   1.655   4.115 -0.3075 -0.5987  0.8337
11108TIP3    H154815   1.139   1.696   4.066 -0.7327 -1.6075 -0.6463
11108TIP3    H254816   1.110   1.587   4.167  0.1694  0.5804  1.9980
11109TIP3   OH254817   5.366   1.332   3.151  0.0407 -0.1426 -0.4967
11109TIP3    H154818   5.445   1.287   3.182 -0.4170 -0.4784  0.1769
11109TIP3    H254819   5.390   1.363   3.063  0.6405 -0.9717 -0.6343
11110TIP3   OH254820   2.538   6.034   5.163 -1.1161 -0.2965  0.2934
11110TIP3    H154821   2.466   6.096   5.150 -0.2172  0.4047 -1.6201
11110TIP3    H254822   2.526   5.968   5.095  0.7218  0.5146 -0.8775
11111TIP3   OH254823   5.969   3.981  13.717  0.0925 -0.0032 -0.4532
11111TIP3    H154824   6.061   3.995  13.698 -0.0485  1.0971 -0.3263
11111TIP3    H254825   5.961   3.997  13.811 -0.1676 -0.4220 -0.4015
11112TIP3   OH254826   1.425   3.397  10.834  0.2514  0.2639  0.4076
11112TIP3    H154827   1.456   3.478  10.793 -0.5435  0.9970  1.2224
11112TIP3    H254828   1.424   3.333  10.763  1.0757  0.9171 -0.2021
11113TIP3   OH254829   2.512   4.194  14.046  0.1748 -0.1062  0.2048
11113TIP3    H154830   2.493   4.112  14.092 -2.0333  1.0473  1.4169
11113TIP3    H254831   2.586   4.232  14.093 -0.3484 -0.2412  1.1435
11114TIP3   OH254832   6.384   5.317   0.115  0.0903  0.8236 -0.6701
11114TIP3    H154833   6.441   5.267   0.173  0.3849  2.8979  0.8961
11114TIP3    H254834   6.301   5.324   0.164  0.2968  2.4765 -0.5363
11115TIP3   OH254835   5.030   6.288  17.229 -0.4263 -0.0065 -0.5058
11115TIP3    H154836   5.048   6.205  17.185 -0.1675 -1.0595  1.5223
11115TIP3    H254837   4.935   6.295  17.230 -0.4035  0.9215 -2.8234
11116TIP3   OH254838   6.225   6.662  15.320  0.0667  0.1659  1.1949
11116TIP3    H154839   6.154   6.600  15.304  1.0650 -0.7048  0.0136
11116TIP3    H254840   6.304   6.608  15.325  0.9154  1.2956  0.4895
11117TIP3   OH254841   4.824   5.159   1.205 -0.3317 -0.7318  0.4580
11117TIP3    H154842   4.868   5.075   1.191 -1.0177 -0.8018 -1.4699
11117TIP3    H254843   4.755   5.161   1.139 -0.1299  1.4795  0.2581
11118TIP3   OH254844   1.122   6.399  15.403  0.1214 -0.5332 -0.0076
11118TIP3    H154845   1.077   6.329  15.357 -1.0028 -0.6632  1.2452
11118TIP3    H254846   1.101   6.478  15.354 -0.2234 -0.8100 -0.3063
11119TIP3   OH254847   1.213   2.762  15.534 -0.2744 -0.1459  0.3613
11119TIP3    H154848   1.145   2.828  15.518 -0.4877 -0.2456  0.8497
11119TIP3    H254849   1.295   2.807  15.516 -0.5069 -0.2537 -1.0352
11120TIP3   OH254850   5.673   5.906  11.715 -0.1386 -0.4647 -0.5203
11120TIP3    H154851   5.636   5.981  11.762 -0.8154  0.5124 -2.5329
11120TIP3    H254852   5.765   5.903  11.742  0.0253  1.4163 -0.8024
11121TIP3   OH254853   2.017   5.083   3.826  0.0083  0.0858 -0.3686
11121TIP3    H154854   2.107   5.114   3.827 -0.1778  0.6914 -1.2994
11121TIP3    H254855   1.968   5.152   3.779 -1.0661  0.1189  0.7782
11122TIP3   OH254856   0.003   5.177  12.166  0.1815 -0.1196  0.0888
11122TIP3    H154857   0.044   5.129  12.238 -0.6563  0.6747  1.1084
11122TIP3    H254858  -0.082   5.205  12.201 -0.0694  0.5991 -1.0787
11123TIP3   OH254859   3.414   5.093   1.197 -0.2486  0.1005  0.1233
11123TIP3    H154860   3.365   5.013   1.178 -1.2167  0.6896  0.0803
11123TIP3    H254861   3.381   5.157   1.134  0.3076  0.6160  0.3478
11124TIP3   OH254862   6.560   1.195   2.974  0.3421 -0.3372 -0.1310
11124TIP3    H154863   6.578   1.184   2.881 -0.6179 -1.3895 -0.2042
11124TIP3    H254864   6.596   1.281   2.996  0.5213 -0.0633 -1.4877
11125TIP3   OH254865   5.160   5.673   4.321  0.3158  0.0295  0.0662
11125TIP3    H154866   5.207   5.746   4.362  0.3413 -0.3557  0.7223
11125TIP3    H254867   5.230   5.618   4.284  0.3219  0.0558  0.0378
11126TIP3   OH254868   6.259   6.354   3.318  0.0672  0.0543  0.2484
11126TIP3    H154869   6.278   6.321   3.230  0.4863  0.5087  0.1659
11126TIP3    H254870   6.198   6.290   3.355 -0.4071  0.0631 -0.5123
11127TIP3   OH254871   2.829   6.407   5.927 -0.2752  0.4063 -0.1078
11127TIP3    H154872   2.781   6.363   5.857 -0.6124 -0.7320  0.8261
11127TIP3    H254873   2.918   6.373   5.919 -0.6983 -1.0484  1.0713
11128TIP3   OH254874   3.348   6.567   3.396 -0.3629  0.4358  0.0987
11128TIP3    H154875   3.279   6.529   3.343  0.1091  0.5866 -0.6241
11128TIP3    H254876   3.403   6.614   3.334 -0.3291  1.3855  0.8343
11129TIP3   OH254877   3.253   2.226  12.320 -0.1829 -0.5037 -0.1302
11129TIP3    H154878   3.171   2.180  12.338  0.7097 -1.5208  1.3544
11129TIP3    H254879   3.236   2.316  12.348 -1.3247 -0.3220 -1.3515
11130TIP3   OH254880   2.119   3.810  11.219  0.2863  0.4774 -0.2359
11130TIP3    H154881   2.165   3.768  11.292  1.0019 -1.2051 -1.6329
11130TIP3    H254882   2.187   3.830  11.155 -0.3340  1.9688 -0.4404
11131TIP3   OH254883   5.235   0.098   5.690 -0.5997 -0.1435 -0.3339
11131TIP3    H154884   5.144   0.128   5.688 -1.1463 -1.6652  0.3594
11131TIP3    H254885   5.242   0.039   5.615 -0.6048 -1.1473  0.4408
11132TIP3   OH254886   0.034   6.456  16.945 -0.5858 -0.6361  0.4212
11132TIP3    H154887  -0.004   6.499  16.868  0.5473 -0.0348  0.1900
11132TIP3    H254888   0.112   6.507  16.965  1.5399 -3.3009 -0.6368
11133TIP3   OH254889   6.147   5.162   6.025  0.2299  0.2964 -0.0441
11133TIP3    H154890   6.058   5.129   6.041 -0.0756  1.0618 -0.1756
11133TIP3    H254891   6.143   5.200   5.937  0.6658  0.4189 -0.0124
11134TIP3   OH254892   4.622   1.385   0.169  0.0381  0.0405 -0.3738
11134TIP3    H154893   4.616   1.411   0.261 -2.8473 -1.9182  0.0541
11134TIP3    H254894   4.532   1.366   0.143  1.0973 -1.9608 -2.8450
11135TIP3   OH254895   6.162   6.205  16.986 -0.4604 -0.1232  0.1348
11135TIP3    H154896   6.254   6.207  17.013 -0.6658 -0.7020  0.8781
11135TIP3    H254897   6.121   6.143  17.045 -1.6225  1.1479  0.6819
11136TIP3   OH254898   1.784   2.224  15.971  0.6275 -0.6333 -0.1331
11136TIP3    H154899   1.760   2.281  15.898 -1.1220 -0.7364  0.3406
11136TIP3    H254900   1.709   2.165  15.981 -0.1650  0.8451  3.2079
11137TIP3   OH254901   1.567   0.100  12.088 -0.0902  0.5695  0.0640
11137TIP3    H154902   1.536   0.167  12.149 -1.2045  0.9229 -0.8744
11137TIP3    H254903   1.634   0.144  12.036  0.3486  0.4738  0.5430
11138TIP3   OH254904   1.422   6.100  13.161 -0.6700  0.3510 -0.4016
11138TIP3    H154905   1.433   6.005  13.167 -1.4415  0.3217  0.5605
11138TIP3    H254906   1.463   6.135  13.240 -3.2721  0.5609  0.9201
11139TIP3   OH254907   4.580   3.809   4.984 -0.4404  0.2898  0.7661
11139TIP3    H154908   4.634   3.862   4.926  1.1397 -0.4497  1.5299
11139TIP3    H254909   4.621   3.818   5.070 -1.1826 -0.7751  1.2465
11140TIP3   OH254910   5.096   4.335  16.707 -0.1895  0.1306 -0.2027
11140TIP3    H154911   5.171   4.279  16.727 -0.5257  0.4073  1.9219
11140TIP3    H254912   5.124   4.423  16.731 -1.6776  0.0302  2.0494
11141TIP3   OH254913   2.488   4.165  14.710 -0.1586  0.0435  0.1424
11141TIP3    H154914   2.511   4.243  14.660 -0.8502 -0.5899 -1.1755
11141TIP3    H254915   2.436   4.112  14.650  0.9709 -1.8049  0.7594
11142TIP3   OH254916   1.804   0.674  10.640  0.8517 -0.4568 -0.3639
11142TIP3    H154917   1.869   0.724  10.591  0.4742  2.0796  1.6178
11142TIP3    H254918   1.853   0.633  10.711  0.5750  0.0983  0.1528
11143TIP3   OH254919   1.562   3.419   3.289 -0.8611 -0.0128  0.7056
11143TIP3    H154920   1.615   3.414   3.209 -0.9846  0.7570  0.5711
11143TIP3    H254921   1.534   3.510   3.293 -1.6183 -0.2660  1.1382
11144TIP3   OH254922   0.219   0.226   3.507  0.3509 -0.7755  0.0857
11144TIP3    H154923   0.202   0.181   3.424  1.8635  0.7867 -1.1065
11144TIP3    H254924   0.314   0.236   3.510  0.0975  2.0266  0.4579
11145TIP3   OH254925   2.390   6.125   6.319 -0.2955  0.1661 -0.4801
11145TIP3    H154926   2.473   6.174   6.323 -0.1392 -0.2184  1.2252
11145TIP3    H254927   2.335   6.167   6.384 -0.2805 -1.7170  0.7651
11146TIP3   OH254928   1.403   0.080   4.743 -0.1132  0.0310 -0.3863
11146TIP3    H154929   1.494   0.100   4.723  0.3859 -1.0049  0.7637
11146TIP3    H254930   1.374   0.022   4.673  0.1871  0.1676 -0.6208
11147TIP3   OH254931   4.392   4.416   2.411 -0.1993 -0.1165 -0.6885
11147TIP3    H154932   4.482   4.432   2.384  0.1544 -0.6425  0.1577
11147TIP3    H254933   4.339   4.438   2.334  0.4199  2.9251 -0.3129
11148TIP3   OH254934   4.298   2.782  17.272  1.1826 -0.3090 -0.1510
11148TIP3    H154935   4.331   2.870  17.293  1.1465 -0.2917 -0.1675
11148TIP3    H254936   4.371   2.740  17.226  0.7595  0.1337 -1.2457
11149TIP3   OH254937   3.359   3.748  11.742  0.5287 -0.2596 -0.2619
11149TIP3    H154938   3.451   3.771  11.731  0.8273 -1.5898 -0.5484
11149TIP3    H254939   3.333   3.707  11.660  0.0481 -1.0939  0.2918
11150TIP3   OH254940   5.199   4.530  15.260  0.0480 -0.5918 -0.0605
11150TIP3    H154941   5.112   4.515  15.297 -1.1572 -0.0133 -2.5014
11150TIP3    H254942   5.211   4.625  15.264  1.7324 -0.8852  2.6887
11151TIP3   OH254943   1.409   1.520   2.186  0.5712  0.3366  0.6594
11151TIP3    H154944   1.486   1.517   2.243  2.3719  0.3333 -1.6564
11151TIP3    H254945   1.425   1.450   2.122 -0.9424  0.9096 -0.3694
11152TIP3   OH254946   2.802   5.762   0.058 -0.6238  0.2261  0.0895
11152TIP3    H154947   2.797   5.674   0.022 -0.0239 -0.0253  0.6110
11152TIP3    H254948   2.722   5.805   0.027 -0.0312  0.0873 -1.6922
11153TIP3   OH254949   4.086   0.450   5.536  0.4226  0.6156  0.4190
11153TIP3    H154950   4.104   0.383   5.603 -2.1352 -1.1106 -0.5300
11153TIP3    H254951   4.159   0.442   5.474 -0.1180 -1.7197  0.0239
11154TIP3   OH254952   3.026   2.818   5.209 -0.5820  0.0972 -0.0719
11154TIP3    H154953   3.020   2.780   5.122 -1.1620  2.2464 -0.9813
11154TIP3    H254954   2.936   2.839   5.233  0.0073  3.6448 -0.8334
11155TIP3   OH254955   1.080   2.492   1.418  0.2359  0.5202  0.0545
11155TIP3    H154956   0.999   2.510   1.370 -1.1237 -1.3264  1.5759
11155TIP3    H254957   1.061   2.522   1.507  1.2903  0.2317  0.3731
11156TIP3   OH254958   5.410   3.563  17.274 -0.9583 -0.2655 -0.5946
11156TIP3    H154959   5.374   3.564  17.185  1.7600  1.5661 -1.7428
11156TIP3    H254960   5.391   3.650  17.309  0.8943  0.1857 -0.6519
11157TIP3   OH254961   0.581   3.407  13.761 -0.0087 -0.1073 -0.5573
11157TIP3    H154962   0.487   3.410  13.780 -0.2752 -2.5967 -1.2737
11157TIP3    H254963   0.590   3.337  13.696  2.3548  0.0525 -0.4467
11158TIP3   OH254964   3.396   3.466   4.494  0.2878 -0.2311 -0.1172
11158TIP3    H154965   3.433   3.417   4.567  0.3897 -1.5456 -1.0286
11158TIP3    H254966   3.315   3.504   4.529  0.3884 -0.7582  0.7074
11159TIP3   OH254967   2.178   2.472   3.768 -0.3096 -0.4852  0.3311
11159TIP3    H154968   2.158   2.520   3.688 -0.8303  0.6761  1.1440
11159TIP3    H254969   2.266   2.438   3.754 -1.2478 -2.1670 -1.6129
11160TIP3   OH254970   2.360   6.025  15.423  0.1205  0.2950 -0.2026
11160TIP3    H154971   2.311   6.068  15.494 -1.1878 -0.9855 -0.2942
11160TIP3    H254972   2.320   6.059  15.343  1.0054  1.0763 -0.3075
11161TIP3   OH254973   1.067   2.229  17.275  0.2206  0.8306  0.0286
11161TIP3    H154974   1.113   2.310  17.250  2.0936  0.0173  0.7096
11161TIP3    H254975   1.138   2.169  17.300 -1.0912 -1.3199 -1.3263
11162TIP3   OH254976   0.352   5.148  15.625 -0.6376  0.3141  0.3848
11162TIP3    H154977   0.276   5.110  15.582  1.8697 -2.9004 -1.4205
11162TIP3    H254978   0.376   5.222  15.569  0.0915 -1.2900 -1.4706
11163TIP3   OH254979   5.674   5.177  12.358 -0.0497 -0.3078  0.6681
11163TIP3    H154980   5.740   5.159  12.291  0.7336 -0.4304  1.4796
11163TIP3    H254981   5.723   5.207  12.434 -1.0396  1.1653  0.7508
11164TIP3   OH254982   5.443   2.884  10.647 -0.7954 -0.0937  0.2193
11164TIP3    H154983   5.501   2.811  10.668 -1.1778 -0.0222  1.5359
11164TIP3    H254984   5.502   2.952  10.613 -0.4508 -1.0347 -1.1151
11165TIP3   OH254985   4.063   3.436   2.937 -0.7578 -0.3661 -0.2100
11165TIP3    H154986   4.133   3.502   2.938 -0.3647 -0.7836  0.3607
11165TIP3    H254987   3.982   3.487   2.936 -0.4702  0.1576 -4.5275
11166TIP3   OH254988   6.768   3.995   2.295 -0.0512 -0.6118  0.0100
11166TIP3    H154989   6.774   4.065   2.360 -0.3677  0.3705 -0.9981
11166TIP3    H254990   6.757   3.915   2.347  1.5025 -0.0704  1.2084
11167TIP3   OH254991   4.120   1.470   2.010  0.4111  0.0371  0.1891
11167TIP3    H154992   4.167   1.478   1.927  0.0824 -0.9402 -0.1015
11167TIP3    H254993   4.063   1.546   2.014 -0.6943 -0.6974 -1.2032
11168TIP3   OH254994   0.937   3.858  14.597 -0.0007  0.5190 -0.4740
11168TIP3    H154995   0.980   3.828  14.517  0.8461  1.3688 -0.3412
11168TIP3    H254996   1.003   3.848  14.665 -0.7432 -0.2806  0.1506
11169TIP3   OH254997   5.191   2.623   4.678  0.1730  0.0317 -0.0463
11169TIP3    H154998   5.180   2.552   4.741 -0.4019  0.3031  0.1656
11169TIP3    H254999   5.231   2.582   4.602 -3.7721 -1.3526 -1.4903
11170TIP3   OH255000   4.542   1.403   3.730  0.1402 -0.6501  0.2269
11170TIP3    H155001   4.552   1.446   3.814  1.4911 -2.5546  1.0896
11170TIP3    H255002   4.451   1.417   3.706 -0.4092 -0.5897  2.2755
11171TIP3   OH255003   4.148   1.891  13.197  0.1442  0.4409 -0.3923
11171TIP3    H155004   4.159   1.985  13.185 -2.3879  0.8001 -0.2164
11171TIP3    H255005   4.130   1.858  13.110 -0.1273  0.3157 -0.2908
11172TIP3   OH255006   3.952   2.994   4.573  0.0652  0.0204 -0.0612
11172TIP3    H155007   3.949   2.899   4.571  0.8165  0.0046 -2.1416
11172TIP3    H255008   3.933   3.017   4.664 -0.0454 -2.1022  0.4810
11173TIP3   OH255009   3.247   0.268  17.247 -0.3276  0.2149 -0.9625
11173TIP3    H155010   3.236   0.276  17.152 -0.6519 -2.1579 -1.1446
11173TIP3    H255011   3.341   0.277  17.261  0.0342 -1.8757 -1.8067
11174TIP3   OH255012   4.915   2.127  15.968 -0.2871  0.0079  0.1874
11174TIP3    H155013   4.933   2.059  15.903 -1.1359  0.9725 -1.0724
11174TIP3    H255014   4.946   2.208  15.928  2.2348  0.1949  2.3397
11175TIP3   OH255015   4.502   2.394  15.493 -0.4836  0.3793  0.0893
11175TIP3    H155016   4.416   2.436  15.491 -1.3980 -1.4597 -0.7811
11175TIP3    H255017   4.518   2.377  15.586 -1.4210  0.0512  0.1965
11176TIP3   OH255018   1.229   2.881  13.199  0.0052 -0.9022  0.2212
11176TIP3    H155019   1.232   2.872  13.103  0.2721  0.8148  0.0368
11176TIP3    H255020   1.180   2.962  13.213  0.3050 -0.9475  1.5298
11177TIP3   OH255021   6.606   5.630   6.755 -0.4092 -0.1556 -0.7682
11177TIP3    H155022   6.613   5.666   6.843 -2.0251 -1.3246 -0.1444
11177TIP3    H255023   6.648   5.544   6.759 -1.8499 -0.8792 -0.7181
11178TIP3   OH255024   2.639   3.070  12.865 -0.5925  0.1846 -0.2691
11178TIP3    H155025   2.648   3.103  12.955 -2.2356 -0.3652  0.1189
11178TIP3    H255026   2.658   2.976  12.873 -0.9518  0.0952 -0.4524
11179TIP3   OH255027   4.916   3.999   5.440 -0.2480 -0.0402  0.3714
11179TIP3    H155028   4.935   4.092   5.447  0.8428 -0.3436  1.5683
11179TIP3    H255029   4.825   3.990   5.468 -1.4398  1.0898 -2.9599
11180TIP3   OH255030   0.783   3.000   2.309 -0.1681  0.1318 -0.5412
11180TIP3    H155031   0.870   3.006   2.269 -0.8083  1.0572 -1.7917
11180TIP3    H255032   0.801   2.987   2.402  1.3201  1.1491 -0.6678
11181TIP3   OH255033   3.681   6.434  12.205  0.3998 -0.1039 -0.2394
11181TIP3    H155034   3.701   6.458  12.115 -2.2370  1.3533 -0.5032
11181TIP3    H255035   3.765   6.435  12.250  1.5309  0.7452 -2.3160
11182TIP3   OH255036   1.547   4.972  11.996 -0.0367 -0.0691 -0.0058
11182TIP3    H155037   1.569   4.923  12.075  0.5212  0.4650  0.1765
11182TIP3    H255038   1.595   5.055  12.005 -2.0156  1.0703  0.3300
11183TIP3   OH255039   1.602   1.050   5.999  0.3541  0.0970  0.3829
11183TIP3    H155040   1.556   1.119   5.951  2.5955  0.6765 -0.9842
11183TIP3    H255041   1.673   1.096   6.043  0.1568 -0.9293  1.7764
11184TIP3   OH255042   1.094   2.535  15.434 -0.0918 -0.1016  0.1316
11184TIP3    H155043   1.014   2.565  15.389  0.0822  0.5533  0.2595
11184TIP3    H255044   1.116   2.606  15.493  1.0016  0.0306 -0.4288
11185TIP3   OH255045   0.253   0.669  12.798 -0.0526 -0.0810 -0.2714
11185TIP3    H155046   0.186   0.714  12.850 -0.4126  0.2012 -0.9776
11185TIP3    H255047   0.205   0.632  12.724  0.4208 -0.6979 -0.2732
11186TIP3   OH255048   4.741   3.789  12.540  0.1643 -0.4578 -0.1883
11186TIP3    H155049   4.666   3.795  12.481  0.9728 -1.1437 -1.2920
11186TIP3    H255050   4.710   3.828  12.622 -1.3997 -0.7610 -0.6261
11187TIP3   OH255051   2.989   1.175   0.130  0.1982  0.2841  0.1233
11187TIP3    H155052   3.020   1.134   0.211  2.0168 -0.5733 -0.9641
11187TIP3    H255053   2.947   1.103   0.081  1.9352  0.0394 -1.0622
11188TIP3   OH255054   0.281   5.632   1.259  0.7051 -0.9385  0.3874
11188TIP3    H155055   0.260   5.649   1.168 -0.3523 -0.0784  0.7900
11188TIP3    H255056   0.307   5.540   1.261  1.6559 -0.7109 -0.9319
11189TIP3   OH255057   2.758   5.136  12.374 -0.3265  0.0855  0.4153
11189TIP3    H155058   2.677   5.120  12.326  0.1678  0.7305 -0.6529
11189TIP3    H255059   2.764   5.231  12.381  1.3702  0.1446 -1.3432
11190TIP3   OH255060   5.966   4.171  15.250 -0.6445  0.1446 -0.8770
11190TIP3    H155061   5.905   4.099  15.238  0.8214 -0.9041 -2.0733
11190TIP3    H255062   5.931   4.242  15.196 -0.4614 -0.6715 -2.0776
11191TIP3   OH255063   3.335   0.118  10.399  0.2119 -0.0395 -0.0905
11191TIP3    H155064   3.325   0.194  10.456  0.0144 -0.3193  0.2487
11191TIP3    H255065   3.250   0.073  10.402  0.4621 -0.5094  0.0515
11192TIP3   OH255066   6.223   6.658   0.394  0.4229  0.0605 -0.0728
11192TIP3    H155067   6.304   6.708   0.393  0.9857 -0.8481 -0.5682
11192TIP3    H255068   6.249   6.569   0.370 -0.5262 -0.5310  1.0422
11193TIP3   OH255069   5.866   1.076  13.746  0.1154  0.2581 -0.0721
11193TIP3    H155070   5.937   1.129  13.783  1.8694 -2.5086  0.6364
11193TIP3    H255071   5.908   0.993  13.722 -2.7550 -1.1676 -0.2995
11194TIP3   OH255072   4.481   5.894  16.955  0.1213  0.0529 -0.2562
11194TIP3    H155073   4.470   5.957  17.026  1.0761 -1.2826  1.1007
11194TIP3    H255074   4.396   5.850  16.947  0.3971 -0.7137  0.9616
11195TIP3   OH255075   4.041   1.941  17.223  0.1042  0.4610 -0.4523
11195TIP3    H155076   4.052   1.974  17.312  0.7533  0.0670 -0.3877
11195TIP3    H255077   4.128   1.947  17.183  0.2237 -1.0717 -0.4717
11196TIP3   OH255078   1.961   1.371  17.237  0.6239  0.0257 -0.6888
11196TIP3    H155079   2.041   1.322  17.218 -0.1981 -1.0265 -1.4762
11196TIP3    H255080   1.924   1.393  17.152  0.2826  0.8623 -0.3342
11197TIP3   OH255081   5.102   5.847   2.747 -0.2639  0.3188 -0.1067
11197TIP3    H155082   5.050   5.789   2.692  1.0284 -2.5288  1.5236
11197TIP3    H255083   5.188   5.849   2.706 -0.0210  0.2399  0.3902
11198TIP3   OH255084   3.383   5.075  16.310  0.5307  0.0748  0.4625
11198TIP3    H155085   3.307   5.132  16.322  0.0105 -0.4688 -0.1321
11198TIP3    H255086   3.458   5.129  16.331 -0.0882  0.3368  2.0247
11199TIP3   OH255087   5.929   0.349   4.056  0.1374 -0.1343 -0.0117
11199TIP3    H155088   5.895   0.266   4.024  1.4663 -0.7377  0.1222
11199TIP3    H255089   5.963   0.393   3.978 -1.3991  0.7195 -0.2377
11200TIP3   OH255090   3.286   4.590  13.159  0.0033 -0.4312 -0.3477
11200TIP3    H155091   3.286   4.666  13.217  2.0892  0.5932 -1.6198
11200TIP3    H255092   3.193   4.574  13.139 -0.3741  3.2689 -1.9409
11201TIP3   OH255093   0.029   5.359   3.334  0.0757  0.4777  0.7993
11201TIP3    H155094   0.001   5.447   3.361  2.5212  1.9426 -1.2189
11201TIP3    H255095   0.016   5.358   3.239  0.8603 -1.0382  0.6988
11202TIP3   OH255096   1.065   0.642  16.224  0.2047 -0.2423  0.0852
11202TIP3    H155097   1.137   0.697  16.255  1.4679 -1.4190 -0.6782
11202TIP3    H255098   1.083   0.556  16.263 -1.9582 -0.0438  1.5905
11203TIP3   OH255099   5.778   6.356  14.361 -0.0440  0.5957 -0.0710
11203TIP3    H155100   5.746   6.291  14.424 -0.2060 -1.1886 -1.9317
11203TIP3    H255101   5.705   6.368  14.300  0.5141  1.4267 -0.5896
11204TIP3   OH255102   0.464   2.483  12.986  0.1265  0.2472 -0.0430
11204TIP3    H155103   0.441   2.391  12.973 -0.1330  0.3908 -0.6061
11204TIP3    H255104   0.383   2.523  13.020  1.3791 -0.5639  4.2208
11205TIP3   OH255105   1.647   2.974  16.891  0.4798 -0.0756  0.0652
11205TIP3    H155106   1.560   2.991  16.854 -0.0669 -2.1910  0.3212
11205TIP3    H255107   1.648   3.022  16.974  0.1008  1.1054 -0.5912
11206TIP3   OH255108   0.016   2.098  13.536  0.1593 -0.8002 -0.1468
11206TIP3    H155109   0.085   2.164  13.547 -0.9945  0.5291 -0.6738
11206TIP3    H255110   0.048   2.042  13.465  0.3479  0.2831 -0.9359
11207TIP3   OH255111   2.136   5.891   3.394  0.5854 -0.2044 -0.2438
11207TIP3    H155112   2.189   5.815   3.417  1.9220  0.8336  0.1839
11207TIP3    H255113   2.200   5.960   3.377 -0.6082  0.8080 -0.6829
11208TIP3   OH255114   3.433   2.069   1.311 -0.2816  0.0302 -0.4035
11208TIP3    H155115   3.437   1.984   1.267 -2.0621 -1.2626  1.7894
11208TIP3    H255116   3.340   2.092   1.309  0.1173  1.6624 -0.4563
11209TIP3   OH255117   4.237   6.783   1.163  0.3016  0.0813  0.9092
11209TIP3    H155118   4.286   6.841   1.223  1.5889  1.5091 -1.4213
11209TIP3    H255119   4.145   6.795   1.189  0.4054  4.0293 -0.1157
11210TIP3   OH255120   6.286   2.962  12.959 -0.5655 -0.1836 -0.4302
11210TIP3    H155121   6.228   2.911  13.015  1.9280 -2.5518  0.1195
11210TIP3    H255122   6.374   2.942  12.992  0.7541  0.9783 -3.0941
11211TIP3   OH255123   1.922   6.232  12.198 -0.0445 -0.4341  0.7047
11211TIP3    H155124   1.997   6.289  12.177 -0.8842 -0.6232 -3.0878
11211TIP3    H255125   1.893   6.262  12.284  1.9806  2.2672  0.5196
11212TIP3   OH255126   2.070   4.309   2.585  0.1266  0.5281 -0.5943
11212TIP3    H155127   2.012   4.315   2.662 -2.1504 -0.2628 -2.1796
11212TIP3    H255128   2.024   4.248   2.526  2.0117  0.8487 -2.4244
11213TIP3   OH255129   3.399   2.182   5.157  0.3512  0.0487  0.0465
11213TIP3    H155130   3.390   2.260   5.104 -1.7367 -0.2366 -0.0589
11213TIP3    H255131   3.310   2.149   5.168  1.2229 -2.6455 -0.4060
11214TIP3   OH255132   1.151   6.269  11.017 -0.1077 -0.1587 -0.2537
11214TIP3    H155133   1.103   6.222  11.086 -1.1664  0.5305 -0.5051
11214TIP3    H255134   1.113   6.357  11.017  0.7614  0.2254 -0.8687
11215TIP3   OH255135   4.857   5.286   0.184  0.9536 -0.0715 -0.4517
11215TIP3    H155136   4.944   5.316   0.161  1.2203 -1.3069 -1.0696
11215TIP3    H255137   4.798   5.341   0.133  1.3510  0.9258  0.1509
11216TIP3   OH255138   4.725   3.050  11.869 -0.7575  0.9901  0.3508
11216TIP3    H155139   4.760   2.989  11.934  1.9895  1.1062 -0.9548
11216TIP3    H255140   4.631   3.035  11.870 -0.1262 -3.7786 -0.3359
11217TIP3   OH255141   5.564   4.707   0.349 -0.3975 -0.2942 -0.5659
11217TIP3    H155142   5.515   4.783   0.319  0.4183 -0.4874 -2.4249
11217TIP3    H255143   5.623   4.742   0.416  0.5424  0.8796 -1.9805
11218TIP3   OH255144   5.374   2.692  11.908  0.3286  0.2358  0.0230
11218TIP3    H155145   5.282   2.711  11.887 -0.1993 -1.7250  0.5495
11218TIP3    H255146   5.371   2.645  11.991  2.0162  2.3772  1.3583
11219TIP3   OH255147   1.162   3.071   2.937 -0.5017  0.2561 -0.0414
11219TIP3    H155148   1.241   3.116   2.968  1.0474 -0.3624 -2.8638
11219TIP3    H255149   1.196   3.000   2.883 -3.0162 -0.7029 -0.3948
11220TIP3   OH255150   6.527   3.952   1.542  0.1416 -0.2758  0.2183
11220TIP3    H155151   6.612   3.949   1.586 -0.0702  1.4608  0.7822
11220TIP3    H255152   6.467   3.985   1.608 -1.0742 -1.8104 -0.0772
11221TIP3   OH255153   5.688   1.429  11.239 -0.3745 -1.0146  0.3166
11221TIP3    H155154   5.733   1.437  11.155 -0.6855  0.6698  0.2858
11221TIP3    H255155   5.636   1.349  11.232  3.0319 -3.3474  0.5711
11222TIP3   OH255156   3.637   4.241   3.966  0.8508 -0.0139  0.0109
11222TIP3    H155157   3.682   4.320   3.935  0.4974  0.9785  1.9982
11222TIP3    H255158   3.584   4.270   4.040  2.6374 -2.5457  2.3970
11223TIP3   OH255159   2.780   2.640  16.631 -0.6311 -0.3640 -0.5412
11223TIP3    H155160   2.810   2.603  16.714  0.8160 -0.9467 -1.3146
11223TIP3    H255161   2.764   2.564  16.576  1.8442  0.0936 -1.9629
11224TIP3   OH255162   6.034   3.232   2.663 -0.1472 -0.5134 -0.0584
11224TIP3    H155163   6.018   3.297   2.732  0.5328 -0.7666  0.3373
11224TIP3    H255164   6.027   3.148   2.708  0.2654 -0.6796 -0.3099
11225TIP3   OH255165   4.340   2.259   4.300 -0.9722  0.2451 -0.0481
11225TIP3    H155166   4.355   2.169   4.326 -1.1218 -0.3663 -1.9623
11225TIP3    H255167   4.341   2.257   4.204  0.1038  2.4550 -0.1309
11226TIP3   OH255168   0.016   2.142   5.892  0.1241 -0.1357  0.3043
11226TIP3    H155169   0.065   2.220   5.919 -1.3321  1.1553 -0.7305
11226TIP3    H255170  -0.042   2.172   5.823 -2.1941 -1.6127  1.5276
11227TIP3   OH255171   4.697   5.089   3.124 -0.1973  0.4542 -0.0405
11227TIP3    H155172   4.728   5.049   3.205 -1.8314  0.6718  0.7326
11227TIP3    H255173   4.676   5.015   3.067 -1.0934  0.2423  0.5539
11228TIP3   OH255174   3.415   4.706  12.397 -0.4055 -0.2334 -0.1780
11228TIP3    H155175   3.376   4.621  12.418 -0.8436 -0.2493 -1.0423
11228TIP3    H255176   3.342   4.768  12.406  0.3001  0.3162  2.1664
11229TIP3   OH255177   2.544   6.681  13.722  0.5272 -0.5974  0.2913
11229TIP3    H155178   2.449   6.678  13.718  0.5016 -0.7723  0.9153
11229TIP3    H255179   2.563   6.740  13.795  0.9032 -0.1984 -0.1235
11230TIP3   OH255180   0.757   1.259   2.820  0.3050 -0.4380  0.6671
11230TIP3    H155181   0.769   1.255   2.725  1.0985 -1.8479  0.8248
11230TIP3    H255182   0.704   1.338   2.833  0.1313 -0.2610 -0.9464
11231TIP3   OH255183   0.278   0.134   1.771 -0.4398 -0.0023 -0.5490
11231TIP3    H155184   0.308   0.142   1.862 -2.0844 -0.7496  0.0790
11231TIP3    H255185   0.320   0.054   1.739 -0.2545 -0.0024 -0.3077
11232TIP3   OH255186   5.701   2.391  16.356 -0.3106  0.0066  0.1496
11232TIP3    H155187   5.730   2.302  16.336  0.5584  0.1490  0.6996
11232TIP3    H255188   5.779   2.444  16.342 -0.5148  0.5179  0.9273
11233TIP3   OH255189   2.832   0.295  10.444 -0.2454 -0.0575 -0.4098
11233TIP3    H155190   2.780   0.310  10.365  2.0432 -2.1429 -2.4016
11233TIP3    H255191   2.804   0.209  10.475 -1.1331  0.7557  1.0706
11234TIP3   OH255192   6.293   2.189   6.526 -0.2782 -0.3107  0.8672
11234TIP3    H155193   6.384   2.213   6.513 -0.1727 -0.7645  0.7649
11234TIP3    H255194   6.254   2.264   6.572 -0.5878  1.1927 -1.7566
11235TIP3   OH255195   1.865   2.653  10.295  0.1087  0.5104 -0.2441
11235TIP3    H155196   1.788   2.697  10.259 -0.3311 -0.5217 -0.5800
11235TIP3    H255197   1.830   2.578  10.342  0.9236 -0.1090 -0.6085
11236TIP3   OH255198   6.129   0.913  14.372 -0.3120  0.1100 -0.6999
11236TIP3    H155199   6.085   0.848  14.317 -0.8088  0.1537 -0.3566
11236TIP3    H255200   6.064   0.982  14.384 -0.4305 -0.1955  0.4670
11237TIP3   OH255201   5.796   0.665   2.445  0.1255 -0.3430  0.1648
11237TIP3    H155202   5.769   0.646   2.535  1.5655 -0.4064  0.5883
11237TIP3    H255203   5.752   0.748   2.424 -0.9208 -0.7781  0.6069
11238TIP3   OH255204   1.905   6.688   0.304  0.3381  0.3255 -0.4664
11238TIP3    H155205   1.982   6.725   0.261  0.1650  1.6210  0.3467
11238TIP3    H255206   1.864   6.761   0.349 -0.1732 -0.7855  0.9094
11239TIP3   OH255207   4.511   4.674  16.467 -0.3068 -0.0694  0.9460
11239TIP3    H155208   4.468   4.699  16.549 -0.7711  1.1123  0.3691
11239TIP3    H255209   4.470   4.730  16.401  1.2785  0.2263  0.1837
11240TIP3   OH255210   0.083   3.883  14.097 -0.1070  0.5831  0.5420
11240TIP3    H155211   0.069   3.855  14.007  2.0483 -0.7354  0.5894
11240TIP3    H255212   0.034   3.965  14.104  0.0506  0.9292 -1.9375
11241TIP3   OH255213   3.893   1.804   0.669  0.6850  0.0005  0.2973
11241TIP3    H155214   3.896   1.900   0.665 -0.3206  0.0205 -0.1270
11241TIP3    H255215   3.965   1.776   0.613  0.1762  0.5072 -0.6268
11242TIP3   OH255216   1.505   2.486   2.855 -0.1331 -0.0277 -0.2760
11242TIP3    H155217   1.536   2.491   2.946  1.1212 -0.8609 -0.6544
11242TIP3    H255218   1.415   2.519   2.859 -0.6956 -1.6841  1.5668
11243TIP3   OH255219   6.692   5.842   0.592 -0.6115 -0.0783 -0.1110
11243TIP3    H155220   6.696   5.748   0.579 -1.6796 -0.2230  0.5852
11243TIP3    H255221   6.604   5.867   0.562  0.7280  1.1454 -3.1710
11244TIP3   OH255222   5.018   0.796   1.290  0.7004  0.4524 -0.5006
11244TIP3    H155223   4.924   0.812   1.297  0.9643  1.8625 -0.0688
11244TIP3    H255224   5.030   0.765   1.200 -0.2951 -0.6679 -0.2558
11245TIP3   OH255225   6.398   4.364  14.350 -0.0749 -0.0958 -0.0942
11245TIP3    H155226   6.315   4.408  14.369 -1.2128 -1.4485 -1.7571
11245TIP3    H255227   6.378   4.271  14.361  1.4724 -0.3900  0.3120
11246TIP3   OH255228   5.813   1.197   3.771 -0.0199  0.1157  0.4969
11246TIP3    H155229   5.778   1.228   3.688  0.6962  1.0457  0.5434
11246TIP3    H255230   5.745   1.218   3.835 -1.5737 -2.6488 -0.1764
11247TIP3   OH255231   4.685   6.524  16.516 -0.1169 -0.0887 -0.0366
11247TIP3    H155232   4.669   6.448  16.461  1.4098  0.8943 -1.8986
11247TIP3    H255233   4.704   6.595  16.455  0.2711  1.3523  1.7081
11248TIP3   OH255234   5.354   1.643   1.103  0.2023 -0.1725 -0.3362
11248TIP3    H155235   5.375   1.713   1.042  0.2701 -0.1241 -0.2573
11248TIP3    H255236   5.419   1.652   1.173  1.4869 -1.5168 -1.2904
11249TIP3   OH255237   5.752   0.805  15.866  0.3472  0.6671 -0.0786
11249TIP3    H155238   5.787   0.716  15.869  0.5337  0.7927  1.8930
11249TIP3    H255239   5.825   0.860  15.894  0.1967  1.4502 -1.1894
11250TIP3   OH255240   1.493   0.854   6.170 -0.3641 -0.2757  0.9954
11250TIP3    H155241   1.517   0.936   6.127 -1.2293 -0.0401  0.9657
11250TIP3    H255242   1.577   0.814   6.192  0.1974 -1.2275 -2.4806
11251TIP3   OH255243   2.102   2.311   1.217 -0.0857  0.2355 -0.3791
11251TIP3    H155244   2.058   2.296   1.133 -0.1471  1.2392 -0.5318
11251TIP3    H255245   2.167   2.379   1.199  0.5040 -0.1667  0.1933
11252TIP3   OH255246   1.675   1.846   3.567  0.3534 -0.5523  0.1768
11252TIP3    H155247   1.759   1.807   3.590 -0.8299 -3.4733 -0.1854
11252TIP3    H255248   1.687   1.879   3.478  1.3173 -0.3945  0.3680
11253TIP3   OH255249   0.976   3.150   4.050  0.1446  0.0464 -0.4389
11253TIP3    H155250   1.024   3.193   4.120  1.0487  1.4766 -1.9135
11253TIP3    H255251   0.901   3.207   4.033 -2.0680 -2.1195  1.7779
11254TIP3   OH255252   4.283   1.496   4.609 -0.5750 -0.3998 -0.0799
11254TIP3    H155253   4.226   1.535   4.542 -0.2510 -0.2819 -0.2855
11254TIP3    H255254   4.304   1.569   4.667  0.8625 -0.0221 -1.0327
11255TIP3   OH255255   3.050   0.859   1.491 -0.0227 -0.0751 -0.1718
11255TIP3    H155256   3.123   0.898   1.443 -0.4340 -0.3148 -0.9960
11255TIP3    H255257   2.999   0.813   1.425 -1.4491  0.8756  0.2462
11256TIP3   OH255258   0.981   4.057  14.873  0.0118 -0.2914 -0.0781
11256TIP3    H155259   0.933   4.133  14.839  0.5290  0.7989  1.5747
11256TIP3    H255260   0.914   4.005  14.918 -0.1350 -0.2258 -0.2189
11257TIP3   OH255261   0.795   4.115  14.059 -0.2025 -0.0438 -0.0726
11257TIP3    H155262   0.708   4.151  14.079  0.2362 -0.3384  2.4842
11257TIP3    H255263   0.834   4.097  14.144  1.6160 -1.7774 -1.2306
11258TIP3   OH255264   1.204   4.598   4.781 -0.0357 -0.1314 -0.0508
11258TIP3    H155265   1.292   4.565   4.765  0.4615  0.4245  1.4630
11258TIP3    H255266   1.168   4.540   4.848 -0.1862  0.6495  0.5639
11259TIP3   OH255267   5.745   1.355   0.899 -0.6331  0.3577  0.2411
11259TIP3    H155268   5.760   1.416   0.827  0.5752  1.1054  1.0989
11259TIP3    H255269   5.656   1.324   0.886 -0.4683  0.5419 -1.5284
11260TIP3   OH255270   4.682   4.332   4.149 -0.4193 -0.2028 -0.8190
11260TIP3    H155271   4.679   4.239   4.172 -0.5822 -0.2402 -0.9934
11260TIP3    H255272   4.613   4.371   4.203  1.8162  0.3593  1.7401
11261TIP3   OH255273   5.307   1.239  11.028  0.4355  0.0359 -0.3766
11261TIP3    H155274   5.338   1.310  10.971  2.0995 -0.9776 -0.7825
11261TIP3    H255275   5.255   1.183  10.970 -0.3827  0.6106 -0.1937
11262TIP3   OH255276   2.315   1.576  15.074 -0.0186  0.0896 -0.5921
11262TIP3    H155277   2.223   1.589  15.096 -0.0558 -1.1581 -0.0071
11262TIP3    H255278   2.337   1.652  15.019 -1.3838  0.3881 -0.7427
11263TIP3   OH255279   0.352   3.889   0.615 -0.0637  0.4397 -0.9885
11263TIP3    H155280   0.275   3.886   0.672  0.4668  2.6655 -0.0846
11263TIP3    H255281   0.322   3.850   0.533 -1.8609  0.3445 -0.3264
11264TIP3   OH255282   6.773   4.089  15.857  0.6031  0.3738  0.0273
11264TIP3    H155283   6.703   4.120  15.914  1.9988 -1.1592  2.6788
11264TIP3    H255284   6.729   4.064  15.775 -1.9685 -0.7087  1.6786
11265TIP3   OH255285   2.872   0.220   2.298 -0.3302 -0.0243 -0.0207
11265TIP3    H155286   2.949   0.212   2.242 -0.1375 -0.5427  0.3238
11265TIP3    H255287   2.886   0.159   2.370 -0.0435  1.4498  1.2197
11266TIP3   OH255288   3.197   4.717  15.122  0.3815  0.4114 -0.6658
11266TIP3    H155289   3.284   4.678  15.130 -0.0062 -0.2979  0.1784
11266TIP3    H255290   3.139   4.642  15.109 -0.2415  0.7870 -0.0547
11267TIP3   OH255291   4.343   1.441   6.712 -0.0545  0.2652 -0.0563
11267TIP3    H155292   4.249   1.436   6.695  0.3938 -1.3989 -2.3636
11267TIP3    H255293   4.359   1.370   6.775 -0.1804 -0.2521 -0.5961
11268TIP3   OH255294   1.618   1.726  13.231 -0.1319  0.0503  0.5183
11268TIP3    H155295   1.632   1.735  13.137 -0.5138 -2.3847  0.1966
11268TIP3    H255296   1.536   1.679  13.239  0.1720 -0.2391  2.0603
11269TIP3   OH255297   4.185   5.047   4.593 -0.5413 -0.1067 -0.4024
11269TIP3    H155298   4.187   4.973   4.532 -1.6493  1.0502 -1.8983
11269TIP3    H255299   4.276   5.061   4.618 -0.1929 -1.2334 -1.0314
11270TIP3   OH255300   2.639   5.679  15.103  0.8769 -0.5007  0.2854
11270TIP3    H155301   2.551   5.658  15.074  0.1544  2.6693  0.0077
11270TIP3    H255302   2.696   5.653  15.030 -0.2578  1.0946 -1.2120
11271TIP3   OH255303   3.013   3.218  10.612 -0.2079  0.8427  0.3101
11271TIP3    H155304   2.956   3.247  10.542  1.7386  1.0053 -1.2668
11271TIP3    H255305   3.021   3.123  10.599  1.2476  1.0611 -0.5816
11272TIP3   OH255306   5.279   4.563  13.832 -0.2388 -0.2232  0.3961
11272TIP3    H155307   5.347   4.511  13.789 -0.2458 -0.3943  0.5877
11272TIP3    H255308   5.235   4.501  13.890 -2.2031 -0.7441 -1.5607
11273TIP3   OH255309   0.576   5.600   4.931  0.7079 -0.4494 -0.0440
11273TIP3    H155310   0.488   5.582   4.964  0.3321 -0.1462 -0.8641
11273TIP3    H255311   0.635   5.571   5.001 -0.0659 -0.0018  0.7993
11274TIP3   OH255312   4.900   0.187  16.376  0.8276 -0.0260 -0.3276
11274TIP3    H155313   4.975   0.246  16.367  0.3440  1.2855  3.4077
11274TIP3    H255314   4.851   0.221  16.451 -1.9520 -2.5516 -0.8938
11275TIP3   OH255315   5.890   0.615  16.363 -0.7560 -0.4769 -0.2627
11275TIP3    H155316   5.938   0.634  16.283  1.2230  0.6403  1.1604
11275TIP3    H255317   5.925   0.531  16.393  0.0908  0.1755  0.5966
11276TIP3   OH255318   6.604   5.618  16.841 -0.2755 -0.0055 -0.0575
11276TIP3    H155319   6.522   5.599  16.795 -1.1877 -0.5824  1.7535
11276TIP3    H255320   6.637   5.698  16.800 -0.4878 -1.0866 -2.4221
11277TIP3   OH255321   3.749   1.462  13.122  0.2412  0.2753  0.1950
11277TIP3    H155322   3.803   1.440  13.046  0.0560 -0.2950  0.2219
11277TIP3    H255323   3.659   1.448  13.092  0.1082  1.1695  0.1651
11278TIP3   OH255324   0.577   2.291  16.325  0.3162  0.5627  0.3033
11278TIP3    H155325   0.632   2.222  16.290  0.2942 -0.1539  1.6272
11278TIP3    H255326   0.585   2.363  16.263  2.8198  0.5096  0.5265
11279TIP3   OH255327   2.725   3.162   0.629 -0.0802  0.4099 -0.2037
11279TIP3    H155328   2.737   3.090   0.690 -0.8549 -0.1108 -0.6692
11279TIP3    H255329   2.811   3.172   0.588  0.1012 -0.0621  0.0539
11280TIP3   OH255330   5.508   2.470  16.782  0.1965 -0.1974 -0.1063
11280TIP3    H155331   5.415   2.449  16.779 -0.0405  0.7278  0.8536
11280TIP3    H255332   5.551   2.386  16.801 -0.7675  0.1299  3.9415
11281TIP3   OH255333   3.849   5.000  11.773  0.8336 -0.0450  0.1798
11281TIP3    H155334   3.760   4.970  11.794  0.4912  1.1709  0.4809
11281TIP3    H255335   3.836   5.066  11.705  1.6104 -0.7876 -0.7055
11282TIP3   OH255336   4.661   6.550   5.381  0.0449  0.0763 -0.3915
11282TIP3    H155337   4.691   6.640   5.373  0.6708 -0.2017 -1.2696
11282TIP3    H255338   4.736   6.503   5.418 -0.3167 -0.0650  0.1730
11283TIP3   OH255339   2.208   5.995  14.561 -0.1412 -0.3075  0.6421
11283TIP3    H155340   2.221   5.926  14.496 -0.5941  1.7711 -1.7814
11283TIP3    H255341   2.288   6.048  14.555 -0.3046  0.0492  1.5968
11284TIP3   OH255342   0.465   1.612  11.774  0.6657 -0.4568  0.3728
11284TIP3    H155343   0.408   1.563  11.716 -0.3923  2.2626 -0.9713
11284TIP3    H255344   0.406   1.656  11.835  1.3960  1.2136 -0.0985
11285TIP3   OH255345   6.181   0.510  13.130  0.1192  0.4820 -0.5999
11285TIP3    H155346   6.123   0.489  13.202  1.8749 -0.3860  0.6100
11285TIP3    H255347   6.156   0.450  13.060  0.3271 -0.6925  0.3217
11286TIP3   OH255348   1.357   0.932  15.662 -0.7472 -0.2628 -0.1822
11286TIP3    H155349   1.275   0.932  15.613 -1.1158  3.0393  0.3010
11286TIP3    H255350   1.338   0.982  15.741  1.1591 -1.3198  0.9821
11287TIP3   OH255351   1.282   2.183   2.681  0.2026  0.0890 -0.3173
11287TIP3    H155352   1.234   2.259   2.648 -0.1860 -0.5064 -1.1402
11287TIP3    H255353   1.259   2.112   2.621  0.0307 -0.8504  0.8430
11288TIP3   OH255354   0.185   5.076  11.228 -0.1117  0.2716  0.1372
11288TIP3    H155355   0.232   5.145  11.182  0.9315 -0.0792  0.6686
11288TIP3    H255356   0.214   5.083  11.319 -0.5218 -0.4185  0.3276
11289TIP3   OH255357   4.613   6.734  17.063 -0.0441 -0.2797 -0.5607
11289TIP3    H155358   4.546   6.792  17.099 -0.0198 -1.6388  1.8448
11289TIP3    H255359   4.682   6.733  17.130  0.2218 -2.5618 -0.8178
11290TIP3   OH255360   1.281   1.000  12.710  0.8726 -0.3210 -0.3655
11290TIP3    H155361   1.244   0.935  12.649  0.9624 -1.2317  0.5430
11290TIP3    H255362   1.207   1.023  12.767  0.9349  0.1062 -0.4592
11291TIP3   OH255363   1.476   5.542  15.489 -0.8438 -0.3672  0.3469
11291TIP3    H155364   1.493   5.614  15.550 -0.7171 -0.1101  0.0112
11291TIP3    H255365   1.409   5.489  15.532  1.6759 -2.1369  2.3101
11292TIP3   OH255366   2.487   1.540  14.506  0.1813  0.1818  0.0232
11292TIP3    H155367   2.453   1.566  14.420 -0.5869 -0.7351  0.0488
11292TIP3    H255368   2.562   1.598  14.520 -1.1539  2.0088 -0.1846
11293TIP3   OH255369   1.662   0.554  13.914 -0.4429  0.1154 -0.1656
11293TIP3    H155370   1.576   0.516  13.934  0.2626 -1.6386 -0.3955
11293TIP3    H255371   1.660   0.571  13.820 -0.2549 -0.6721 -0.3139
11294TIP3   OH255372   1.916   2.687  14.790  0.2762  0.1291 -0.1362
11294TIP3    H155373   2.000   2.650  14.816 -1.0108 -2.1754  0.8775
11294TIP3    H255374   1.933   2.781  14.782  2.8077 -0.2289  0.5529
11295TIP3   OH255375   1.567   5.509  14.895 -0.1179 -0.3355  0.1566
11295TIP3    H155376   1.514   5.508  14.975 -0.2008 -0.5846  0.1016
11295TIP3    H255377   1.655   5.486  14.924 -0.0727 -0.0800  0.2264
11296TIP3   OH255378   6.138   3.803  16.217 -0.2400 -0.0592 -0.4074
11296TIP3    H155379   6.223   3.820  16.178 -0.2287 -0.1555 -0.4255
11296TIP3    H255380   6.115   3.714  16.187 -1.3111  0.7756 -2.1494
11297TIP3   OH255381   5.035   5.730   3.016  0.1992  0.0953 -0.2703
11297TIP3    H155382   5.005   5.793   3.083  2.9197  1.3597 -0.1911
11297TIP3    H255383   5.055   5.784   2.940  1.9811 -0.7579 -0.4164
11298TIP3   OH255384   6.522   2.038  12.117 -0.1179  0.1116  0.1197
11298TIP3    H155385   6.605   2.001  12.086 -0.0052  1.0923 -0.7768
11298TIP3    H255386   6.536   2.053  12.210  1.0868  1.2466 -0.2336
11299TIP3   OH255387   4.090   3.005   2.448 -0.4595 -0.3157  0.4074
11299TIP3    H155388   4.049   2.953   2.517 -1.6925  1.1644  0.8105
11299TIP3    H255389   4.018   3.054   2.409  1.0300  3.1425  1.7967
11300TIP3   OH255390   3.232   5.568  16.883 -0.1611 -0.8752 -0.5324
11300TIP3    H155391   3.235   5.501  16.815 -0.1858  1.3162 -2.7838
11300TIP3    H255392   3.163   5.628  16.855 -0.6001 -0.2586  1.7664
11301TIP3   OH255393   5.792   6.516  10.502  0.3520  0.2004 -0.2173
11301TIP3    H155394   5.743   6.441  10.535 -0.0151  1.2238  1.6025
11301TIP3    H255395   5.801   6.575  10.577 -0.3765  2.5222 -1.8806
11302TIP3   OH255396   6.245   5.436   1.989  0.6786 -0.5858 -0.3660
11302TIP3    H155397   6.229   5.464   1.899 -0.8308  1.3795  0.5001
11302TIP3    H255398   6.229   5.513   2.042  0.1635 -2.0866  1.7314
11303TIP3   OH255399   0.780   4.772  12.614  0.1083 -0.5281 -0.2530
11303TIP3    H155400   0.730   4.784  12.534 -0.1398 -2.0438 -0.3292
11303TIP3    H255401   0.815   4.859  12.634 -1.6131  0.3055 -0.8175
11304TIP3   OH255402   5.775   6.322   4.136  0.2570  0.0546  0.0841
11304TIP3    H155403   5.813   6.407   4.113  0.2960  0.3373  1.1236
11304TIP3    H255404   5.753   6.282   4.053  1.5465  0.4841 -0.4843
11305TIP3   OH255405   6.545   3.985  12.413 -0.1571  0.0359 -0.1670
11305TIP3    H155406   6.484   3.980  12.486 -0.5343 -1.5656 -0.5820
11305TIP3    H255407   6.496   3.951  12.338  0.7086  0.2918 -0.8571
11306TIP3   OH255408   4.936   6.024  14.726  0.5259 -0.3190 -0.1003
11306TIP3    H155409   4.968   6.114  14.723 -1.1416  0.3194  0.8579
11306TIP3    H255410   4.862   6.022  14.665  1.4471 -1.4236 -1.2186
11307TIP3   OH255411   4.573   6.209  12.354 -0.2474 -0.7720 -0.0201
11307TIP3    H155412   4.656   6.234  12.394 -0.7449 -0.1868  0.6738
11307TIP3    H255413   4.541   6.137  12.408 -0.0075 -1.2554 -0.5197
11308TIP3   OH255414   0.534   4.229   1.987  0.1136  0.1038 -0.1035
11308TIP3    H155415   0.451   4.275   1.970 -0.3949 -0.8412 -0.1655
11308TIP3    H255416   0.596   4.300   2.003 -1.0353  0.8009  1.4794
11309TIP3   OH255417   4.784   0.038  12.265  0.0655  0.2577  0.8450
11309TIP3    H155418   4.862   0.064  12.216  0.0050  0.2129  0.7270
11309TIP3    H255419   4.783  -0.057  12.260  0.4444  0.2100  1.5134
11310TIP3   OH255420   1.410   0.938   0.311  0.4764  0.5383 -0.1172
11310TIP3    H155421   1.346   0.888   0.260 -0.3549  0.2674  1.1583
11310TIP3    H255422   1.379   0.930   0.402  0.8158  2.6275  0.1992
11311TIP3   OH255423   1.025   0.261  15.054  0.0456 -0.3947 -0.0824
11311TIP3    H155424   0.945   0.218  15.085 -0.6141  1.0983  0.3539
11311TIP3    H255425   1.051   0.318  15.127  0.5355  0.4013 -0.8697
11312TIP3   OH255426   1.261   2.211   2.968  0.4799 -0.6618 -0.4498
11312TIP3    H155427   1.167   2.198   2.963  0.7757 -3.0474 -0.2588
11312TIP3    H255428   1.290   2.214   2.877  0.4855 -2.1074 -0.5050
11313TIP3   OH255429   4.800   0.509  11.292  0.9045 -0.4502 -0.1812
11313TIP3    H155430   4.814   0.558  11.211 -2.1715 -2.1890 -1.8448
11313TIP3    H255431   4.723   0.550  11.332  2.8710  0.9336  2.3803
11314TIP3   OH255432   3.104   0.176  12.874  0.1877  0.2341  0.2235
11314TIP3    H155433   3.146   0.208  12.795  1.2121 -0.8944  0.2980
11314TIP3    H255434   3.127   0.240  12.941  0.3280  0.5407 -0.1188
11315TIP3   OH255435   0.523   5.252  12.928  0.3559  0.2602  0.0555
11315TIP3    H155436   0.618   5.256  12.934  0.2834  3.1239  0.0106
11315TIP3    H255437   0.495   5.212  13.011  1.5690 -0.7924 -0.0184
11316TIP3   OH255438   2.789   2.741   1.873 -0.2762  0.1884 -0.1931
11316TIP3    H155439   2.811   2.830   1.900 -1.4934  0.5754 -0.4408
11316TIP3    H255440   2.707   2.750   1.825 -1.3948 -1.3064  1.3832
11317TIP3   OH255441   5.503   4.497  11.483 -0.0818  0.6874  0.2873
11317TIP3    H155442   5.533   4.588  11.488  0.9464  0.3384  0.6663
11317TIP3    H255443   5.569   4.448  11.533 -0.1896 -0.3735 -0.5961
11318TIP3   OH255444   6.192   2.612  15.553  0.2194  0.2799 -0.7806
11318TIP3    H155445   6.107   2.646  15.578 -0.4216 -2.7244  1.3567
11318TIP3    H255446   6.173   2.530  15.506  1.8669  0.1050 -1.1933
11319TIP3   OH255447   1.871   5.999   2.018 -1.0442 -0.2049 -0.2690
11319TIP3    H155448   1.903   6.042   2.098 -1.8956  1.2380 -0.6836
11319TIP3    H255449   1.950   5.965   1.976 -0.4425  0.1960  0.5151
11320TIP3   OH255450   6.447   6.491   5.326  0.0249  0.3896 -0.5138
11320TIP3    H155451   6.491   6.571   5.298  0.3933  0.2017 -0.4754
11320TIP3    H255452   6.507   6.451   5.389 -0.2320  0.1685 -0.4069
11321TIP3   OH255453   0.834   1.687   3.340  0.3901  0.2398  0.0683
11321TIP3    H155454   0.833   1.724   3.252  0.3060  0.6105  0.2227
11321TIP3    H255455   0.927   1.684   3.364  0.3649  0.8312  0.2522
11322TIP3   OH255456   1.098   0.828  14.149  0.3434 -0.7443 -0.0118
11322TIP3    H155457   1.035   0.880  14.099  0.8583  0.1079  0.2232
11322TIP3    H255458   1.060   0.820  14.236 -0.3963 -1.9485 -0.4289
11323TIP3   OH255459   6.031   6.019  12.171  0.1785  0.5037 -0.1282
11323TIP3    H155460   6.004   6.085  12.234 -1.6593 -1.7532  1.5854
11323TIP3    H255461   5.949   5.975  12.146  1.2234 -0.5010 -1.9295
11324TIP3   OH255462   4.144   4.213   3.713 -0.2021 -0.5582  0.3688
11324TIP3    H155463   4.159   4.266   3.791 -0.0602 -0.6792  0.4257
11324TIP3    H255464   4.209   4.143   3.720 -0.3234 -0.6826  0.2449
11325TIP3   OH255465   0.873   1.895  15.742  0.4998  0.2854 -0.1980
11325TIP3    H155466   0.915   1.814  15.711  1.0219  0.1967  0.7483
11325TIP3    H255467   0.849   1.940  15.661  2.9609  0.6342 -0.7982
11326TIP3   OH255468   3.241   1.318  12.162  0.4926  0.1810 -0.5617
11326TIP3    H155469   3.211   1.233  12.195  1.0287  1.1563  2.6279
11326TIP3    H255470   3.301   1.296  12.091  0.3086 -2.1038 -0.0589
11327TIP3   OH255471   1.257   5.612   0.430 -0.1136  0.2881  0.2957
11327TIP3    H155472   1.272   5.556   0.353 -0.6281  1.3819 -0.6279
11327TIP3    H255473   1.311   5.689   0.414  1.6955 -0.5441  2.2504
11328TIP3   OH255474   1.125   4.645   2.000  0.3846 -0.0236 -0.1894
11328TIP3    H155475   1.044   4.697   2.003  1.2171  1.2305  2.0102
11328TIP3    H255476   1.102   4.562   2.042 -0.0874 -0.1447 -0.6872
11329TIP3   OH255477   5.679   2.237  11.906 -0.3587 -0.3185 -0.1771
11329TIP3    H155478   5.610   2.190  11.859 -0.6838 -0.9282  0.8903
11329TIP3    H255479   5.688   2.189  11.988 -1.6034  2.2876  1.5113
11330TIP3   OH255480   6.287   0.211   4.651  0.4095 -0.5085  0.4959
11330TIP3    H155481   6.228   0.162   4.707 -0.5455  1.0149  0.8344
11330TIP3    H255482   6.353   0.247   4.711 -0.3627  0.7576  0.5874
11331TIP3   OH255483   4.354   2.540  16.656  0.2890  0.1557  0.2333
11331TIP3    H155484   4.450   2.534  16.655  0.1804 -2.2096  1.4753
11331TIP3    H255485   4.335   2.600  16.728  0.8217  0.6775 -0.0545
11332TIP3   OH255486   0.174   2.670   3.340 -0.1445 -0.1254 -0.8939
11332TIP3    H155487   0.251   2.641   3.390 -2.8615 -0.9481  3.0030
11332TIP3    H255488   0.187   2.764   3.328 -0.4242  0.5866  3.4572
11333TIP3   OH255489   0.720   6.735   3.770  0.3238  0.2197 -0.4545
11333TIP3    H155490   0.690   6.665   3.830 -0.7562 -0.8345 -2.1834
11333TIP3    H255491   0.658   6.806   3.784 -0.2258 -0.2115 -0.6553
11334TIP3   OH255492   3.194   2.114   4.368 -0.5071  0.1211  0.6009
11334TIP3    H155493   3.149   2.196   4.387 -2.2808 -0.6831 -0.0070
11334TIP3    H255494   3.154   2.050   4.427 -1.4558 -0.9874 -1.1833
11335TIP3   OH255495   2.419   6.546  13.260 -0.1431  0.1851  0.6322
11335TIP3    H155496   2.327   6.559  13.283 -0.1674  0.8034  0.1955
11335TIP3    H255497   2.426   6.452  13.240 -1.0291  0.4145 -0.8306
11336TIP3   OH255498   5.932   0.528  11.198 -0.1564  0.5462 -0.1398
11336TIP3    H155499   5.949   0.593  11.130  0.2685 -0.0276 -0.5934
11336TIP3    H255500   5.996   0.459  11.181  0.8243  0.9917  1.6459
11337TIP3   OH255501   1.622   5.475  12.153  0.3514 -0.2193  0.3966
11337TIP3    H155502   1.559   5.406  12.171  0.2527 -0.0058  0.8701
11337TIP3    H255503   1.573   5.539  12.100  0.1843 -0.0797  0.7193
11338TIP3   OH255504   2.858   3.018   1.933 -0.8229 -0.0759  0.1744
11338TIP3    H155505   2.897   3.098   1.968 -1.9727  0.4495  0.2875
11338TIP3    H255506   2.858   3.030   1.838 -0.9824  0.0518  0.1907
11339TIP3   OH255507   1.395   0.048   5.649 -0.0426 -0.2361 -0.3299
11339TIP3    H155508   1.313   0.004   5.672 -1.0361  2.1773  0.9707
11339TIP3    H255509   1.460   0.009   5.708 -0.5228 -1.2029 -0.4238
11340TIP3   OH255510   5.889   6.324   1.024 -0.1209 -0.2749 -0.9144
11340TIP3    H155511   5.797   6.328   1.052 -0.4165 -2.5692 -1.4531
11340TIP3    H255512   5.926   6.408   1.052 -2.1415  0.3071  0.1369
11341TIP3   OH255513   0.925   4.648   3.999 -0.1193 -0.1965 -0.2405
11341TIP3    H155514   0.890   4.559   3.987 -1.4910  0.0320  1.8488
11341TIP3    H255515   1.017   4.635   4.019 -0.1234 -1.0958 -0.7721
11342TIP3   OH255516   2.121   3.741   5.286 -0.6230  0.3109  0.1495
11342TIP3    H155517   2.187   3.784   5.231  1.5197 -1.3775  1.3045
11342TIP3    H255518   2.166   3.728   5.370 -2.4137 -0.9839  0.9236
11343TIP3   OH255519   4.355   2.628   3.878 -0.0911  0.2507  0.2298
11343TIP3    H155520   4.388   2.626   3.968 -1.5262 -0.2742  0.7690
11343TIP3    H255521   4.403   2.559   3.832  0.0066 -0.0807  0.8285
11344TIP3   OH255522   1.729   2.001  16.657 -0.0804 -0.5793  0.2107
11344TIP3    H155523   1.762   1.933  16.716 -0.2572  0.4705  1.5364
11344TIP3    H255524   1.672   2.055  16.712 -0.0775  0.5448 -0.8701
11345TIP3   OH255525   3.759   3.997   4.373 -0.0288 -0.4046  0.1761
11345TIP3    H155526   3.781   4.067   4.311 -0.2613  0.4584  1.0471
11345TIP3    H255527   3.756   3.918   4.320  0.3603  0.2274 -0.8105
11346TIP3   OH255528   4.344   3.516  11.974  0.7098 -0.2243 -0.0523
11346TIP3    H155529   4.312   3.582  11.912  1.0359 -1.0671 -1.1387
11346TIP3    H255530   4.435   3.501  11.949  0.7554 -0.8000  0.4314
11347TIP3   OH255531   6.094   3.278   3.463  0.3251 -0.1999  0.3202
11347TIP3    H155532   6.007   3.275   3.423  0.5005  0.6193 -0.1544
11347TIP3    H255533   6.152   3.304   3.391  1.1384 -1.8259  0.3673
11348TIP3   OH255534   4.228   4.683   2.393 -0.0822 -0.7155  0.2298
11348TIP3    H155535   4.246   4.622   2.465 -1.6840 -1.6680 -0.1661
11348TIP3    H255536   4.312   4.728   2.379 -0.2123  0.9754  4.0384
11349TIP3   OH255537   4.261   5.423  13.466  0.2433 -0.0725  0.7138
11349TIP3    H155538   4.227   5.477  13.395 -1.1471 -1.9906 -0.1326
11349TIP3    H255539   4.192   5.424  13.533  0.6676  0.0515  1.1590
11350TIP3   OH255540   2.351   1.572  14.733 -0.6384 -0.0417 -0.4724
11350TIP3    H155541   2.379   1.579  14.642 -1.1172 -1.8555 -0.7911
11350TIP3    H255542   2.425   1.531  14.778 -1.0368 -0.7159 -0.4105
11351TIP3   OH255543   4.169   2.573  14.160 -0.0273  0.0112  0.4458
11351TIP3    H155544   4.202   2.644  14.214  2.2028  0.8152 -1.8759
11351TIP3    H255545   4.185   2.601  14.070 -1.9034 -2.1086 -0.6276
11352TIP3   OH255546   4.282   6.146   2.464  0.3003  0.0855 -0.2208
11352TIP3    H155547   4.260   6.198   2.387  0.9253 -0.3378 -0.6914
11352TIP3    H255548   4.358   6.191   2.502 -0.5008  0.7595  0.6187
11353TIP3   OH255549   1.111   2.850   4.185 -0.4341  0.0740 -0.3416
11353TIP3    H155550   1.179   2.909   4.154  0.5983 -0.8764  0.1058
11353TIP3    H255551   1.090   2.881   4.273 -0.9250  0.6461 -0.6505
11354TIP3   OH255552   6.245   1.334   1.481 -0.1667 -0.1302  0.1706
11354TIP3    H155553   6.263   1.273   1.552  0.6678 -0.0316  0.0506
11354TIP3    H255554   6.152   1.321   1.460  0.1569 -1.7931 -0.2594
11355TIP3   OH255555   6.059   0.926   5.513 -0.3791  0.1677 -0.2647
11355TIP3    H155556   6.060   0.863   5.441  3.3887 -0.5726  0.3244
11355TIP3    H255557   6.053   0.873   5.592  2.1077  0.5003  0.2050
11356TIP3   OH255558   6.061   2.405  15.445 -0.1359 -0.4051  0.4552
11356TIP3    H155559   6.004   2.425  15.371  0.8659  1.2985  0.1118
11356TIP3    H255560   6.134   2.357  15.407  1.0138  1.5861  0.1134
11357TIP3   OH255561   0.491   0.503  13.049  0.2302 -0.3192  0.3499
11357TIP3    H155562   0.431   0.501  13.124 -1.5332  0.7259 -0.9950
11357TIP3    H255563   0.472   0.422  13.001  1.9291 -1.3929  1.4174
11358TIP3   OH255564   2.522   3.517   3.225 -0.2620 -0.0695  0.2631
11358TIP3    H155565   2.470   3.591   3.193  0.7835  1.1220  1.2884
11358TIP3    H255566   2.609   3.553   3.242  1.2690 -2.2443 -2.3579
11359TIP3   OH255567   0.724   5.031  12.191  0.0974  0.4357  0.0991
11359TIP3    H155568   0.709   5.012  12.098 -1.4333 -0.1265  0.4344
11359TIP3    H255569   0.663   5.103  12.210 -1.0734 -0.8011  1.1398
11360TIP3   OH255570   5.717   6.420   3.655 -0.2098 -0.5010  0.2024
11360TIP3    H155571   5.658   6.346   3.639 -0.1035 -0.2757 -1.2533
11360TIP3    H255572   5.761   6.434   3.571 -0.7622  1.6915  0.2606
11361TIP3   OH255573   1.835   1.314   5.467 -0.1707  0.3049  0.0162
11361TIP3    H155574   1.751   1.359   5.461 -0.9618 -0.9344  1.5308
11361TIP3    H255575   1.861   1.299   5.375 -1.0295  1.7080 -0.4590
11362TIP3   OH255576   1.984   2.221   2.435  0.1057 -0.1725  0.7959
11362TIP3    H155577   1.913   2.277   2.468  0.0713 -0.8096  1.8227
11362TIP3    H255578   2.037   2.279   2.381  0.7466  1.1582  2.7957
11363TIP3   OH255579   3.010   3.190   4.021  0.8973  0.3613 -0.0029
11363TIP3    H155580   3.010   3.285   4.021  0.2030  0.3622 -0.4000
11363TIP3    H255581   3.098   3.165   3.992  1.1644  0.8776  0.3680
11364TIP3   OH255582   6.393   1.451   0.109 -0.1502 -0.6260 -0.0276
11364TIP3    H155583   6.328   1.482   0.173  0.7737  0.8146  0.2295
11364TIP3    H255584   6.356   1.369   0.076 -2.9736  0.9872 -1.1391
11365TIP3   OH255585   6.761   4.189   3.504 -0.1512 -0.2007  0.0107
11365TIP3    H155586   6.758   4.130   3.429  1.1668 -0.5387  0.2071
11365TIP3    H255587   6.682   4.167   3.554 -0.0240 -1.3481 -0.2633
11366TIP3   OH255588   0.951   6.481   2.969  0.7156  0.1382  0.3099
11366TIP3    H155589   0.912   6.398   2.944 -2.3919  1.2844  1.1063
11366TIP3    H255590   0.949   6.481   3.065  0.2454  1.2947  0.3123
11367TIP3   OH255591   6.068   1.336   2.256  0.2914  0.3696 -0.7918
11367TIP3    H155592   6.063   1.288   2.173 -2.2768  0.1431 -0.5334
11367TIP3    H255593   6.124   1.281   2.311  0.7777 -0.2477 -1.8724
11368TIP3   OH255594   3.081   5.095  14.810  0.3754  0.1746 -0.2613
11368TIP3    H155595   3.124   5.036  14.872  0.6883  0.9867  0.2944
11368TIP3    H255596   3.096   5.054  14.725  1.3161 -0.1247  0.0337
11369TIP3   OH255597   0.021   1.090   3.420  0.0271  0.2744  0.3430
11369TIP3    H155598  -0.053   1.085   3.360 -1.1432  1.3751  1.6561
11369TIP3    H255599   0.086   1.030   3.383 -0.8793  0.5109 -1.6976
11370TIP3   OH255600   0.092   2.044   0.977  0.8099 -0.4659  0.2814
11370TIP3    H155601   0.179   2.083   0.968  1.0870 -1.0538  0.3975
11370TIP3    H255602   0.065   2.026   0.887  1.4761 -1.7289  0.3171
11371TIP3   OH255603   6.812   6.798  13.678 -0.2065  0.2100 -0.1653
11371TIP3    H155604   6.891   6.804  13.732 -0.2773 -3.0010  0.3983
11371TIP3    H255605   6.740   6.804  13.739 -0.3543  0.4081 -0.3575
11372TIP3   OH255606   1.386   0.509  16.407 -0.4315  0.2363 -0.4341
11372TIP3    H155607   1.423   0.457  16.335  1.2004 -0.9135  1.1639
11372TIP3    H255608   1.355   0.443  16.469 -3.4055  1.2167 -0.8337
11373TIP3   OH255609   2.358   4.986  17.052  0.1998 -0.0648 -0.3286
11373TIP3    H155610   2.322   4.903  17.021  0.2957 -0.3822  0.4009
11373TIP3    H255611   2.440   4.997  17.004  0.8404 -1.0377  0.5107
11374TIP3   OH255612   3.261   5.270   0.385  0.1101  0.2396  0.0827
11374TIP3    H155613   3.243   5.364   0.377  0.4498  0.2442 -0.6929
11374TIP3    H255614   3.351   5.265   0.415 -0.3171  0.1726  1.3973
11375TIP3   OH255615   5.551   5.542  13.530  0.0659 -0.0236 -0.6991
11375TIP3    H155616   5.590   5.602  13.466  0.3564  0.2426 -0.2758
11375TIP3    H255617   5.623   5.520  13.589 -0.9345  2.2846  1.4726
11376TIP3   OH255618   6.565   2.592  12.862 -0.3008 -0.6147 -0.5441
11376TIP3    H155619   6.646   2.583  12.913 -0.2214 -0.4966 -0.6510
11376TIP3    H255620   6.536   2.681  12.879  0.5603 -0.0502 -1.9473
11377TIP3   OH255621   0.031   6.509   0.675  0.3472  0.0538 -0.6158
11377TIP3    H155622   0.110   6.487   0.725  0.7587 -0.0172 -1.2921
11377TIP3    H255623   0.033   6.451   0.600 -1.5269 -1.5031  0.4925
11378TIP3   OH255624   2.609   3.802   3.395  0.0076 -0.0904  0.3554
11378TIP3    H155625   2.634   3.802   3.487  2.4486  1.1409 -0.2422
11378TIP3    H255626   2.688   3.774   3.349 -0.5085  1.3758 -1.4954
11379TIP3   OH255627   5.119   0.997   1.583  0.5673 -0.0662 -0.1243
11379TIP3    H155628   5.189   1.038   1.633 -1.2173  0.6752  1.8705
11379TIP3    H255629   5.063   1.070   1.554 -0.1035 -0.7293 -0.5384
11380TIP3   OH255630   3.673   4.038  13.847  0.0956  0.0923 -0.1443
11380TIP3    H155631   3.712   4.067  13.930  2.3653 -0.2829 -1.0506
11380TIP3    H255632   3.585   4.075  13.849 -0.0676 -0.3091  2.6575
11381TIP3   OH255633   0.323   3.857   2.573  0.0660  0.1838 -0.1406
11381TIP3    H155634   0.285   3.934   2.614 -0.3762 -0.2732  0.3181
11381TIP3    H255635   0.309   3.870   2.479 -0.1697  0.5751 -0.0506
11382TIP3   OH255636   4.864   0.384   0.802 -0.4778 -0.3336 -0.3501
11382TIP3    H155637   4.817   0.318   0.752  0.1482  0.5583 -2.1443
11382TIP3    H255638   4.956   0.359   0.795 -0.3010  0.3307 -0.4597
11383TIP3   OH255639   3.019   1.752   2.459  0.0797  0.0099 -0.2675
11383TIP3    H155640   2.974   1.828   2.496 -0.0048  0.3859 -1.1367
11383TIP3    H255641   3.091   1.735   2.520 -0.6616 -0.0164  0.6259
11384TIP3   OH255642   2.313   2.695   3.477  0.2572  0.7156  0.1066
11384TIP3    H155643   2.280   2.779   3.446 -0.1545 -0.3613 -2.4322
11384TIP3    H255644   2.237   2.637   3.473  1.2480 -0.5263 -1.0429
11385TIP3   OH255645   2.949   3.466   0.095  0.3704 -0.3482  0.0686
11385TIP3    H155646   2.980   3.504   0.012 -0.9408  0.9766  0.1546
11385TIP3    H255647   2.903   3.386   0.069  1.5771 -0.9266 -0.3040
11386TIP3   OH255648   2.141   6.494   4.258  0.3968 -0.1865 -0.2664
11386TIP3    H155649   2.235   6.480   4.268  0.3580 -1.4396 -1.4716
11386TIP3    H255650   2.133   6.565   4.195  0.5344  0.8369  0.8501
11387TIP3   OH255651   1.922   0.482  16.798 -0.8200 -1.0227  0.0964
11387TIP3    H155652   1.959   0.406  16.843 -0.1546 -0.3956  0.6255
11387TIP3    H255653   1.827   0.471  16.805 -0.7242 -1.8656  0.0587
11388TIP3   OH255654   1.718   4.058  15.366  0.1765  0.5934 -0.1464
11388TIP3    H155655   1.812   4.057  15.350  0.4426 -1.7662  1.4414
11388TIP3    H255656   1.709   4.099  15.452 -0.3525  1.6520 -0.6848
11389TIP3   OH255657   4.608   3.890  11.868  0.8867 -0.8877 -0.1196
11389TIP3    H155658   4.682   3.830  11.879  2.0141  0.4944 -0.0469
11389TIP3    H255659   4.646   3.977  11.879 -0.2356 -0.0162 -2.7964
11390TIP3   OH255660   1.827   0.163  13.265 -0.0657  0.3572 -0.1374
11390TIP3    H155661   1.849   0.235  13.206  3.2265 -0.0746  0.4277
11390TIP3    H255662   1.853   0.084  13.217  0.2239 -0.1648  0.8622
11391TIP3   OH255663   3.906   4.024  16.025 -0.2820  0.0029 -0.0540
11391TIP3    H155664   3.895   4.119  16.029  1.7186  0.2176  1.4332
11391TIP3    H255665   3.856   3.991  16.100  3.1949  0.3856  2.5576
11392TIP3   OH255666   0.577   3.465   2.586  0.0628 -0.2160 -0.7225
11392TIP3    H155667   0.600   3.532   2.652 -1.8202  0.8856 -1.1569
11392TIP3    H255668   0.599   3.506   2.502 -0.1352 -0.5342 -0.9291
11393TIP3   OH255669   0.551   2.091   3.171  0.0085  0.0895 -0.0862
11393TIP3    H155670   0.582   2.035   3.242 -2.3704 -0.5380  0.4849
11393TIP3    H255671   0.468   2.127   3.203  0.4027  2.2020 -1.3421
11394TIP3   OH255672   1.442   0.528   0.016 -0.4853  0.2680  0.7782
11394TIP3    H155673   1.378   0.557   0.081 -0.3907  1.3429  0.3951
11394TIP3    H255674   1.420   0.576  -0.063  0.1072 -0.1925  0.3309
11395TIP3   OH255675   5.750   4.164  13.339  0.6702  0.7712 -0.2244
11395TIP3    H155676   5.692   4.094  13.309  1.2597  0.4632 -0.6605
11395TIP3    H255677   5.782   4.205  13.258 -1.1036  2.7479  0.0349
11396TIP3   OH255678   1.788   5.542   4.113 -0.4410 -0.9252  0.5632
11396TIP3    H155679   1.832   5.459   4.093 -0.3394 -0.2694 -2.0416
11396TIP3    H255680   1.726   5.555   4.042 -0.7277  1.0574  1.1322
11397TIP3   OH255681   1.948   3.298   4.840  0.3279  0.3682  0.2220
11397TIP3    H155682   2.023   3.329   4.790 -0.1982  0.6564 -0.4033
11397TIP3    H255683   1.945   3.204   4.823 -1.4822  0.8699 -2.5620
11398TIP3   OH255684   4.408   5.945   2.332  0.7313  0.2785  0.8254
11398TIP3    H155685   4.334   5.996   2.365  0.6788  0.3516  0.5998
11398TIP3    H255686   4.467   6.010   2.295  0.3818  0.1267 -0.0078
11399TIP3   OH255687   4.181   3.534  13.079  0.2443 -0.1638  0.4175
11399TIP3    H155688   4.157   3.585  13.156  0.5781  0.1356  0.3209
11399TIP3    H255689   4.247   3.587  13.034 -1.0067  0.3777 -0.8595
11400TIP3   OH255690   3.585   2.415  11.209 -0.5856  0.2715  0.2156
11400TIP3    H155691   3.580   2.386  11.118 -0.9409 -1.6352  0.8293
11400TIP3    H255692   3.641   2.351  11.252 -2.7933 -0.5131  1.9765
11401TIP3   OH255693   0.354   1.661   3.651  0.4496 -0.1029 -0.2031
11401TIP3    H155694   0.437   1.695   3.618 -0.2429  1.3783 -0.5093
11401TIP3    H255695   0.359   1.673   3.746 -0.0673  1.5769 -0.3677
11402TIP3   OH255696   5.756   1.798   5.257 -0.0250 -0.4107  0.1720
11402TIP3    H155697   5.847   1.815   5.232 -0.5779  4.3495  0.9307
11402TIP3    H255698   5.763   1.750   5.339  1.7876  0.0178  0.3070
11403TIP3   OH255699   3.907   3.105  10.952  0.0248  0.1444  0.0398
11403TIP3    H155700   3.825   3.058  10.966  0.5171  0.1959  3.6123
11403TIP3    H255701   3.975   3.044  10.981  0.9735  1.4305  0.5855
11404TIP3   OH255702   5.713   2.076  15.776 -0.0831 -0.4873  0.3777
11404TIP3    H155703   5.676   2.130  15.846 -0.1608  0.3670 -0.3269
11404TIP3    H255704   5.800   2.112  15.761  0.0773 -0.9065  0.2843
11405TIP3   OH255705   6.629   5.700   6.022  0.2716 -0.0309  0.2132
11405TIP3    H155706   6.710   5.649   6.018  0.8475  0.8178  0.9131
11405TIP3    H255707   6.655   5.785   6.056 -1.1682 -0.2676  2.0074
11406TIP3   OH255708   4.037   4.899   2.360 -0.0833 -0.3004 -0.1611
11406TIP3    H155709   4.122   4.864   2.386 -1.1165 -1.0791  2.3503
11406TIP3    H255710   4.023   4.973   2.419 -1.6847 -0.9302  0.2614
11407TIP3   OH255711   4.907   5.963  13.593  0.0288 -0.1191  0.0270
11407TIP3    H155712   4.920   5.895  13.659 -0.8711  1.5661  1.9812
11407TIP3    H255713   4.947   6.042  13.631 -0.9955  1.0090 -1.1834
11408TIP3   OH255714   1.955   4.921  12.999 -0.0520 -0.0262 -0.3227
11408TIP3    H155715   1.866   4.948  12.979 -0.6196  0.0746  2.1581
11408TIP3    H255716   1.999   5.002  13.024  0.1140 -0.4003  0.6045
11409TIP3   OH255717   5.655   3.491  13.863 -0.4070  0.1051 -0.3629
11409TIP3    H155718   5.569   3.502  13.903 -0.2718 -0.6291  0.1478
11409TIP3    H255719   5.717   3.498  13.936 -0.2131 -2.1533 -0.2634
11410TIP3   OH255720   6.066   1.409  13.381  0.4344 -0.3057 -0.3321
11410TIP3    H155721   6.138   1.371  13.331 -0.4942 -0.6509 -1.4352
11410TIP3    H255722   6.057   1.497  13.346  0.8556  0.0279  0.3855
11411TIP3   OH255723   0.264   5.019  14.606 -0.0248 -0.3527  0.0965
11411TIP3    H155724   0.200   5.031  14.535  1.1160 -0.7520 -1.0317
11411TIP3    H255725   0.261   4.926  14.625 -1.0792 -0.0727  1.3023
11412TIP3   OH255726   3.567   3.154   3.638  0.3772 -0.0418 -0.1283
11412TIP3    H155727   3.644   3.098   3.640 -0.0324 -0.7133 -2.0918
11412TIP3    H255728   3.502   3.105   3.588 -0.8981  1.0392  0.4350
11413TIP3   OH255729   6.401   0.234  15.178 -0.7420  0.4477 -0.4600
11413TIP3    H155730   6.457   0.266  15.248  0.4324  1.0019 -1.6216
11413TIP3    H255731   6.416   0.295  15.106 -0.3866 -1.2533 -1.8696
11414TIP3   OH255732   3.854   6.289  13.546  0.1410 -0.5860 -0.6421
11414TIP3    H155733   3.764   6.317  13.560  0.9656  0.8464  2.0685
11414TIP3    H255734   3.847   6.201  13.509 -2.3420 -1.6155  2.1467
11415TIP3   OH255735   5.134   0.177   0.375 -0.4274 -0.4665 -0.1447
11415TIP3    H155736   5.116   0.106   0.437  0.8006  1.1297  2.1190
11415TIP3    H255737   5.228   0.171   0.358 -0.1737  1.0456  0.6427
11416TIP3   OH255738   1.001   0.502  16.497 -0.0949  0.3509 -0.5117
11416TIP3    H155739   1.086   0.513  16.540 -0.1786  0.4973 -0.3824
11416TIP3    H255740   0.948   0.453  16.560  0.0314 -0.1234 -0.7706
11417TIP3   OH255741   5.223   5.024  11.438 -0.1310 -0.2180 -0.1689
11417TIP3    H155742   5.147   5.082  11.441 -0.3868 -0.4705 -1.4365
11417TIP3    H255743   5.297   5.083  11.424 -0.3815 -0.1791 -1.3811
11418TIP3   OH255744   4.218   2.832   3.180 -0.1959  0.2894  0.2194
11418TIP3    H155745   4.164   2.803   3.253 -0.1216 -0.0274  0.1517
11418TIP3    H255746   4.219   2.927   3.186  0.7168  0.2268  1.2938
11419TIP3   OH255747   0.686   0.818   0.414  0.1025  0.0266 -0.2416
11419TIP3    H155748   0.606   0.817   0.362  0.4336 -1.3000 -0.7555
11419TIP3    H255749   0.660   0.855   0.499 -1.0977 -0.5568 -0.3449
11420TIP3   OH255750   0.475   4.366   2.831  0.2550 -0.1072 -0.0534
11420TIP3    H155751   0.524   4.403   2.758  2.6445 -0.8027  1.1206
11420TIP3    H255752   0.476   4.435   2.897  0.3922 -0.4262  0.2801
11421TIP3   OH255753   6.107   0.907  13.909 -0.6094  0.1944 -0.2969
11421TIP3    H155754   6.165   0.840  13.945 -0.6613 -0.5519 -1.5776
11421TIP3    H255755   6.157   0.988  13.918 -0.4917 -0.0217  1.1278
11422TIP3   OH255756   6.751   3.068  13.885 -0.2658 -0.4376 -0.0350
11422TIP3    H155757   6.679   3.068  13.822  0.9958 -1.3779 -1.4933
11422TIP3    H255758   6.800   2.988  13.866  1.3222  0.3280  0.7536
11423TIP3   OH255759   1.362   0.929  16.629 -0.4256 -0.3747 -0.1290
11423TIP3    H155760   1.273   0.908  16.601  0.3450 -2.7811 -0.8708
11423TIP3    H255761   1.414   0.925  16.549  0.2753  1.6718  0.1896
11424TIP3   OH255762   4.196   4.828   6.355 -0.5480  0.6997 -0.1443
11424TIP3    H155763   4.241   4.777   6.423 -0.2057  2.0417  0.6510
11424TIP3    H255764   4.105   4.832   6.385 -0.6657  0.2213 -0.4220
11425TIP3   OH255765   1.377   2.990  16.403 -0.0206  0.7461  0.0144
11425TIP3    H155766   1.396   3.027  16.317  0.1628 -0.6131 -0.5364
11425TIP3    H255767   1.450   3.019  16.458 -0.0238  1.4250 -0.3312
11426TIP3   OH255768   2.024   2.176   0.405  0.0589  0.7628 -0.3980
11426TIP3    H155769   2.047   2.084   0.421 -2.9473  0.0621  0.3261
11426TIP3    H255770   1.986   2.176   0.317 -2.1270  0.7974  0.4894
11427TIP3   OH255771   2.384   2.959  12.826  0.0487  0.3388  0.2952
11427TIP3    H155772   2.447   3.022  12.860  0.1091 -1.4017  3.6091
11427TIP3    H255773   2.434   2.878  12.813 -1.1024 -0.5523  1.2475
11428TIP3   OH255774   5.379   1.230   2.791  0.6858 -0.1357  0.2154
11428TIP3    H155775   5.404   1.252   2.701 -2.0040  0.3862 -0.4304
11428TIP3    H255776   5.347   1.140   2.786  0.4188 -0.0617  0.6249
11429TIP3   OH255777   1.038   3.648  13.788  0.0440 -0.3244  0.5206
11429TIP3    H155778   1.067   3.722  13.841  0.0449 -0.9117  1.3474
11429TIP3    H255779   1.058   3.571  13.841 -0.2634 -0.9002 -0.1913
11430TIP3   OH255780   2.058   2.075  16.136 -0.1805  0.5512 -0.7434
11430TIP3    H155781   2.152   2.059  16.139 -0.1370  1.0932  1.5714
11430TIP3    H255782   2.049   2.159  16.091  0.4956  0.8771 -0.2803
11431TIP3   OH255783   1.540   2.587   0.116  0.2165  0.1818 -0.5321
11431TIP3    H155784   1.458   2.559   0.076  0.0297 -0.3918  0.2388
11431TIP3    H255785   1.603   2.519   0.094  0.5514  0.7386 -1.3214
11432TIP3   OH255786   4.786   0.826   2.749 -0.2377 -0.0047 -0.2677
11432TIP3    H155787   4.726   0.752   2.751  0.9303 -0.9370  0.2403
11432TIP3    H255788   4.873   0.787   2.745  0.4586  1.3144  1.5021
11433TIP3   OH255789   5.087   4.852  15.947  0.0104 -0.0854  0.0289
11433TIP3    H155790   5.174   4.824  15.973  0.5801 -0.0656 -1.8091
11433TIP3    H255791   5.028   4.804  16.005  1.2377  0.0754  1.4316
11434TIP3   OH255792   0.658   4.821  16.236  0.2378 -0.0640 -0.2641
11434TIP3    H155793   0.721   4.751  16.220 -1.6566 -1.6526 -0.8509
11434TIP3    H255794   0.634   4.853  16.149 -0.6968 -0.3170 -0.1080
11435TIP3   OH255795   4.727   1.003   1.196 -0.2781 -0.0514  0.3045
11435TIP3    H155796   4.715   0.910   1.178 -1.4294  0.5275 -2.0940
11435TIP3    H255797   4.786   1.034   1.127 -0.4380  1.1265  0.6761
11436TIP3   OH255798   0.994   4.048  15.982 -0.5146 -0.4742 -0.1120
11436TIP3    H155799   1.041   4.051  15.899  0.0138  2.4050  0.2479
11436TIP3    H255800   0.934   3.975  15.973  0.4627 -1.0222 -2.5209
11437TIP3   OH255801   5.189   1.267  15.994  0.3486 -0.4086 -0.3983
11437TIP3    H155802   5.157   1.292  15.907  0.3017  1.0279  0.0217
11437TIP3    H255803   5.189   1.171  15.992 -3.0353 -0.4623 -0.7897
11438TIP3   OH255804   4.785   2.178  14.840 -0.2409 -0.3701 -0.1023
11438TIP3    H155805   4.733   2.185  14.919 -1.1086 -0.0168 -0.6962
11438TIP3    H255806   4.733   2.222  14.772  0.9309  0.2248 -0.6526
11439TIP3   OH255807   0.831   6.282  11.014  0.3126  0.1078 -0.0846
11439TIP3    H155808   0.819   6.368  11.055 -0.7022  0.1030 -0.3630
11439TIP3    H255809   0.884   6.233  11.076  0.1115  0.6260  0.4997
11440TIP3   OH255810   1.524   1.728   1.959 -0.5009 -0.6436 -0.4791
11440TIP3    H155811   1.458   1.709   2.027 -0.5734 -0.0292 -0.3716
11440TIP3    H255812   1.487   1.690   1.879 -0.9790 -0.3288 -0.4133
11441TIP3   OH255813   4.272   3.332  17.067  0.1041 -0.7277 -0.1349
11441TIP3    H155814   4.321   3.306  16.989  1.7032  2.8049 -0.3745
11441TIP3    H255815   4.183   3.346  17.035  0.3123 -1.1880 -0.9311
11442TIP3   OH255816   1.374   1.627  13.187  0.1083  0.6148 -0.4747
11442TIP3    H155817   1.370   1.676  13.105  0.6283  0.7654 -0.4139
11442TIP3    H255818   1.283   1.619  13.215 -0.1014  0.3091 -1.2146
11443TIP3   OH255819   2.584   3.894   5.087  0.3907 -0.5864  0.6222
11443TIP3    H155820   2.595   3.880   5.181  2.4874  0.7764  0.6273
11443TIP3    H255821   2.654   3.956   5.064 -1.1895  0.4645 -1.5109
11444TIP3   OH255822   5.083   3.095  16.033 -0.7526  0.3009  0.1087
11444TIP3    H155823   5.068   3.150  15.956 -0.7821 -0.2301 -0.2636
11444TIP3    H255824   5.063   3.006  16.004  1.9091 -0.2810 -0.0578
11445TIP3   OH255825   6.330   6.083  11.096  0.5981 -0.3786 -0.2064
11445TIP3    H155826   6.284   6.165  11.077  2.3991  0.8040  0.4707
11445TIP3    H255827   6.341   6.042  11.010 -1.4415 -0.5596 -0.4129
11446TIP3   OH255828   1.040   3.799  14.331 -0.7778  0.1003  0.2010
11446TIP3    H155829   1.131   3.825  14.345 -0.5692 -0.2911 -0.4060
11446TIP3    H255830   1.042   3.704  14.333 -0.3924 -0.1011 -4.3290
11447TIP3   OH255831   0.431   3.499  14.154 -0.6547  0.0042 -0.5985
11447TIP3    H155832   0.403   3.525  14.241 -0.9244  0.0852 -0.7082
11447TIP3    H255833   0.383   3.418  14.136 -1.4284  0.5622 -1.1004
11448TIP3   OH255834   5.757   3.989  14.623  0.0969 -0.1017 -0.1419
11448TIP3    H155835   5.665   3.964  14.611 -0.0403  0.9972 -1.4525
11448TIP3    H255836   5.797   3.911  14.662 -1.2490 -0.8298 -0.1637
11449TIP3   OH255837   5.216   3.912  12.635  0.1053 -0.4706  0.5315
11449TIP3    H155838   5.298   3.947  12.600 -0.3808  0.1550  0.0046
11449TIP3    H255839   5.148   3.969  12.598 -0.4059  0.4712  2.8179
11450TIP3   OH255840   2.713   2.177   2.538  0.3610  0.7005 -0.0010
11450TIP3    H155841   2.690   2.270   2.533  0.1990  0.6027 -1.1254
11450TIP3    H255842   2.630   2.131   2.528  0.5194  0.4231 -0.0403
11451TIP3   OH255843   6.002   2.021  13.010 -0.6456 -0.1818 -0.8507
11451TIP3    H155844   5.954   1.948  12.971  0.2013 -0.4723 -1.3769
11451TIP3    H255845   5.977   2.097  12.957 -0.4364 -0.3544 -1.2008
11452TIP3   OH255846   4.871   5.388  15.714 -0.4398 -0.5293  0.8026
11452TIP3    H155847   4.923   5.315  15.680 -0.7540 -0.1076 -0.6482
11452TIP3    H255848   4.787   5.348  15.738 -0.9536 -0.5253 -0.8765
11453TIP3   OH255849   5.337   4.417   5.917 -0.4801  0.6424 -0.5719
11453TIP3    H155850   5.315   4.466   5.996  0.3720  1.3477 -0.7536
11453TIP3    H255851   5.389   4.479   5.865  1.8488 -0.9412 -0.1713
11454TIP3   OH255852   2.585   0.102   3.148  0.0280  0.0017 -0.5327
11454TIP3    H155853   2.596   0.029   3.088 -0.5575 -1.2663  0.8666
11454TIP3    H255854   2.500   0.087   3.189  0.8072  0.3214  1.2750
11455TIP3   OH255855   4.021   2.830  11.222  0.1516 -0.6961 -0.0848
11455TIP3    H155856   4.092   2.850  11.161  0.2951 -2.0064 -0.3657
11455TIP3    H255857   4.053   2.859  11.307  0.9868 -1.1853 -0.2305
11456TIP3   OH255858   5.399   4.639  16.508 -0.3714 -0.4114  0.4388
11456TIP3    H155859   5.311   4.669  16.530  0.2654 -0.0366  2.7150
11456TIP3    H255860   5.457   4.694  16.562  1.2262 -0.9799 -0.6433
11457TIP3   OH255861   5.962   0.038  11.735  0.1285  0.8762 -0.2558
11457TIP3    H155862   6.057   0.041  11.744  0.1418 -1.2490  0.6154
11457TIP3    H255863   5.929   0.080  11.814  0.3310  0.0315  0.2749
11458TIP3   OH255864   2.023   4.072  16.845  0.0315  0.5028  0.1933
11458TIP3    H155865   2.069   4.086  16.763  2.5599  2.2090  1.8166
11458TIP3    H255866   2.050   4.146  16.900 -1.4133 -0.7338  2.6385
11459TIP3   OH255867   0.662   1.321   1.342 -0.3768 -0.3415 -0.2228
11459TIP3    H155868   0.591   1.295   1.402 -1.3856 -0.3359 -1.4014
11459TIP3    H255869   0.623   1.390   1.289  1.3933  1.6320  0.9728
11460TIP3   OH255870   4.303   5.946  15.384  0.1733 -0.0601  0.1114
11460TIP3    H155871   4.238   5.915  15.447  0.7583  0.3953  0.9551
11460TIP3    H255872   4.266   6.026  15.347  0.6552  0.7184  1.2850
11461TIP3   OH255873   2.622   5.549  13.736  0.8931  0.2701  0.4678
11461TIP3    H155874   2.650   5.509  13.818  1.0713  0.9876  0.7548
11461TIP3    H255875   2.577   5.629  13.762  0.4891  0.2395 -0.1103
11462TIP3   OH255876   1.289   1.180  12.105 -0.4116  0.7386 -0.0839
11462TIP3    H155877   1.299   1.202  12.197 -1.5401 -1.1966  0.5359
11462TIP3    H255878   1.201   1.211  12.083 -1.0574 -0.9140  0.1397
11463TIP3   OH255879   4.950   4.704   0.086  0.2205  0.6053 -0.5018
11463TIP3    H155880   4.938   4.770   0.017  0.7144  1.8813  0.6122
11463TIP3    H255881   4.993   4.631   0.042 -1.0703  0.6713 -1.9416
11464TIP3   OH255882   1.174   4.590   3.677 -0.0402  0.3150 -0.3080
11464TIP3    H155883   1.208   4.556   3.760  0.1219 -1.3693 -1.0317
11464TIP3    H255884   1.248   4.636   3.638 -0.0414  0.8871  0.3623
11465TIP3   OH255885   2.590   2.305  10.285  0.4323 -0.0951  0.8433
11465TIP3    H155886   2.525   2.324  10.217  1.7200  1.0373 -0.0883
11465TIP3    H255887   2.538   2.290  10.364 -0.9095  2.1781  0.4314
11466TIP3   OH255888   6.174   1.810  15.167 -0.5234  0.4037 -0.0146
11466TIP3    H155889   6.194   1.796  15.259  1.3480  1.0970 -0.2944
11466TIP3    H255890   6.254   1.847  15.130 -1.1812 -0.0382 -1.9614
11467TIP3   OH255891   3.894   4.782   6.496  0.3878  0.1666  0.1334
11467TIP3    H155892   3.917   4.691   6.474 -1.3561 -0.3262  0.2497
11467TIP3    H255893   3.944   4.801   6.575  1.3711 -0.4269 -0.3351
11468TIP3   OH255894   6.171   5.002   5.041  0.2416 -0.1223 -0.0203
11468TIP3    H155895   6.229   4.956   5.103  0.9234 -0.2174 -0.7213
11468TIP3    H255896   6.207   5.091   5.038 -0.4164  0.1596  0.5053
11469TIP3   OH255897   3.326   3.274   2.260  0.1311 -0.1825 -0.1422
11469TIP3    H155898   3.257   3.210   2.245  0.4873 -0.3139 -1.2287
11469TIP3    H255899   3.353   3.259   2.351  0.5796 -1.9433 -0.5419
11470TIP3   OH255900   5.704   6.304  16.083 -0.3237  0.2975 -0.1493
11470TIP3    H155901   5.612   6.321  16.064 -0.5529 -0.1393  0.5387
11470TIP3    H255902   5.702   6.237  16.151  0.5110 -0.0318 -0.4454
11471TIP3   OH255903   5.050   4.460   2.115  0.2021  0.8148  0.0027
11471TIP3    H155904   4.997   4.411   2.052  1.1120  0.0957 -0.2171
11471TIP3    H255905   5.053   4.404   2.193  0.5296  0.9009  0.0551
11472TIP3   OH255906   0.701   3.423  14.059 -0.2063 -0.2692  0.0239
11472TIP3    H155907   0.663   3.398  13.975 -0.6599  1.0796 -0.1993
11472TIP3    H255908   0.643   3.493  14.091  1.3305  0.8951  0.3169
11473TIP3   OH255909   5.671   1.498  16.377 -0.2048 -0.1689  0.4515
11473TIP3    H155910   5.672   1.561  16.305 -0.1163  0.0835  0.6723
11473TIP3    H255911   5.764   1.483  16.397 -0.1802 -1.6119 -0.6831
11474TIP3   OH255912   5.423   6.617  12.380 -0.7463  0.1196 -0.1275
11474TIP3    H155913   5.478   6.630  12.457 -0.7659 -1.2837  0.1301
11474TIP3    H255914   5.457   6.679  12.315  1.0768 -0.6633  0.0581
11475TIP3   OH255915   1.130   1.888  12.088  0.2130  0.1286  0.1492
11475TIP3    H155916   1.086   1.871  12.005 -0.3695  0.3904  0.4013
11475TIP3    H255917   1.162   1.977  12.081  0.3554  0.0755  0.1220
11476TIP3   OH255918   2.283   3.624  15.774 -0.6024  0.0233  0.3655
11476TIP3    H155919   2.265   3.688  15.843  0.1272  0.6140  0.0080
11476TIP3    H255920   2.341   3.560  15.816  1.9267  1.7321 -0.3774
11477TIP3   OH255921   5.707   3.288   4.160  0.1927  1.0232 -0.4136
11477TIP3    H155922   5.705   3.192   4.157 -0.1504  0.9298  2.1406
11477TIP3    H255923   5.617   3.314   4.142 -0.1923  0.7701  1.0816
11478TIP3   OH255924   5.848   3.919   3.423  0.0123 -0.1272  0.1823
11478TIP3    H155925   5.870   3.865   3.347  0.7354  0.7865 -0.2638
11478TIP3    H255926   5.778   3.976   3.393  0.5943  0.5310  0.0758
11479TIP3   OH255927   1.641   2.094  12.240 -0.8202 -0.2247  0.2123
11479TIP3    H155928   1.626   2.163  12.304  0.4702  0.9335 -0.7258
11479TIP3    H255929   1.661   2.140  12.159  0.4641 -1.6886 -0.3267
11480TIP3   OH255930   5.643   6.637  16.808 -0.3936 -0.3463 -0.2986
11480TIP3    H155931   5.566   6.694  16.801 -0.8354 -1.0354 -1.1425
11480TIP3    H255932   5.607   6.552  16.832  0.0938 -0.7120 -0.8569
11481TIP3   OH255933   3.190   2.831  11.340  0.3772 -0.5676 -0.3841
11481TIP3    H155934   3.143   2.866  11.265  1.3295  0.4623 -0.5134
11481TIP3    H255935   3.265   2.785  11.302  1.3198  0.6617 -0.0476
11482TIP3   OH255936   4.007   5.709   1.470  0.5085  0.2533 -0.4786
11482TIP3    H155937   3.923   5.684   1.509  0.0721  0.9289 -0.9654
11482TIP3    H255938   4.058   5.629   1.469 -0.5331 -0.4150 -1.1591
11483TIP3   OH255939   2.007   5.420   0.948 -0.0253 -0.3115 -0.2484
11483TIP3    H155940   2.081   5.447   1.003  0.1787 -0.2994 -0.5265
11483TIP3    H255941   1.935   5.405   1.010  0.0855  0.1053 -0.0190
11484TIP3   OH255942   5.301   1.030   5.818 -0.2659 -0.2380 -0.2460
11484TIP3    H155943   5.263   1.032   5.906 -0.8090  0.2122 -0.4811
11484TIP3    H255944   5.334   1.119   5.804 -1.1791  0.0088 -0.9147
11485TIP3   OH255945   6.085   2.566  15.955  0.4129  0.2094 -0.0521
11485TIP3    H155946   6.173   2.540  15.930  0.7909  0.2346  1.2152
11485TIP3    H255947   6.069   2.521  16.038 -1.3579 -1.0321 -1.0282
11486TIP3   OH255948   2.828   3.208   1.082  0.1368 -0.4207  0.1712
11486TIP3    H155949   2.914   3.209   1.124 -1.0327  1.6124  2.6096
11486TIP3    H255950   2.809   3.300   1.064 -1.5583 -0.8610 -0.3536
11487TIP3   OH255951   2.666   3.816  14.832 -0.2569  0.1206 -0.4339
11487TIP3    H155952   2.570   3.812  14.835 -0.4721  3.4308 -0.1927
11487TIP3    H255953   2.688   3.798  14.741 -0.9561 -2.5377 -0.0953
11488TIP3   OH255954   5.608   1.651  10.678  0.0197 -0.1564  0.5313
11488TIP3    H155955   5.535   1.611  10.630 -0.5087  1.6138 -0.1741
11488TIP3    H255956   5.686   1.614  10.636 -0.4451 -1.6416  0.9290
11489TIP3   OH255957   0.490   4.792  13.929 -0.3439  0.2523  0.6005
11489TIP3    H155958   0.400   4.786  13.897 -0.2833 -2.7099  0.8038
11489TIP3    H255959   0.544   4.795  13.850 -0.5104 -0.8877  0.4269
11490TIP3   OH255960   4.763   2.080   4.465 -0.0539 -0.0937 -0.0093
11490TIP3    H155961   4.718   2.112   4.544 -1.0815  1.0244 -1.0296
11490TIP3    H255962   4.850   2.055   4.496 -0.2444  0.8924  1.3811
11491TIP3   OH255963   4.310   0.185   3.250  0.4236  0.1099 -0.3803
11491TIP3    H155964   4.276   0.212   3.165 -0.6975  0.7370  0.2539
11491TIP3    H255965   4.338   0.266   3.292  1.4456 -0.2509 -0.3382
11492TIP3   OH255966   1.726   1.942   1.484  0.5821 -0.1913  0.2263
11492TIP3    H155967   1.740   1.930   1.578  0.6341 -0.0886  0.2323
11492TIP3    H255968   1.632   1.952   1.475  0.4145 -1.7846  0.0778
11493TIP3   OH255969   3.042   3.490  14.810 -0.2367  0.5320  0.0689
11493TIP3    H155970   3.042   3.571  14.860  1.5822  0.4635  0.2234
11493TIP3    H255971   3.112   3.437  14.850 -1.3202 -1.0619 -0.0938
11494TIP3   OH255972   6.152   0.902  16.376 -0.4430 -0.1373  0.0155
11494TIP3    H155973   6.129   0.820  16.419  1.5951 -0.6628  0.1091
11494TIP3    H255974   6.247   0.904  16.375 -0.4496  1.0064 -2.3298
11495TIP3   OH255975   5.011   5.896  14.024 -0.7434  0.0018  0.1406
11495TIP3    H155976   4.919   5.898  14.050 -0.8015 -2.4221  0.2433
11495TIP3    H255977   5.046   5.818  14.067  1.3202  0.8071 -0.0438
11496TIP3   OH255978   3.700   3.302  12.485  0.6479 -0.1068  0.4912
11496TIP3    H155979   3.708   3.312  12.390  1.9175 -0.7637  0.5215
11496TIP3    H255980   3.607   3.286  12.500  0.4048  0.2366 -0.6175
11497TIP3   OH255981   5.069   1.263   3.771 -0.1809 -0.1562  0.2754
11497TIP3    H155982   5.132   1.309   3.716  2.0806 -1.8524  1.3303
11497TIP3    H255983   5.018   1.210   3.710  2.3517 -2.0940 -0.2641
11498TIP3   OH255984   6.444   0.430   1.427  0.2334 -0.0811 -0.7869
11498TIP3    H155985   6.458   0.442   1.333  1.2560 -0.2425 -0.6625
11498TIP3    H255986   6.361   0.474   1.444  1.2304  2.0753 -1.3293
11499TIP3   OH255987   3.586   3.555  13.610 -0.2240  0.1733 -0.3632
11499TIP3    H155988   3.626   3.630  13.565 -2.6811  1.8776  0.2061
11499TIP3    H255989   3.492   3.574  13.609 -0.7814 -2.3700  0.8054
11500TIP3   OH255990   0.745   0.647   1.255 -0.3186  0.2666 -0.4567
11500TIP3    H155991   0.819   0.698   1.222 -1.2627  1.4917 -0.7279
11500TIP3    H255992   0.667   0.693   1.223 -1.2502  0.5910  2.1008
11501TIP3   OH255993   3.505   6.621   3.166 -0.1966  0.0913 -0.2661
11501TIP3    H155994   3.492   6.644   3.074  2.0485  0.0450 -0.6131
11501TIP3    H255995   3.573   6.553   3.165 -1.4010 -1.1980  1.3095
11502TIP3   OH255996   4.978   2.956   3.021 -0.4460 -0.5038  0.1296
11502TIP3    H155997   4.978   2.944   3.116 -1.3795  1.7200  0.4370
11502TIP3    H255998   5.050   3.018   3.005 -0.5818 -0.5222 -0.5546
11503TIP3   OH255999   6.162   3.128  15.223  0.1510 -0.0868  0.0657
11503TIP3    H156000   6.108   3.186  15.169  0.4814 -0.6940 -0.9286
11503TIP3    H256001   6.244   3.120  15.175 -0.0527 -1.7263 -0.0297
11504TIP3   OH256002   1.169   0.254  15.383 -0.3775  0.5287  0.0485
11504TIP3    H156003   1.241   0.316  15.365 -0.3897 -0.3600 -3.3443
11504TIP3    H256004   1.101   0.308  15.424  0.6005  2.2490 -0.5303
11505TIP3   OH256005   5.237   2.452  16.737 -0.8917 -0.6051  0.5130
11505TIP3    H156006   5.168   2.401  16.779 -0.2629 -1.2030  0.8330
11505TIP3    H256007   5.191   2.514  16.681 -1.6618 -1.6778 -0.0553
11506TIP3   OH256008   2.682   4.387  14.133 -0.4626  0.1887 -0.5421
11506TIP3    H156009   2.623   4.458  14.157  0.4093  0.8590 -0.3457
11506TIP3    H256010   2.762   4.431  14.105 -0.2122 -0.6978 -1.2307
11507TIP3   OH256011   2.426   5.342   5.587  0.5653 -0.4191  0.1352
11507TIP3    H156012   2.468   5.415   5.632 -1.9225  1.4422 -0.4794
11507TIP3    H256013   2.353   5.318   5.643 -2.4001  1.7197 -2.6713
11508TIP3   OH256014   1.472   4.741   3.608  0.3811 -0.1394  0.6353
11508TIP3    H156015   1.484   4.739   3.703 -0.9378 -0.6766  0.8084
11508TIP3    H256016   1.542   4.797   3.575  1.3690 -0.6643  1.8420
11509TIP3   OH256017   2.793   5.138  14.332  0.4661 -0.0363  1.0869
11509TIP3    H156018   2.887   5.140  14.313  0.8096  0.2574  2.7706
11509TIP3    H256019   2.782   5.067  14.394 -0.1861  0.9715  2.1487
11510TIP3   OH256020   6.580   0.167  12.603  0.0459  0.4605 -0.4208
11510TIP3    H156021   6.613   0.147  12.515  1.0019 -1.0573  0.2550
11510TIP3    H256022   6.626   0.105  12.660 -2.4583 -0.3363  0.8242
11511TIP3   OH256023   2.707   0.122   4.462 -0.3483 -0.0844 -0.0202
11511TIP3    H156024   2.682   0.102   4.552  0.6099 -2.2984 -0.2207
11511TIP3    H256025   2.653   0.064   4.408  0.4899 -0.1909 -0.7639
11512TIP3   OH256026   3.208   6.158  11.253  0.0928 -0.1392 -0.3670
11512TIP3    H156027   3.277   6.205  11.206 -0.1189 -0.0744 -0.6150
11512TIP3    H256028   3.198   6.205  11.335  1.2864 -0.9510  0.2545
11513TIP3   OH256029   3.939   6.139  13.248  0.1976  0.5971 -0.4555
11513TIP3    H156030   3.931   6.093  13.331 -0.9762  0.4496 -0.6492
11513TIP3    H256031   3.980   6.076  13.189 -4.1842 -1.3610 -1.6072
11514TIP3   OH256032   3.427   4.962   2.615 -0.0210 -0.8100 -0.2147
11514TIP3    H156033   3.505   5.001   2.576 -0.6847 -0.1809 -0.9436
11514TIP3    H256034   3.375   4.934   2.539 -0.4268 -1.3748  0.2701
11515TIP3   OH256035   4.314   1.354  13.626 -0.1948  0.1488  0.5085
11515TIP3    H156036   4.245   1.288  13.620 -1.2056  1.1303  1.1712
11515TIP3    H256037   4.388   1.307  13.665 -0.4268 -0.9392 -0.3165
11516TIP3   OH256038   6.529   3.184   5.411  0.3712  0.1922 -0.1230
11516TIP3    H156039   6.583   3.211   5.337  1.9349 -0.3254  0.7850
11516TIP3    H256040   6.588   3.191   5.487 -1.3095  1.1333  1.1413
11517TIP3   OH256041   0.668   2.010   2.941  0.4481 -0.5155 -0.9987
11517TIP3    H156042   0.686   2.083   2.882  0.8119 -0.3532 -0.6908
11517TIP3    H256043   0.605   2.045   3.004  1.3118 -0.1753 -0.2988
11518TIP3   OH256044   5.228   1.462  16.432  0.8231  0.5515 -0.1569
11518TIP3    H156045   5.246   1.424  16.347  2.4250  1.1858 -0.1251
11518TIP3    H256046   5.160   1.527  16.416  1.3027  0.8501 -1.0001
11519TIP3   OH256047   4.522   3.837  14.940  0.0272  0.1292  0.0454
11519TIP3    H156048   4.470   3.894  14.997 -1.6114 -1.4565  0.1826
11519TIP3    H256049   4.499   3.865  14.852  1.3824  1.5451  0.1216
11520TIP3   OH256050   5.153   3.733  11.187 -0.7148  0.1634  0.2053
11520TIP3    H156051   5.124   3.671  11.120 -0.3903  1.4466 -1.1420
11520TIP3    H256052   5.072   3.773  11.219 -0.8246  0.0170  0.1141
11521TIP3   OH256053   6.616   6.475   3.804  0.0471  0.3140 -0.1665
11521TIP3    H156054   6.621   6.393   3.853 -0.1877  0.8616  0.8017
11521TIP3    H256055   6.707   6.497   3.785  0.1770  0.3245  0.4397
11522TIP3   OH256056   5.746   0.301   0.464  0.2242 -0.0188 -0.1800
11522TIP3    H156057   5.775   0.296   0.373 -0.1534  1.8450 -0.4348
11522TIP3    H256058   5.654   0.275   0.461  0.8642 -2.4018  0.0741
11523TIP3   OH256059   0.484   6.757   0.576 -0.4883  0.0817 -0.3791
11523TIP3    H156060   0.392   6.752   0.602 -0.7220  1.4794 -0.8977
11523TIP3    H256061   0.528   6.800   0.650  0.3274 -3.2895  1.1996
11524TIP3   OH256062   6.243   3.525   5.979 -0.3403 -0.7592 -0.2004
11524TIP3    H156063   6.306   3.555   5.913 -0.7934 -0.2349 -0.3971
11524TIP3    H256064   6.196   3.604   6.005 -0.4755 -1.0429  0.4184
11525TIP3   OH256065   3.319   2.087  15.314 -0.0400  0.2922 -0.0031
11525TIP3    H156066   3.298   2.171  15.272  0.9445 -0.4849 -2.1301
11525TIP3    H256067   3.414   2.090  15.327  0.1582 -0.8877 -1.0551
11526TIP3   OH256068   4.563   6.346  14.900 -0.1792 -0.0055 -0.4900
11526TIP3    H156069   4.497   6.286  14.934 -0.1920 -0.3318 -1.0934
11526TIP3    H256070   4.642   6.325  14.949 -1.1085  2.0271  1.9789
11527TIP3   OH256071   0.475   3.728   4.319  0.4493  0.1637  0.2135
11527TIP3    H156072   0.394   3.677   4.313  0.5709 -0.0567  0.4225
11527TIP3    H256073   0.529   3.696   4.246 -0.0221  0.9753 -0.4969
11528TIP3   OH256074   3.615   5.149   1.984  0.1967  0.2120 -0.8305
11528TIP3    H156075   3.618   5.178   1.893 -0.4918  1.3518 -0.5005
11528TIP3    H256076   3.542   5.198   2.022 -0.4593 -1.3455 -0.0427
11529TIP3   OH256077   3.398   3.423   4.132 -0.2712  0.3744  0.1072
11529TIP3    H156078   3.488   3.408   4.104  0.1779 -0.1654  1.8256
11529TIP3    H256079   3.402   3.501   4.186 -0.6530 -0.2813  1.0914
11530TIP3   OH256080   3.566   5.975   3.602  0.3678  0.0013 -0.4368
11530TIP3    H156081   3.488   6.030   3.601  1.4364  1.5825  0.6854
11530TIP3    H256082   3.602   5.985   3.513 -0.8040 -0.9197 -1.0328
11531TIP3   OH256083   3.858   0.838  16.538  0.4277  0.2994 -0.3782
11531TIP3    H156084   3.927   0.833  16.472  0.5210 -0.7958 -0.1978
11531TIP3    H256085   3.891   0.903  16.601  1.2997 -0.2234 -0.2886
11532TIP3   OH256086   6.782   0.043   5.087 -0.0602 -1.0599  0.1010
11532TIP3    H156087   6.820   0.064   5.002  0.6185 -1.6729  0.2484
11532TIP3    H256088   6.761  -0.050   5.082 -0.5816 -0.9597  0.3914
11533TIP3   OH256089   2.748   3.823  12.193  0.1588  0.7637 -0.2678
11533TIP3    H156090   2.831   3.779  12.212  1.2904  2.2734 -1.5594
11533TIP3    H256091   2.745   3.827  12.097 -1.9799 -0.2948 -0.2703
11534TIP3   OH256092   2.026   4.004  15.311  0.4213  0.2100  0.0339
11534TIP3    H156093   2.036   4.028  15.403  0.9370 -1.9788  0.5768
11534TIP3    H256094   2.097   3.943  15.294 -0.4989 -0.4807 -1.4511
11535TIP3   OH256095   3.357   1.444   5.863  0.0340 -0.2728  0.4020
11535TIP3    H156096   3.304   1.421   5.787 -1.8715  0.7033  1.4128
11535TIP3    H256097   3.320   1.393   5.935  0.3738  0.5453  1.1600
11536TIP3   OH256098   5.670   4.687  14.419 -0.6939  0.4399  0.0355
11536TIP3    H156099   5.575   4.700  14.427 -0.8518 -1.7913  2.3778
11536TIP3    H256100   5.708   4.761  14.466 -1.1749  2.2826 -2.3493
11537TIP3   OH256101   5.039   1.022  14.248 -0.4094  0.1077 -0.4259
11537TIP3    H156102   5.026   0.958  14.178  0.1695 -1.0234  0.4665
11537TIP3    H256103   5.132   1.043  14.244 -0.0570 -1.1446  0.9863
11538TIP3   OH256104   6.026   4.840  12.401  0.1584 -0.3777 -0.0653
11538TIP3    H156105   5.949   4.786  12.421 -0.7000  0.6490 -0.5442
11538TIP3    H256106   6.057   4.807  12.317  0.0171 -0.5519 -0.0497
11539TIP3   OH256107   4.201   4.517  14.493 -0.0404 -0.5479 -0.4582
11539TIP3    H156108   4.135   4.452  14.516 -1.6789  0.5808 -1.8753
11539TIP3    H256109   4.282   4.468  14.486 -0.8383 -2.0672  0.6470
11540TIP3   OH256110   4.285   1.712   5.108  0.5322  0.1767 -0.0975
11540TIP3    H156111   4.276   1.801   5.076  1.4487  0.1756 -0.3740
11540TIP3    H256112   4.261   1.717   5.200 -1.8445  0.2346 -0.6933
11541TIP3   OH256113   2.853   6.455  11.390 -0.7167 -0.3009 -0.1831
11541TIP3    H156114   2.925   6.404  11.427 -0.3995 -1.1050 -1.8998
11541TIP3    H256115   2.791   6.465  11.463  0.8169 -0.1426  1.1239
11542TIP3   OH256116   0.686   1.181  12.193 -0.5475 -0.0453  0.3228
11542TIP3    H156117   0.646   1.094  12.195  2.7088 -1.6508 -0.0598
11542TIP3    H256118   0.678   1.213  12.283 -2.2199 -0.5038  0.3575
11543TIP3   OH256119   0.190   1.838  16.217  0.1458  0.2813 -0.3581
11543TIP3    H156120   0.237   1.755  16.227 -0.2401 -0.0709 -1.4074
11543TIP3    H256121   0.098   1.814  16.217  0.0527  0.5897 -1.6416
11544TIP3   OH256122   4.543   3.173   5.916  0.6785 -0.0539 -0.4005
11544TIP3    H156123   4.587   3.157   5.832  0.2401  0.8688 -0.8211
11544TIP3    H256124   4.540   3.269   5.922  0.1114 -0.1217  0.3597
11545TIP3   OH256125   0.217   3.103  13.271 -0.2879 -0.1617 -0.4763
11545TIP3    H156126   0.191   3.142  13.188  1.1505  0.8866 -0.4648
11545TIP3    H256127   0.135   3.078  13.313 -1.0155 -1.3007 -2.4742
11546TIP3   OH256128   4.484   1.934  13.513 -0.1638 -0.2190  0.4547
11546TIP3    H156129   4.534   1.938  13.432  1.6877 -1.1552  1.5064
11546TIP3    H256130   4.403   1.889  13.490  1.4555 -2.7976 -0.3632
11547TIP3   OH256131   3.672   0.032  12.022 -0.0818 -0.1230 -0.1884
11547TIP3    H156132   3.654   0.108  11.968 -0.1895 -0.1305 -0.1630
11547TIP3    H256133   3.608   0.036  12.093 -0.2274 -0.3557 -0.3070
11548TIP3   OH256134   0.467   4.433   4.658  0.0961  0.2723 -0.0175
11548TIP3    H156135   0.558   4.408   4.668 -0.6265 -2.0848  1.2033
11548TIP3    H256136   0.438   4.455   4.747 -0.5756  0.7710 -0.3510
11549TIP3   OH256137   2.344   0.774  13.296  0.3431 -0.4656 -0.4551
11549TIP3    H156138   2.352   0.836  13.369 -0.1091 -1.3300  0.3366
11549TIP3    H256139   2.314   0.828  13.223  1.0239  0.4555 -0.0732
11550TIP3   OH256140   5.916   0.171  12.264  0.0450  0.2345  0.0312
11550TIP3    H156141   6.005   0.201  12.246 -0.1326 -0.2993 -1.8285
11550TIP3    H256142   5.919   0.140  12.354  1.2085  2.1716  0.6958
11551TIP3   OH256143   4.052   4.879   1.615 -0.2006  0.4479 -0.0934
11551TIP3    H156144   4.077   4.794   1.651  1.1831  0.9401  0.1341
11551TIP3    H256145   4.135   4.919   1.587 -0.8911  1.5015 -0.6766
11552TIP3   OH256146   2.422   2.162   4.535  0.2308  0.3631 -0.0809
11552TIP3    H156147   2.358   2.091   4.540  0.1042  0.4615 -0.3119
11552TIP3    H256148   2.487   2.141   4.602  0.0667  0.1541  0.0107
11553TIP3   OH256149   0.165   6.190   3.912 -0.2969 -0.0985 -0.0280
11553TIP3    H156150   0.157   6.268   3.967 -0.7912  1.5787 -2.3989
11553TIP3    H256151   0.090   6.195   3.853 -0.8567 -2.8987  0.3871
11554TIP3   OH256152   0.827   4.738   0.817  0.5443 -0.0353 -0.1946
11554TIP3    H156153   0.911   4.764   0.779  2.2199 -0.1752  3.2527
11554TIP3    H256154   0.824   4.643   0.806  0.9369 -0.0594 -0.0855
11555TIP3   OH256155   3.013   0.993   3.870 -0.0501  0.1200 -0.0166
11555TIP3    H156156   2.923   0.972   3.892 -0.4648  1.2513 -0.6391
11555TIP3    H256157   3.023   1.085   3.892  1.1737 -0.1732  0.7474
11556TIP3   OH256158   4.146   0.253  11.671 -0.1706  0.7969 -0.7880
11556TIP3    H156159   4.214   0.196  11.633  0.2128  0.7954 -0.1130
11556TIP3    H256160   4.064   0.208  11.652  0.1986 -0.5971  0.7256
11557TIP3   OH256161   5.664   5.421   1.356 -0.4167 -0.3734 -0.3716
11557TIP3    H156162   5.618   5.336   1.357 -0.0939 -0.5425  0.8739
11557TIP3    H256163   5.607   5.478   1.304 -1.2521 -1.0255 -0.1938
11558TIP3   OH256164   1.813   1.881   0.314  0.5399  0.4582 -0.5048
11558TIP3    H156165   1.898   1.864   0.274  1.9896  2.1405  1.7540
11558TIP3    H256166   1.753   1.894   0.239  2.4450  0.2286 -2.1038
11559TIP3   OH256167   1.091   0.802   0.596 -0.3473  0.2537 -0.5299
11559TIP3    H156168   1.136   0.743   0.656  0.8067  1.0585 -0.5906
11559TIP3    H256169   1.075   0.881   0.649 -0.0458  0.6572 -1.0382
11560TIP3   OH256170   2.760   6.102  15.124 -0.2524  0.2089  0.2803
11560TIP3    H156171   2.756   6.066  15.213 -1.4725 -0.7602 -0.1515
11560TIP3    H256172   2.703   6.045  15.073  1.1897  0.2068 -1.3388
11561TIP3   OH256173   0.671   2.698  13.039 -0.2788 -0.8071  0.3145
11561TIP3    H156174   0.618   2.711  12.960 -0.8667  0.2040  0.8746
11561TIP3    H256175   0.750   2.749  13.024 -0.7679  0.0751  0.7481
11562TIP3   OH256176   0.930   6.401   1.819 -0.2745  0.2445 -0.5049
11562TIP3    H156177   0.982   6.466   1.772  0.4321  0.0078 -0.0498
11562TIP3    H256178   0.889   6.349   1.750  2.7839 -1.7381 -0.9166
11563TIP3   OH256179   2.935   1.084  13.434  0.3589  0.3061  0.2910
11563TIP3    H156180   2.986   1.004  13.445  0.5574  0.2271 -1.1037
11563TIP3    H256181   2.939   1.128  13.519 -0.3371 -1.4995  1.2829
11564TIP3   OH256182   3.165   0.993   5.340 -0.0953 -0.3852 -0.3207
11564TIP3    H156183   3.258   0.972   5.337 -0.1606 -0.7986  0.4252
11564TIP3    H256184   3.136   0.985   5.249  1.1673  2.4105 -1.0224
11565TIP3   OH256185   5.413   6.539   0.620 -0.0078  0.0038 -0.7126
11565TIP3    H156186   5.331   6.489   0.622 -0.4852  0.6929 -2.3387
11565TIP3    H256187   5.479   6.478   0.651 -1.2733 -0.2851  1.5009
11566TIP3   OH256188   3.128   5.457  15.509  0.0528  0.0693 -0.3216
11566TIP3    H156189   3.210   5.505  15.522  0.6025 -1.2280  1.0973
11566TIP3    H256190   3.127   5.392  15.578 -0.2232 -2.6485 -2.8012
11567TIP3   OH256191   5.290   6.659  16.909 -0.5201 -0.1249  0.4861
11567TIP3    H156192   5.268   6.739  16.955 -2.5613 -0.3214 -0.0876
11567TIP3    H256193   5.224   6.596  16.937  0.2335 -1.2069 -0.1140
11568TIP3   OH256194   1.515   4.515  13.436 -0.1146 -0.3786 -0.3877
11568TIP3    H156195   1.524   4.608  13.416  1.4195 -0.1227  1.3223
11568TIP3    H256196   1.427   4.505  13.472 -0.8860  0.0977 -2.0966
11569TIP3   OH256197   2.555   6.641   4.871  0.4706  0.2450 -0.2059
11569TIP3    H156198   2.624   6.602   4.818 -1.9092 -1.7546 -1.9970
11569TIP3    H256199   2.506   6.565   4.905 -0.7412  1.6008  1.1419
11570TIP3   OH256200   2.704   4.565   5.544 -0.8656  0.1284  0.5312
11570TIP3    H156201   2.628   4.615   5.516 -0.2057  2.0377  1.9858
11570TIP3    H256202   2.774   4.629   5.549  0.1043 -1.0039  2.0945
11571TIP3   OH256203   5.107   3.440   4.493  0.0603 -0.2032  0.7181
11571TIP3    H156204   5.189   3.473   4.530 -0.7134  1.0262  1.3614
11571TIP3    H256205   5.131   3.356   4.454  2.1581  1.1947 -1.2043
11572TIP3   OH256206   5.050   0.439  15.387  0.1048  0.2166  0.4186
11572TIP3    H156207   4.980   0.479  15.337 -0.3794  0.2479  1.1135
11572TIP3    H256208   5.094   0.513  15.430  1.6069  0.3652 -1.3129
11573TIP3   OH256209   4.643   6.799   0.506 -0.2358  0.1779 -0.4049
11573TIP3    H156210   4.572   6.741   0.477  0.0024 -1.2198  1.7407
11573TIP3    H256211   4.723   6.755   0.477 -0.1715  1.3064 -2.0249
11574TIP3   OH256212   0.283   2.546  12.335 -0.1217  0.6500 -0.3679
11574TIP3    H156213   0.218   2.611  12.362 -0.1421  0.3452  0.3298
11574TIP3    H256214   0.303   2.569  12.244 -0.1494  1.6115 -0.1420
11575TIP3   OH256215   0.145   1.399   3.681 -0.5295  0.1512 -0.0383
11575TIP3    H156216   0.239   1.412   3.688 -0.4603 -0.8309  0.8344
11575TIP3    H256217   0.118   1.461   3.613  0.4033  1.9769  1.2244
11576TIP3   OH256218   6.025   3.877  12.706  0.8414 -0.4921  0.1775
11576TIP3    H156219   6.089   3.909  12.643  0.4687 -0.7460 -0.3295
11576TIP3    H256220   5.963   3.826  12.654 -0.9243  1.4435  0.3669
11577TIP3   OH256221   4.704   4.771   6.415  0.2286 -0.5870  0.0286
11577TIP3    H156222   4.766   4.721   6.361  0.0188  1.5085 -2.1977
11577TIP3    H256223   4.618   4.743   6.384  0.1053  0.1939 -0.3448
11578TIP3   OH256224   3.861   2.730  16.780 -0.3643 -0.1027 -0.1871
11578TIP3    H156225   3.836   2.698  16.867  1.4151 -2.0041 -0.3385
11578TIP3    H256226   3.924   2.800  16.798 -0.6174  0.0610  0.0679
11579TIP3   OH256227   1.670   3.039  14.789 -0.6906 -0.3478  0.2038
11579TIP3    H156228   1.591   3.078  14.827  0.0443  0.0144  1.4117
11579TIP3    H256229   1.705   2.983  14.859  1.9445  2.0873  0.9181
11580TIP3   OH256230   0.896   4.621   6.037 -0.3381 -0.3373 -0.7968
11580TIP3    H156231   0.876   4.578   5.953  0.1916 -2.0730 -0.0506
11580TIP3    H256232   0.854   4.566   6.102 -0.6611  0.9553  0.1119
11581TIP3   OH256233   6.120   4.659  12.194 -0.1156 -0.0018  0.3690
11581TIP3    H156234   6.123   4.564  12.196 -0.0607  0.0328  2.5767
11581TIP3    H256235   6.211   4.686  12.179  0.0943 -0.2835  1.1141
11582TIP3   OH256236   2.076   6.330   1.561  0.2400  0.0202 -0.2188
11582TIP3    H156237   1.991   6.356   1.526 -0.3910 -0.1699  1.1287
11582TIP3    H256238   2.068   6.236   1.576  0.3116  0.1863  0.9183
11583TIP3   OH256239   3.896   0.548   6.400 -0.3534  0.1934  0.0651
11583TIP3    H156240   3.869   0.554   6.492  0.4734 -0.3469  0.3450
11583TIP3    H256241   3.897   0.454   6.382  0.1352  0.2689 -0.3017
11584TIP3   OH256242   4.977   3.493   5.465 -0.2954 -0.4081  0.3616
11584TIP3    H156243   4.958   3.401   5.445 -1.1013 -0.3329  0.7696
11584TIP3    H256244   5.071   3.502   5.449 -0.1945 -1.3281  0.4153
11585TIP3   OH256245   1.402   5.922   0.648 -0.4704 -0.2270 -0.1456
11585TIP3    H156246   1.320   5.894   0.607 -0.5100 -0.3945  0.0479
11585TIP3    H256247   1.392   6.017   0.656  0.5503  0.1587 -2.7543
11586TIP3   OH256248   2.082   3.508  16.782 -0.3387  0.0281 -0.3992
11586TIP3    H156249   2.025   3.476  16.711  0.5209 -1.8571 -0.2765
11586TIP3    H256250   2.033   3.489  16.862 -1.0873  1.6932 -0.4545
11587TIP3   OH256251   2.169   3.314   3.582  0.0432 -0.6499  0.1328
11587TIP3    H156252   2.185   3.396   3.629 -1.0510  0.1437 -0.8559
11587TIP3    H256253   2.227   3.251   3.625  2.6195  1.1417 -0.5958
11588TIP3   OH256254   2.588   1.669   4.514  0.6866  0.0940 -0.3668
11588TIP3    H156255   2.561   1.598   4.456 -1.3467  0.8695 -0.3966
11588TIP3    H256256   2.667   1.705   4.473  1.0770 -1.3993 -0.9485
11589TIP3   OH256257   2.153   5.122   4.791  0.0806 -0.2384 -0.4151
11589TIP3    H156258   2.072   5.115   4.842  0.2064 -0.8829 -0.2971
11589TIP3    H256259   2.223   5.121   4.857  0.1878  0.2439 -0.5209
11590TIP3   OH256260   4.935   1.510   4.895 -0.4030 -0.6782 -0.0125
11590TIP3    H156261   4.845   1.530   4.920 -0.0078  0.0586  0.8502
11590TIP3    H256262   4.984   1.512   4.977  0.3006 -1.6346 -0.4030
11591TIP3   OH256263   0.134   1.625  11.054  0.2521  0.1908  0.0356
11591TIP3    H156264   0.152   1.565  11.127  1.3020  0.7447  0.2381
11591TIP3    H256265   0.145   1.571  10.976 -0.5056 -0.3104  0.2662
11592TIP3   OH256266   2.998   0.607  11.207  0.1904  0.3595  0.0997
11592TIP3    H156267   2.996   0.584  11.300  0.1709  0.0116  0.0130
11592TIP3    H256268   2.907   0.626  11.186  0.0577 -0.4212 -0.0609
11593TIP3   OH256269   1.925   1.274   1.158 -0.0747  0.2258  0.1641
11593TIP3    H156270   1.963   1.311   1.078  0.2614  1.1303  0.7326
11593TIP3    H256271   1.900   1.350   1.210  1.8263 -0.3129  1.9378
11594TIP3   OH256272   3.924   4.628   2.380 -0.0384  0.4888  0.2645
11594TIP3    H156273   4.003   4.670   2.347 -2.1560  2.5180 -2.4153
11594TIP3    H256274   3.927   4.539   2.345 -0.0687  1.2885 -1.8189
11595TIP3   OH256275   4.203   6.001  11.551  0.0894 -0.4377 -0.4691
11595TIP3    H156276   4.206   5.998  11.455  0.5642 -2.5499 -0.4195
11595TIP3    H256277   4.139   6.068  11.572 -1.1780 -1.0532 -2.2912
11596TIP3   OH256278   4.428   2.269   2.319 -0.2701  0.0171 -0.1126
11596TIP3    H156279   4.366   2.293   2.250 -0.5451  0.2782  0.2213
11596TIP3    H256280   4.394   2.187   2.354  0.7255 -0.9408 -1.3209
11597TIP3   OH256281   1.316   0.754  16.299 -0.4828  0.3614 -0.1266
11597TIP3    H156282   1.342   0.674  16.346 -2.4437 -0.1350  0.1642
11597TIP3    H256283   1.386   0.816  16.317 -0.6233 -0.1919  2.5307
11598TIP3   OH256284   0.903   2.060  13.961 -0.1490  0.2806 -0.2366
11598TIP3    H156285   0.992   2.029  13.946 -0.2019 -0.3936  0.7659
11598TIP3    H256286   0.848   1.985  13.938 -0.5123  1.0070 -1.7637
11599TIP3   OH256287   4.973   6.073   2.809 -0.2805  0.5536 -0.8869
11599TIP3    H156288   4.908   6.069   2.739 -0.8559 -1.8995 -0.2541
11599TIP3    H256289   5.033   6.001   2.790 -1.1227 -0.9100  1.7848
11600TIP3   OH256290   6.234   4.986  14.554  0.3201  0.0450  0.2377
11600TIP3    H156291   6.219   5.053  14.487 -1.0252  2.4999  2.8616
11600TIP3    H256292   6.160   4.926  14.546 -1.0194  1.5693  0.9292
11601TIP3   OH256293   3.566   4.562   4.996 -0.7580  0.5542 -0.2016
11601TIP3    H156294   3.545   4.649   4.962 -1.0765  0.4177 -0.3513
11601TIP3    H256295   3.501   4.504   4.956 -2.5333  0.7249  2.3839
11602TIP3   OH256296   4.072   2.592  11.493  1.1497  0.3693  0.0197
11602TIP3    H156297   4.158   2.563  11.522  0.9850 -1.8975 -1.6513
11602TIP3    H256298   4.011   2.527  11.528  0.4133  0.4242 -1.1265
11603TIP3   OH256299   6.776   1.805   2.753 -0.3276  0.2626 -0.4804
11603TIP3    H156300   6.763   1.772   2.664  0.9460  0.1505 -0.6233
11603TIP3    H256301   6.707   1.762   2.805 -0.6520 -0.1851 -1.2754
11604TIP3   OH256302   5.307   5.465   0.245 -0.5640  0.4544 -0.3013
11604TIP3    H156303   5.376   5.521   0.209  0.4744  0.1984  1.2259
11604TIP3    H256304   5.261   5.521   0.308 -0.1990 -0.0736  0.4482
11605TIP3   OH256305   0.329   2.957   6.570  0.1773  0.1462 -0.3921
11605TIP3    H156306   0.375   2.993   6.494 -0.6290  0.8100 -0.5729
11605TIP3    H256307   0.249   2.918   6.534  0.2792 -0.4280 -0.0022
11606TIP3   OH256308   2.094   5.432  11.682  0.5274  0.3529 -1.1234
11606TIP3    H156309   2.083   5.522  11.653  0.0495 -0.1203 -2.4377
11606TIP3    H256310   2.010   5.390  11.663  0.1774  0.0271  0.9851
11607TIP3   OH256311   4.734   4.854  11.496 -0.2168 -0.1243  0.6168
11607TIP3    H156312   4.782   4.881  11.575 -0.7058  0.6887  0.6515
11607TIP3    H256313   4.643   4.877  11.515 -0.1175  1.5174 -0.7854
11608TIP3   OH256314   5.652   4.168   1.247  0.1381 -0.2080  0.2911
11608TIP3    H156315   5.721   4.140   1.186  0.7112 -0.5494  1.0878
11608TIP3    H256316   5.646   4.263   1.235  0.1477 -0.2942 -0.3989
11609TIP3   OH256317   6.347   3.263   4.712 -0.2797 -0.2681  0.2891
11609TIP3    H156318   6.317   3.258   4.802  0.2753  1.1554  0.5615
11609TIP3    H256319   6.301   3.339   4.675 -0.9080 -1.1471 -0.7886
11610TIP3   OH256320   3.788   1.580  15.124  0.4403  0.1850  0.5190
11610TIP3    H156321   3.823   1.562  15.211  0.5307  0.4443  0.5361
11610TIP3    H256322   3.816   1.506  15.071  0.1554 -0.1077  0.7780
11611TIP3   OH256323   3.905   1.709   1.542 -0.3102 -0.1321 -0.1773
11611TIP3    H156324   3.983   1.670   1.583  0.9222  1.7759 -0.6454
11611TIP3    H256325   3.926   1.712   1.449 -1.2909 -0.3367 -0.4103
11612TIP3   OH256326   2.205   0.028  16.157  0.0727  0.1867 -0.4485
11612TIP3    H156327   2.281  -0.007  16.110 -0.3718  0.2985 -1.2405
11612TIP3    H256328   2.232   0.026  16.249  0.3148 -1.6259 -0.5330
11613TIP3   OH256329   3.725   6.552   1.045 -0.4389  0.3031  0.2159
11613TIP3    H156330   3.778   6.475   1.066  1.7079  1.0399 -2.3383
11613TIP3    H256331   3.643   6.538   1.093  1.0577 -2.1134  2.1478
11614TIP3   OH256332   4.019   1.192   3.357  0.0690 -0.0159  0.6288
11614TIP3    H156333   3.934   1.219   3.322  0.2522 -0.8671 -0.4781
11614TIP3    H256334   3.998   1.153   3.442 -0.8666 -1.8453 -0.4000
11615TIP3   OH256335   2.656   3.545  14.641  0.3082  0.1822  0.1112
11615TIP3    H156336   2.646   3.561  14.547 -0.8504  0.2484  0.2375
11615TIP3    H256337   2.668   3.450  14.648 -3.8446 -0.4346  0.1850
11616TIP3   OH256338   5.793   2.911  11.029  0.6047 -0.0435 -0.4797
11616TIP3    H156339   5.825   3.001  11.035 -0.6884  0.3176  1.3381
11616TIP3    H256340   5.863   2.864  10.984  2.3329  1.3827  0.6486
11617TIP3   OH256341   1.738   0.935  16.136 -0.1165  0.4105  0.7142
11617TIP3    H156342   1.785   0.917  16.218 -0.4432  0.4820  0.9197
11617TIP3    H256343   1.660   0.879  16.141 -0.6207  1.1221  0.8951
11618TIP3   OH256344   3.764   3.054   0.602  0.1086 -0.4308 -0.0451
11618TIP3    H156345   3.705   3.075   0.530  0.6274  1.2380 -0.0065
11618TIP3    H256346   3.710   3.064   0.681 -0.4624 -2.2708 -0.1897
11619TIP3   OH256347   2.390   1.317   5.647 -0.4911  0.1706 -0.4226
11619TIP3    H156348   2.399   1.393   5.589 -1.8559  0.5127 -0.2255
11619TIP3    H256349   2.399   1.353   5.735  0.3343 -0.1381 -0.3867
11620TIP3   OH256350   3.584   2.017   0.440  0.2111 -0.2920 -0.3809
11620TIP3    H156351   3.521   2.075   0.397 -0.4234 -1.1766 -0.6489
11620TIP3    H256352   3.598   1.945   0.378  0.5109 -0.7583  0.2187
11621TIP3   OH256353   6.213   2.203  12.624  0.1566 -0.0223  0.0338
11621TIP3    H156354   6.265   2.124  12.605  0.9317  0.5900 -0.3944
11621TIP3    H256355   6.223   2.216  12.718 -0.1923 -0.5823  0.1559
11622TIP3   OH256356   3.704   1.717  12.051  0.5133  0.3549  0.3707
11622TIP3    H156357   3.693   1.659  12.126  1.0889  0.5839  0.6381
11622TIP3    H256358   3.791   1.695  12.017 -0.1205 -0.3900 -0.7867
11623TIP3   OH256359   0.413   3.954   3.622 -0.3734 -0.5824  0.4401
11623TIP3    H156360   0.368   3.871   3.635 -0.0092 -0.9434 -0.5619
11623TIP3    H256361   0.408   3.998   3.707 -2.2918 -0.7663  0.4330
11624TIP3   OH256362   5.866   3.217   6.027 -0.0185  0.2943  0.5927
11624TIP3    H156363   5.807   3.257   6.090 -1.4336  0.6278 -0.9208
11624TIP3    H256364   5.856   3.123   6.042 -1.6994  0.3090 -0.3029
11625TIP3   OH256365   2.352   3.177   0.360 -0.3018 -0.1972 -0.0081
11625TIP3    H156366   2.427   3.118   0.351 -0.1706  0.0344 -0.4121
11625TIP3    H256367   2.277   3.125   0.331  0.1822  0.7037 -2.9931
11626TIP3   OH256368   1.597   3.879  13.195 -0.2514  0.2868  0.1615
11626TIP3    H156369   1.662   3.878  13.124  0.9484 -0.7852  1.2609
11626TIP3    H256370   1.557   3.793  13.192 -0.3490  0.3190  0.6621
11627TIP3   OH256371   6.243   0.171   0.101 -0.5839  0.0863  0.2331
11627TIP3    H156372   6.236   0.214   0.186 -1.2670 -0.6387  0.5525
11627TIP3    H256373   6.334   0.183   0.075 -0.3353  0.1906  1.1374
11628TIP3   OH256374   1.280   0.691  14.887  0.0314 -0.2897  0.5971
11628TIP3    H156375   1.248   0.748  14.818  1.9278 -1.4396 -1.2799
11628TIP3    H256376   1.224   0.614  14.882  2.0720 -1.6910 -1.7471
11629TIP3   OH256377   6.030   5.040  13.590 -0.2383 -0.0752 -0.9856
11629TIP3    H156378   5.965   5.059  13.658 -0.6099  0.7658 -1.5701
11629TIP3    H256379   6.000   4.958  13.551 -0.1534 -0.4396 -0.2977
11630TIP3   OH256380   0.453   0.091   2.733 -0.1935 -0.1072  0.0987
11630TIP3    H156381   0.499   0.007   2.737 -0.8245 -0.4629  0.1012
11630TIP3    H256382   0.368   0.073   2.772 -0.6242  0.3359 -0.6158
11631TIP3   OH256383   3.190   3.598  15.671  0.1365 -0.0791  0.5880
11631TIP3    H156384   3.280   3.568  15.653  1.0029  1.9163  1.4583
11631TIP3    H256385   3.152   3.612  15.584  1.2473  0.7040  0.2170
11632TIP3   OH256386   0.567   0.451  15.528 -0.3315  0.0751 -0.0385
11632TIP3    H156387   0.577   0.410  15.442 -1.6521 -0.1850 -0.0761
11632TIP3    H256388   0.507   0.393  15.575 -1.4072  1.4160  0.2671
11633TIP3   OH256389   3.593   6.771   5.366 -0.2708  0.5625  0.8323
11633TIP3    H156390   3.612   6.686   5.405  0.8495  0.4683  0.1082
11633TIP3    H256391   3.648   6.832   5.415 -0.4993  0.7591  0.8451
11634TIP3   OH256392   0.300   2.575  15.802  0.3985  0.1698  0.3508
11634TIP3    H156393   0.305   2.479  15.799 -0.0960  0.1176  1.0040
11634TIP3    H256394   0.240   2.598  15.732  1.6579  0.1042 -0.7639
11635TIP3   OH256395   1.955   1.833   5.138 -0.3154  0.7053  0.3562
11635TIP3    H156396   1.929   1.780   5.064  0.0319  0.0808  0.6789
11635TIP3    H256397   1.873   1.859   5.180 -0.4612 -0.2915  0.6972
11636TIP3   OH256398   3.892   5.537   6.142 -0.2231  0.3665  0.2841
11636TIP3    H156399   3.938   5.606   6.093  0.4869 -0.9825 -1.0089
11636TIP3    H256400   3.847   5.583   6.212  2.2541  1.8834  0.9544
11637TIP3   OH256401   4.193   4.666   4.953  0.4288  0.6702  0.0912
11637TIP3    H156402   4.152   4.637   4.872  0.4353  0.7181  0.0711
11637TIP3    H256403   4.216   4.584   4.998  1.5036  0.6456 -0.4927
11638TIP3   OH256404   3.263   3.924   5.347  0.4044 -0.0151 -0.0326
11638TIP3    H156405   3.343   3.900   5.394  1.3675  1.7783 -0.6886
11638TIP3    H256406   3.231   4.001   5.394  0.7284  1.0753 -1.5726
11639TIP3   OH256407   5.442   5.623   6.440 -0.1980 -0.3735  0.0927
11639TIP3    H156408   5.361   5.584   6.406  0.7958 -1.3940 -1.1826
11639TIP3    H256409   5.418   5.658   6.525 -1.8681 -1.1060 -0.0556
11640TIP3   OH256410   2.820   1.928   5.185  0.5014  0.1160 -0.4298
11640TIP3    H156411   2.741   1.925   5.240  0.3536 -1.3997 -0.6941
11640TIP3    H256412   2.796   1.986   5.112 -0.7894 -1.1943 -1.0917
11641TIP3   OH256413   5.867   4.467  17.192 -0.0459  0.2433  0.1567
11641TIP3    H156414   5.802   4.481  17.123  0.9767  0.4052 -0.7765
11641TIP3    H256415   5.844   4.531  17.259 -0.2779  0.9585 -0.5916
11642TIP3   OH256416   0.984   5.545  16.135 -0.1775 -0.0993 -0.7715
11642TIP3    H156417   1.002   5.478  16.201 -0.6376 -0.4716 -1.0247
11642TIP3    H256418   0.988   5.498  16.051 -3.9080 -0.5632 -0.7734
11643TIP3   OH256419   6.589   3.092   0.108 -0.3367 -0.2746  0.6552
11643TIP3    H156420   6.527   3.064   0.042  1.4252 -0.3934 -0.9841
11643TIP3    H256421   6.581   3.187   0.110  1.0643 -0.0837 -1.2548
11644TIP3   OH256422   6.338   4.069   3.343 -0.6378  0.0521  0.2979
11644TIP3    H156423   6.353   4.137   3.408  0.5629  1.2023 -1.1346
11644TIP3    H256424   6.283   4.111   3.277 -1.0603 -0.8168  0.0824
11645TIP3   OH256425   5.269   4.154   2.070 -0.3223 -0.0212  0.7297
11645TIP3    H156426   5.323   4.206   2.129  0.1295 -1.5798  1.7156
11645TIP3    H256427   5.323   4.078   2.048 -2.0404 -1.5562  1.6493
11646TIP3   OH256428   4.901   3.251   2.228  0.0839  0.0191  0.3919
11646TIP3    H156429   4.920   3.157   2.223 -0.7351 -0.1663  0.7863
11646TIP3    H256430   4.824   3.257   2.284  0.5369  0.9860  0.9109
11647TIP3   OH256431   0.797   2.395  14.755  0.4618  0.4086  0.3387
11647TIP3    H156432   0.798   2.480  14.711  0.3851 -0.2355 -0.9253
11647TIP3    H256433   0.845   2.337  14.696  1.0225 -0.3038  1.4678
11648TIP3   OH256434   1.857   3.674  13.677 -0.4664  0.3329 -0.3201
11648TIP3    H156435   1.796   3.745  13.697 -0.7130  0.1853 -0.5485
11648TIP3    H256436   1.865   3.674  13.582  0.8266  1.1309 -0.2291
11649TIP3   OH256437   2.157   6.598  13.301 -0.1530 -0.0173  0.3107
11649TIP3    H156438   2.116   6.640  13.377  0.2791 -0.0300  0.5551
11649TIP3    H256439   2.119   6.510  13.299 -0.1092 -0.0435  0.5625
11650TIP3   OH256440   6.067   6.197  14.168  0.6191  0.1340  0.5660
11650TIP3    H156441   6.057   6.288  14.195  1.3084  0.7446 -1.1214
11650TIP3    H256442   5.981   6.173  14.133  0.4334  0.1352  1.0192
11651TIP3   OH256443   6.033   0.055   0.725 -0.3491 -0.4658  0.0638
11651TIP3    H156444   5.980   0.134   0.725 -1.6426 -1.3134  0.4880
11651TIP3    H256445   6.065   0.047   0.815  0.3656 -0.0514 -0.1488
11652TIP3   OH256446   6.635   2.278  16.862  0.1028  0.1115  0.1831
11652TIP3    H156447   6.609   2.188  16.884 -0.0172  0.2321  0.5383
11652TIP3    H256448   6.565   2.309  16.805  2.2273 -1.4648 -3.4836
11653TIP3   OH256449   3.592   0.616   0.249  0.3017 -0.4542  0.5213
11653TIP3    H156450   3.577   0.695   0.301 -0.5425 -0.8490  0.8662
11653TIP3    H256451   3.644   0.647   0.174 -1.1505  0.6802 -0.0412
11654TIP3   OH256452   3.159   4.325  13.304 -0.3846  0.0636  0.9814
11654TIP3    H156453   3.099   4.393  13.272 -0.2848 -0.3131 -0.0444
11654TIP3    H256454   3.235   4.374  13.336 -0.7979  0.4926  1.3006
11655TIP3   OH256455   2.240   2.949   3.357  0.2003 -0.1638 -0.2475
11655TIP3    H156456   2.166   3.005   3.382 -0.2453 -0.2988 -1.2423
11655TIP3    H256457   2.292   3.004   3.298  0.1901 -0.5105 -0.5816
11656TIP3   OH256458   6.771   6.722   4.376 -0.3515 -0.2264 -0.1303
11656TIP3    H156459   6.766   6.745   4.284  0.6130  0.8270  0.0752
11656TIP3    H256460   6.775   6.806   4.422 -0.2329 -0.7523  0.8388
11657TIP3   OH256461   0.352   4.804   5.055  0.2494  0.1296 -0.1691
11657TIP3    H156462   0.410   4.804   4.979  2.0299 -0.3732  1.1564
11657TIP3    H256463   0.352   4.713   5.086 -0.7257  0.2624  0.2445
11658TIP3   OH256464   2.898   2.305  15.334  0.1719 -0.8675  0.0684
11658TIP3    H156465   2.967   2.336  15.276 -1.4190 -1.2600 -2.0669
11658TIP3    H256466   2.919   2.213  15.350  1.1122 -0.5272  0.9120
11659TIP3   OH256467   3.858   5.861   2.797 -0.1821 -0.3977 -0.3397
11659TIP3    H156468   3.856   5.921   2.722 -0.0029 -0.6559 -0.5518
11659TIP3    H256469   3.920   5.793   2.771  1.4720  0.6260  0.8839
11660TIP3   OH256470   6.029   2.828   6.025  0.2444 -0.3480 -0.4524
11660TIP3    H156471   5.976   2.815   5.947  0.6200  0.7882 -0.8962
11660TIP3    H256472   6.113   2.788   6.004  0.3230 -0.1009 -0.6087
11661TIP3   OH256473   6.458   6.814   0.340  0.4570  0.1764  0.3270
11661TIP3    H156474   6.460   6.866   0.259  1.1806 -0.4357 -0.0516
11661TIP3    H256475   6.534   6.757   0.334 -0.5590 -1.2292  0.5489
11662TIP3   OH256476   1.466   6.685  16.729  0.1258 -0.2483 -0.4346
11662TIP3    H156477   1.410   6.747  16.776  1.1413  1.1361 -1.0278
11662TIP3    H256478   1.521   6.646  16.797 -1.2618 -1.3366  0.0980
11663TIP3   OH256479   4.695   3.062   2.821  0.2978 -0.2362 -0.1737
11663TIP3    H156480   4.747   3.118   2.879 -0.8870  1.1969 -0.4612
11663TIP3    H256481   4.707   2.973   2.856  0.3657  0.4785  1.6851
11664TIP3   OH256482   0.604   1.862  11.321  0.1346  0.8067  0.0817
11664TIP3    H156483   0.537   1.799  11.292 -0.9261  2.1402 -0.4015
11664TIP3    H256484   0.637   1.825  11.403 -2.6468  1.1544  1.4087
11665TIP3   OH256485   0.970   3.581   0.458  0.1122 -0.1900  0.4614
11665TIP3    H156486   1.048   3.540   0.422 -0.1087 -0.5451  0.3913
11665TIP3    H256487   0.899   3.556   0.399  0.2248  1.5346 -0.4604
11666TIP3   OH256488   2.520   0.888  12.333  0.1792  0.3244 -0.4071
11666TIP3    H156489   2.549   0.980  12.326  2.0873 -0.3753 -2.3182
11666TIP3    H256490   2.536   0.866  12.425  0.1654  1.7554 -0.0354
11667TIP3   OH256491   2.260   5.960   0.042  0.4580 -1.0453  0.1134
11667TIP3    H156492   2.183   5.908   0.020  0.5732 -0.6033 -1.3885
11667TIP3    H256493   2.269   5.951   0.137 -2.4656  0.2976  0.5808
11668TIP3   OH256494   4.727   6.153   6.050 -0.5457  0.0480  0.0632
11668TIP3    H156495   4.759   6.102   6.125 -1.9552  0.3298  0.8575
11668TIP3    H256496   4.635   6.169   6.069 -1.3336 -1.2476 -2.4853
11669TIP3   OH256497   1.722   1.891  10.865  0.0438 -0.7380  0.0194
11669TIP3    H156498   1.814   1.891  10.837 -0.0968 -0.2682 -0.4622
11669TIP3    H256499   1.716   1.966  10.925  0.4769 -2.0790  1.7975
11670TIP3   OH256500   4.199   2.805   2.907 -0.1487  0.3509 -0.3719
11670TIP3    H156501   4.208   2.900   2.898 -3.1669  0.5731 -1.5558
11670TIP3    H256502   4.219   2.788   2.999  0.7037  2.0629 -0.2140
11671TIP3   OH256503   6.434   5.932  11.617  0.5678  0.1537  0.1277
11671TIP3    H156504   6.391   5.940  11.703  1.5227  0.0059  0.6233
11671TIP3    H256505   6.443   6.022  11.587  1.1226  0.2667  0.6294
11672TIP3   OH256506   1.770   0.148  12.319 -0.1773  0.0322 -0.0596
11672TIP3    H156507   1.836   0.191  12.373 -0.3178 -1.2743  1.1765
11672TIP3    H256508   1.734   0.219  12.264  1.6239  0.9072 -0.1390
11673TIP3   OH256509   3.873   3.997   2.920 -0.2848 -0.1286 -0.1604
11673TIP3    H156510   3.843   4.079   2.882 -2.0687 -0.3047  0.8295
11673TIP3    H256511   3.874   4.012   3.014  0.3065 -0.9381 -0.0260
11674TIP3   OH256512   2.886   2.073  13.751  0.5622 -0.5148 -0.3243
11674TIP3    H156513   2.867   2.156  13.794  2.4045 -0.0827 -0.3062
11674TIP3    H256514   2.801   2.030  13.744 -0.2495  0.8722  0.6892
11675TIP3   OH256515   0.168   5.819  11.793 -0.0694 -1.1518 -0.1450
11675TIP3    H156516   0.167   5.886  11.725 -1.8552 -3.0116 -2.0318
11675TIP3    H256517   0.214   5.860  11.866 -1.4295  2.2791 -1.0876
11676TIP3   OH256518   6.785   6.748  12.859  0.4751  0.3549 -0.0643
11676TIP3    H156519   6.785   6.837  12.823 -0.7518 -0.2378 -1.5805
11676TIP3    H256520   6.722   6.701  12.805  0.3947 -1.1933  1.3620
11677TIP3   OH256521   6.606   4.033  14.341 -0.0817 -0.5718  0.0148
11677TIP3    H156522   6.585   4.091  14.414 -0.1225 -1.3130  0.6089
11677TIP3    H256523   6.536   3.968  14.343 -0.2061 -0.4593 -0.8328
11678TIP3   OH256524   2.279   0.071   4.475 -1.0275  0.1562  0.0915
11678TIP3    H156525   2.346   0.029   4.529 -2.9608 -3.6917 -0.3849
11678TIP3    H256526   2.323   0.148   4.440  1.6473  0.3558  3.5632
11679TIP3   OH256527   3.760   2.169  13.033 -0.5081 -0.2014  0.5183
11679TIP3    H156528   3.720   2.152  12.948  0.0123 -0.4142  0.3083
11679TIP3    H256529   3.732   2.096  13.088 -2.0286  0.7076  0.9491
11680TIP3   OH256530   4.419   3.521   4.418  0.3024  0.4603 -0.3748
11680TIP3    H156531   4.355   3.552   4.354  0.5844 -2.0170 -1.9469
11680TIP3    H256532   4.504   3.537   4.377  0.5317 -0.0985 -0.1223
11681TIP3   OH256533   2.343   2.638   5.802  0.1804 -0.1169  0.5452
11681TIP3    H156534   2.419   2.667   5.852  0.8286  1.2758 -1.1924
11681TIP3    H256535   2.379   2.583   5.732 -0.4471  0.2540 -0.0739
11682TIP3   OH256536   5.507   1.620   0.527 -0.1911 -0.1761 -0.4439
11682TIP3    H156537   5.477   1.529   0.526  0.9840 -0.6224  1.3367
11682TIP3    H256538   5.528   1.637   0.619 -0.1667  1.8226 -0.8012
11683TIP3   OH256539   5.586   5.911   4.493 -0.0674 -0.4854 -0.1993
11683TIP3    H156540   5.579   6.003   4.520 -0.8722 -0.0766 -1.7806
11683TIP3    H256541   5.671   5.883   4.525  0.7550  1.2069 -0.8743
11684TIP3   OH256542   6.147   5.514  13.050  0.1781  0.2106 -0.1701
11684TIP3    H156543   6.185   5.517  12.962 -0.8474  1.5393 -0.5961
11684TIP3    H256544   6.218   5.484  13.107  1.0955  0.1718 -1.3226
11685TIP3   OH256545   4.933   5.751  15.192  0.4734  0.1124 -0.4395
11685TIP3    H156546   4.899   5.810  15.125  0.9847 -0.1137 -0.8970
11685TIP3    H256547   4.973   5.679  15.144 -1.4221 -1.3529  0.1222
11686TIP3   OH256548   5.033   3.271   1.061 -0.0164 -0.1008  0.9368
11686TIP3    H156549   5.119   3.245   1.096 -0.6483 -0.3562  2.3332
11686TIP3    H256550   5.052   3.303   0.973  1.3299 -1.4700  0.7051
11687TIP3   OH256551   3.157   0.817   2.394 -0.3808  0.1830 -0.0416
11687TIP3    H156552   3.187   0.845   2.480  0.8817  1.9577 -1.0245
11687TIP3    H256553   3.183   0.725   2.388  0.0490  0.2106  1.2409
11688TIP3   OH256554   3.934   3.635   2.644  0.4471 -0.9112 -0.0612
11688TIP3    H156555   4.005   3.690   2.676  0.3575 -1.3095  0.8161
11688TIP3    H256556   3.860   3.695   2.634  0.6609 -0.6612 -0.1642
11689TIP3   OH256557   0.580   5.246   1.487  0.1429 -0.1991  0.2511
11689TIP3    H156558   0.617   5.288   1.410  1.5221  0.4928  1.2696
11689TIP3    H256559   0.601   5.305   1.559  0.3167 -1.6427  1.4059
11690TIP3   OH256560   1.735   5.249  12.752 -0.1305  0.1186  0.0572
11690TIP3    H156561   1.813   5.212  12.710 -0.7951 -1.5542  0.2603
11690TIP3    H256562   1.671   5.256  12.682 -0.2566  0.1879  0.1793
11691TIP3   OH256563   1.565   2.692   2.053  0.5278 -0.0858 -0.3970
11691TIP3    H156564   1.579   2.743   1.974 -1.1824 -0.7646 -1.1674
11691TIP3    H256565   1.517   2.750   2.112 -0.0657 -0.2836 -0.6823
11692TIP3   OH256566   3.328   6.450   3.640  0.5591  0.3333  0.4462
11692TIP3    H156567   3.319   6.371   3.586  0.1358  1.0000 -0.4719
11692TIP3    H256568   3.331   6.522   3.577 -0.4081  1.1681  1.3361
11693TIP3   OH256569   5.166   4.828  15.405  0.4704 -0.6224  0.0657
11693TIP3    H156570   5.095   4.808  15.466  0.7410 -0.7348  0.3446
11693TIP3    H256571   5.231   4.874  15.458 -0.1930  1.1106 -0.5919
11694TIP3   OH256572   2.523   5.607   3.041  0.4908  0.1918 -0.3798
11694TIP3    H156573   2.521   5.681   3.102 -1.3668  0.4759 -0.7477
11694TIP3    H256574   2.467   5.541   3.081 -0.3848  0.2044 -1.5514
11695TIP3   OH256575   2.831   3.080  15.386 -0.5083 -0.0895  0.2613
11695TIP3    H156576   2.773   3.033  15.327  2.3054 -1.2022 -1.6819
11695TIP3    H256577   2.825   3.171  15.358  0.0163 -0.4614 -1.1059
11696TIP3   OH256578   3.406   0.971   4.691  0.0512 -0.7281  0.0268
11696TIP3    H156579   3.470   0.965   4.762  0.4325 -1.3768 -0.3690
11696TIP3    H256580   3.323   0.988   4.736  0.3423 -0.8158  0.6073
11697TIP3   OH256581   2.557   0.367   6.398 -0.1138  0.1679 -0.3042
11697TIP3    H156582   2.488   0.305   6.372 -1.0162  0.5612  1.0681
11697TIP3    H256583   2.617   0.315   6.451 -0.7276  0.3658  0.6188
11698TIP3   OH256584   2.954   6.634  16.628  0.0735  0.0108  0.3626
11698TIP3    H156585   2.976   6.541  16.627 -0.2126 -0.1424 -4.1315
11698TIP3    H256586   2.866   6.638  16.664  0.0869 -1.4945  0.5779
11699TIP3   OH256587   6.299   6.401  16.807  0.0343 -0.4707 -0.2818
11699TIP3    H156588   6.241   6.326  16.821 -0.2546 -0.3640 -0.8977
11699TIP3    H256589   6.253   6.456  16.743 -0.8956  1.4401  1.9150
11700TIP3   OH256590   0.050   5.103   5.610  0.2564 -0.2518 -0.0296
11700TIP3    H156591   0.070   5.148   5.528 -0.0821  1.8933  1.0260
11700TIP3    H256592   0.117   5.035   5.618  1.2422  0.5680 -1.2740
11701TIP3   OH256593   6.739   2.813   1.319 -0.4610  0.0605  0.0271
11701TIP3    H156594   6.724   2.823   1.413 -0.5395  1.1382 -0.0926
11701TIP3    H256595   6.680   2.742   1.292 -2.5387  1.6461  0.2709
11702TIP3   OH256596   1.270   5.329  14.626 -0.0201  0.2281 -0.0136
11702TIP3    H156597   1.361   5.312  14.650 -0.5230 -0.3552  1.5517
11702TIP3    H256598   1.256   5.421  14.646  0.3840  0.4630 -0.7990
11703TIP3   OH256599   3.089   0.983  16.416 -0.2358  0.8411 -0.1946
11703TIP3    H156600   3.074   0.889  16.407 -1.1856  1.1417 -1.8642
11703TIP3    H256601   3.049   1.022  16.338  0.9713  2.5468  0.0026
11704TIP3   OH256602   4.375   0.638  15.606 -0.1387  0.2658 -0.0994
11704TIP3    H156603   4.316   0.710  15.584  0.7552  0.7962 -0.7856
11704TIP3    H256604   4.460   0.680  15.620  0.0978 -0.4980  0.8098
11705TIP3   OH256605   5.715   5.924   3.031  0.5585  0.2516 -0.1404
11705TIP3    H156606   5.742   5.997   2.974 -0.7471  1.1606  0.3975
11705TIP3    H256607   5.704   5.963   3.117  1.5228 -0.9281  0.5345
11706TIP3   OH256608   2.398   6.358   1.085 -0.3263  0.0764  0.8257
11706TIP3    H156609   2.366   6.284   1.136  0.3316  0.2446  1.5035
11706TIP3    H256610   2.351   6.434   1.120 -1.5052 -0.1036 -0.3325
11707TIP3   OH256611   0.676   3.688  13.833  0.4111  0.0014 -0.0675
11707TIP3    H156612   0.679   3.640  13.751  0.7267 -1.6381  0.8848
11707TIP3    H256613   0.766   3.685  13.866  0.2995  0.6808  0.3199
11708TIP3   OH256614   0.779   1.976  15.514  0.3575 -0.6262 -0.5181
11708TIP3    H156615   0.706   2.033  15.491 -0.7760 -2.2590 -1.0664
11708TIP3    H256616   0.827   1.965  15.432  1.0694  0.1964 -0.2265
11709TIP3   OH256617   0.727   3.644  13.086 -0.0102  0.0391 -0.1440
11709TIP3    H156618   0.785   3.578  13.049  0.8300  0.4965  0.3458
11709TIP3    H256619   0.639   3.615  13.062  0.3809 -1.0122 -0.3254
11710TIP3   OH256620   5.330   4.618   3.974  0.2375 -0.1093  0.3716
11710TIP3    H156621   5.238   4.612   3.949 -0.3726  2.0937  2.0100
11710TIP3    H256622   5.339   4.704   4.014  3.2985  0.1947 -0.8676
11711TIP3   OH256623   0.282   4.579   2.935  0.0694 -0.1564 -0.0463
11711TIP3    H156624   0.325   4.603   3.017  2.0839 -0.0117 -1.1050
11711TIP3    H256625   0.220   4.650   2.919  1.9034  1.4595 -0.2324
11712TIP3   OH256626   2.573   1.873  15.987  0.3714 -0.0833 -0.1894
11712TIP3    H156627   2.666   1.866  16.006  0.3652  1.2942  0.4059
11712TIP3    H256628   2.565   1.952  15.932 -0.6607  0.9406  1.3933
11713TIP3   OH256629   4.410   4.572   5.268 -0.4922 -0.0018  0.5846
11713TIP3    H156630   4.411   4.486   5.309  3.1782 -0.3725 -0.0838
11713TIP3    H256631   4.462   4.627   5.326  0.8871  0.6235 -1.2124
11714TIP3   OH256632   5.266   2.964   6.852  0.0794 -0.0211  0.2162
11714TIP3    H156633   5.260   2.869   6.848 -2.3533  0.0769  0.5610
11714TIP3    H256634   5.208   2.994   6.782  1.5461  1.2065 -0.4945
11715TIP3   OH256635   0.951   1.107  15.206  0.8720  0.1270  0.3253
11715TIP3    H156636   1.012   1.065  15.145  0.3711  1.9157 -1.4308
11715TIP3    H256637   0.995   1.187  15.233  0.5037  0.0129  1.2834
11716TIP3   OH256638   5.372   2.989   4.205  0.4320  0.7668 -0.4592
11716TIP3    H156639   5.319   2.922   4.249  1.8041  0.2794  0.4813
11716TIP3    H256640   5.398   3.049   4.275  1.8176  0.5358 -0.7655
11717TIP3   OH256641   6.373   3.100  15.759  0.1148  0.5332 -0.3725
11717TIP3    H156642   6.394   3.084  15.667  1.8671 -1.2109  0.2851
11717TIP3    H256643   6.283   3.070  15.769  0.0141  0.4523 -1.4585
11718TIP3   OH256644   5.993   4.104   5.017 -0.1934  0.0488 -0.1850
11718TIP3    H156645   5.959   4.083   5.104 -0.5524 -1.6588 -0.7270
11718TIP3    H256646   6.086   4.079   5.021 -0.2237 -0.0851 -0.3032
11719TIP3   OH256647   5.222   2.149   1.967  0.5484 -0.5348  0.3185
11719TIP3    H156648   5.192   2.060   1.948 -0.9545  0.2989 -1.3405
11719TIP3    H256649   5.151   2.205   1.936  2.2574  1.3324 -0.3111
11720TIP3   OH256650   4.022   2.409   1.073 -0.0693  0.1687 -0.2520
11720TIP3    H156651   4.040   2.503   1.077 -0.5259  0.3027 -1.3480
11720TIP3    H256652   3.965   2.392   1.147  0.5570  0.6359  0.3421
11721TIP3   OH256653   3.714   0.033   0.643 -0.4291 -0.2198  0.4918
11721TIP3    H156654   3.685   0.105   0.588  0.6362  0.2406  0.5202
11721TIP3    H256655   3.701  -0.045   0.590 -0.0685  0.1556 -0.1468
11722TIP3   OH256656   4.176   0.887  13.515  0.2959  0.2723 -0.1097
11722TIP3    H156657   4.258   0.849  13.547 -0.1098 -0.0578  0.5355
11722TIP3    H256658   4.176   0.868  13.421  1.1863  0.6941 -0.2028
11723TIP3   OH256659   4.208   6.711   2.763 -0.1903 -0.5116  0.0754
11723TIP3    H156660   4.222   6.789   2.816  2.4684 -1.4316  0.8495
11723TIP3    H256661   4.132   6.668   2.803 -1.0077  1.1101  0.3050
11724TIP3   OH256662   2.688   4.081   4.264  0.1651  0.1250 -0.3177
11724TIP3    H156663   2.754   4.053   4.200  1.4037  0.9849  0.5526
11724TIP3    H256664   2.604   4.064   4.221  0.9344 -1.4543 -1.2539
11725TIP3   OH256665   2.460   3.541   0.717 -0.5625  0.2040  0.5811
11725TIP3    H156666   2.546   3.581   0.706 -0.7115  0.9157  1.8718
11725TIP3    H256667   2.464   3.461   0.664 -0.1070  1.6666 -1.6548
11726TIP3   OH256668   2.347   5.640  11.360 -0.1375 -0.4098  0.0119
11726TIP3    H156669   2.258   5.605  11.359  0.6717 -2.4876 -1.2565
11726TIP3    H256670   2.336   5.732  11.335 -1.8567 -0.8222 -0.8479
11727TIP3   OH256671   2.501   2.335   5.743  0.3621  0.4242 -0.5018
11727TIP3    H156672   2.527   2.263   5.802 -1.0331 -2.3399 -3.1165
11727TIP3    H256673   2.581   2.357   5.696  0.4180 -0.6476 -0.9214
11728TIP3   OH256674   5.748   5.244   5.567  0.0669 -0.1171  0.6242
11728TIP3    H156675   5.732   5.181   5.637 -0.6560 -0.0564  0.5224
11728TIP3    H256676   5.812   5.202   5.510  0.6743 -0.1578  1.3362
11729TIP3   OH256677   4.461   5.646   1.750 -0.3531 -0.5456  0.1028
11729TIP3    H156678   4.523   5.718   1.763 -0.6256  0.2010 -2.3469
11729TIP3    H256679   4.515   5.571   1.729 -0.1051 -0.8865  1.8995
11730TIP3   OH256680   0.372   2.872   3.055 -0.2435 -0.1848  0.1449
11730TIP3    H156681   0.280   2.887   3.074 -0.3258 -0.5612  0.0556
11730TIP3    H256682   0.378   2.777   3.040 -0.0500 -0.0059 -0.9413
11731TIP3   OH256683   0.231   2.867   5.610  0.1305  0.4448 -1.3053
11731TIP3    H156684   0.249   2.776   5.632  0.5675  0.6574 -0.7670
11731TIP3    H256685   0.141   2.881   5.638  0.5126  0.5680 -0.0936
11732TIP3   OH256686   1.806   0.272  16.380  0.7372 -0.6494  0.4604
11732TIP3    H156687   1.897   0.301  16.384  1.2223 -1.8099 -1.3323
11732TIP3    H256688   1.806   0.186  16.421  0.5372 -0.8615  0.0165
11733TIP3   OH256689   0.034   1.969  12.044  0.2289 -0.0665 -0.7049
11733TIP3    H156690   0.037   2.050  11.992  1.0992  1.6683  1.9807
11733TIP3    H256691   0.105   1.978  12.107 -0.4387 -2.4181  0.4266
11734TIP3   OH256692   6.585   2.226   3.113  0.4090  0.1221 -0.5623
11734TIP3    H156693   6.601   2.182   3.197  0.1812  2.5772  0.8203
11734TIP3    H256694   6.618   2.165   3.047  0.7718 -1.7687  1.3221
11735TIP3   OH256695   5.263   0.656   3.130 -0.0352  0.3151  0.9318
11735TIP3    H156696   5.326   0.587   3.108  1.8062  1.7139  1.6490
11735TIP3    H256697   5.183   0.609   3.154  1.3585 -1.5959  1.9733
11736TIP3   OH256698   1.897   4.812   2.365  0.0930 -0.3420  0.0014
11736TIP3    H156699   1.925   4.755   2.437  0.3627 -0.6723 -0.3667
11736TIP3    H256700   1.963   4.881   2.363  0.7595 -0.9947 -0.7158
11737TIP3   OH256701   1.209   6.079   2.515 -0.5992 -0.2755  0.5144
11737TIP3    H156702   1.235   6.169   2.534 -2.6017  0.3427  0.5093
11737TIP3    H256703   1.248   6.059   2.430  0.0723  0.5038  0.6382
11738TIP3   OH256704   4.792   1.850  13.698  0.6499 -0.2177  0.1364
11738TIP3    H156705   4.724   1.908  13.665 -2.6492 -2.2669  2.9144
11738TIP3    H256706   4.852   1.907  13.746  1.4308  1.7325 -3.0506
11739TIP3   OH256707   6.087   3.867  16.894  0.6391  0.1113  0.1646
11739TIP3    H156708   5.992   3.854  16.891  0.8702 -1.3741 -0.8657
11739TIP3    H256709   6.105   3.927  16.821  0.5594 -0.0267  0.0328
11740TIP3   OH256710   6.023   4.325  16.234 -0.3557 -0.5793  0.0221
11740TIP3    H156711   5.986   4.282  16.157 -3.8453  0.2256  1.1440
11740TIP3    H256712   5.947   4.348  16.287  1.6800  2.8931  1.6073
11741TIP3   OH256713   0.380   4.779   2.228  0.2916 -0.0105 -0.7645
11741TIP3    H156714   0.430   4.697   2.237 -0.1254 -0.1618  0.2060
11741TIP3    H256715   0.290   4.754   2.244  0.0093  0.4446 -1.5951
11742TIP3   OH256716   5.544   0.177  12.563 -0.2020  0.2143 -0.2876
11742TIP3    H156717   5.581   0.231  12.494  4.9848 -0.5197  1.6640
11742TIP3    H256718   5.534   0.236  12.637 -2.7607  0.3098 -0.6627
11743TIP3   OH256719   1.233   5.603  14.634 -0.5658  0.0634 -0.4634
11743TIP3    H156720   1.167   5.583  14.568 -1.1521  1.2999 -0.2765
11743TIP3    H256721   1.201   5.683  14.676  2.0680  1.8676 -1.7389
11744TIP3   OH256722   4.802   2.562   4.174 -0.3048  0.0253 -0.6035
11744TIP3    H156723   4.790   2.569   4.080 -1.0135  1.1059 -0.4336
11744TIP3    H256724   4.721   2.524   4.207 -1.2724  2.4115 -0.0974
11745TIP3   OH256725   4.912   1.629  16.947  0.3661 -0.1477  0.7870
11745TIP3    H156726   4.958   1.545  16.941  1.7917  0.7095 -0.5364
11745TIP3    H256727   4.887   1.635  17.040  1.7987 -1.2229  1.2733
11746TIP3   OH256728   1.110   4.728   0.858 -0.0735 -0.7058 -0.1376
11746TIP3    H156729   1.088   4.659   0.920  0.3010  0.7395  1.6520
11746TIP3    H256730   1.153   4.795   0.911 -0.8233  1.1001 -1.7440
11747TIP3   OH256731   3.633   3.149   5.286  0.4189 -0.0768  0.5231
11747TIP3    H156732   3.611   3.138   5.378  0.0288  2.1436  0.7057
11747TIP3    H256733   3.728   3.133   5.282  0.2123 -1.5098  1.0686
11748TIP3   OH256734   6.770   5.953   0.313  0.4051  0.5305 -0.4349
11748TIP3    H156735   6.805   5.977   0.398  0.7626 -0.8173 -0.1891
11748TIP3    H256736   6.710   5.880   0.331  1.5172 -0.6767 -1.4815
11749TIP3   OH256737   3.974   6.297  10.929  0.2022 -0.1127  0.0039
11749TIP3    H156738   3.926   6.248  10.995  0.3181 -1.6495 -1.0458
11749TIP3    H256739   3.937   6.269  10.846  1.8228 -0.1088 -0.7325
11750TIP3   OH256740   3.062   0.499   3.732 -0.0254  0.1631 -0.0176
11750TIP3    H156741   3.084   0.576   3.680  0.7894 -0.5119 -0.7067
11750TIP3    H256742   3.147   0.456   3.746 -0.4322 -0.4291  0.6272
11751TIP3   OH256743   1.176   4.803  14.872  0.2538  0.1680 -0.0448
11751TIP3    H156744   1.187   4.712  14.901 -0.0759  0.0651 -0.2289
11751TIP3    H256745   1.082   4.820  14.883  0.7755  1.4399  2.6981
11752TIP3   OH256746   3.952   6.097  16.031  0.1873 -0.0416 -0.3879
11752TIP3    H156747   3.945   6.183  16.071  0.0988 -0.2923  0.1379
11752TIP3    H256748   4.044   6.074  16.037  0.4024  0.4942 -1.5368
11753TIP3   OH256749   0.069   2.843   3.058  0.1764  0.6585 -0.0402
11753TIP3    H156750   0.098   2.881   3.140 -0.8290 -0.6525  0.9343
11753TIP3    H256751  -0.025   2.860   3.055  0.2695  1.0565 -1.1141
11754TIP3   OH256752   3.328   2.248  13.081  0.0358 -0.9104 -0.7246
11754TIP3    H156753   3.404   2.256  13.023  0.3455 -1.6398 -0.4204
11754TIP3    H256754   3.253   2.263  13.024  0.3817 -0.6430 -1.1153
11755TIP3   OH256755   4.299   6.029   5.188  0.2540 -0.2892  0.3592
11755TIP3    H156756   4.275   6.094   5.122  1.8716  0.2080  0.2254
11755TIP3    H256757   4.218   5.981   5.206 -0.5127  0.4764 -0.9800
11756TIP3   OH256758   6.656   6.419   5.539 -0.3531 -0.2317 -0.3594
11756TIP3    H156759   6.706   6.461   5.469  1.1187 -2.7355 -0.8909
11756TIP3    H256760   6.714   6.421   5.615 -1.2674  0.9330  0.3212
11757TIP3   OH256761   0.698   2.878  13.551  0.2934  0.3104 -0.4821
11757TIP3    H156762   0.676   2.877  13.458  0.6834  0.1427 -0.5707
11757TIP3    H256763   0.782   2.834  13.557  0.5779  0.8850 -0.1283
11758TIP3   OH256764   0.948   4.165  16.414  0.6183  1.0116  0.1145
11758TIP3    H156765   0.873   4.129  16.368  0.7599  1.0919 -0.1797
11758TIP3    H256766   0.911   4.226  16.478  0.5668  3.7293 -2.3821
11759TIP3   OH256767   2.494   5.787   5.331 -0.1685  0.4188  0.1609
11759TIP3    H156768   2.566   5.739   5.290  0.6595  0.8407  1.1015
11759TIP3    H256769   2.531   5.872   5.355 -1.4519  1.3020 -0.9027
11760TIP3   OH256770   5.961   6.475   4.014 -0.1004 -0.0343  0.1174
11760TIP3    H156771   6.026   6.545   4.022  0.3288 -0.5650  1.4237
11760TIP3    H256772   5.974   6.439   3.926  0.5182  0.6973 -0.0920
11761TIP3   OH256773   5.731   5.943  13.115  0.1252 -0.5239  0.1129
11761TIP3    H156774   5.801   5.882  13.138  1.3244  0.4973 -0.7996
11761TIP3    H256775   5.766   6.030  13.135 -0.8756 -0.0007 -0.3511
11762TIP3   OH256776   6.243   0.286  12.981  0.3184 -0.0964 -0.2177
11762TIP3    H156777   6.257   0.195  13.008  1.3014  0.3505  0.8181
11762TIP3    H256778   6.323   0.309  12.933  0.5024  0.5275  0.3838
11763TIP3   OH256779   3.700   2.522  15.452 -0.5164  0.0966  0.2362
11763TIP3    H156780   3.662   2.437  15.471  0.4117 -0.2128  0.7481
11763TIP3    H256781   3.694   2.531  15.357 -3.8641  1.0134  0.4646
11764TIP3   OH256782   6.579   3.796   2.640  0.0749 -0.1621 -0.2471
11764TIP3    H156783   6.592   3.854   2.715 -2.1418 -0.9769  0.8242
11764TIP3    H256784   6.659   3.804   2.589  1.4781  0.7151  2.0085
11765TIP3   OH256785   5.137   2.324   5.186  0.0458 -0.6579 -0.0027
11765TIP3    H156786   5.180   2.341   5.270 -0.0982  0.2919 -0.1181
11765TIP3    H256787   5.043   2.326   5.206  0.0005  0.0235 -0.2641
11766TIP3   OH256788   0.278   1.854  11.095  0.6874  0.0097 -0.0017
11766TIP3    H156789   0.251   1.766  11.069 -0.6484  0.3431  0.2160
11766TIP3    H256790   0.273   1.905  11.014 -0.7904  0.4069  0.3198
11767TIP3   OH256791   4.073   2.506  12.450  0.4033  0.2204 -0.2786
11767TIP3    H156792   4.165   2.485  12.470  0.6856  1.1204 -0.5929
11767TIP3    H256793   4.041   2.430  12.402  0.9004 -0.2237  0.0794
11768TIP3   OH256794   4.269   4.915   2.573  0.0771 -0.0353  0.1877
11768TIP3    H156795   4.196   4.894   2.631  1.0447 -0.4617  1.2556
11768TIP3    H256796   4.308   4.831   2.552  0.2072  0.1875 -0.4714
11769TIP3   OH256797   1.699   0.909  12.648 -0.4570  0.2403  0.0020
11769TIP3    H156798   1.751   0.968  12.594 -0.1702  0.9169  1.0068
11769TIP3    H256799   1.650   0.967  12.707  1.5916 -0.5974  2.6069
11770TIP3   OH256800   0.105   0.859  13.012 -0.1474 -0.1885  0.3377
11770TIP3    H156801   0.079   0.949  12.990 -0.3206 -0.0094  1.2608
11770TIP3    H256802   0.072   0.845  13.100  2.0469 -0.2809  1.1885
11771TIP3   OH256803   5.771   4.122  17.095  0.0448  0.0934  0.4594
11771TIP3    H156804   5.792   4.148  17.184  2.0985  0.7925 -0.2005
11771TIP3    H256805   5.710   4.190  17.064  0.8954  0.9642  0.6699
11772TIP3   OH256806   1.935   3.875  17.034 -0.2010 -0.7112  0.4500
11772TIP3    H156807   1.963   3.959  16.998  0.7316 -0.6304  1.3404
11772TIP3    H256808   1.993   3.811  16.992  0.5545 -0.6695  1.4095
11773TIP3   OH256809   5.543   4.643   1.065 -0.0127 -0.1874 -0.5456
11773TIP3    H156810   5.542   4.555   1.027 -0.1217 -0.5466  0.2631
11773TIP3    H256811   5.453   4.675   1.052 -0.7996 -1.3357  1.6862
11774TIP3   OH256812   6.495   6.756   1.088 -0.3279 -0.2718  0.1320
11774TIP3    H156813   6.443   6.750   1.008  0.3064 -0.1436 -0.2992
11774TIP3    H256814   6.585   6.740   1.059  0.1886  1.7838  0.4583
11775TIP3   OH256815   6.081   6.505  15.812 -0.0673  0.5516 -0.7508
11775TIP3    H156816   6.144   6.567  15.776  1.4528 -0.7196 -0.3572
11775TIP3    H256817   6.027   6.479  15.738 -1.0114  2.6604 -0.8311
11776TIP3   OH256818   4.181   6.166  12.813  0.1738 -0.2682 -0.1169
11776TIP3    H156819   4.155   6.201  12.898  0.9427 -2.6922  1.1511
11776TIP3    H256820   4.231   6.237  12.772 -0.3123  0.9616  1.3718
11777TIP3   OH256821   2.265   4.525   1.096 -1.0511 -0.2253  0.2747
11777TIP3    H156822   2.348   4.514   1.050 -1.1344 -2.2948  0.5613
11777TIP3    H256823   2.203   4.547   1.026 -0.0973  2.3488  0.1989
11778TIP3   OH256824   4.209   3.831  14.212  0.3120 -0.4538  1.1038
11778TIP3    H156825   4.302   3.818  14.192 -0.2665 -0.1899 -2.0603
11778TIP3    H256826   4.202   3.925  14.232  0.4395 -0.0759 -0.5500
11779TIP3   OH256827   5.239   1.225  11.310 -0.8205 -0.0062 -0.0699
11779TIP3    H156828   5.240   1.229  11.215 -0.3492  2.2097  0.0055
11779TIP3    H256829   5.227   1.132  11.330  1.9467 -0.9013 -2.2418
11780TIP3   OH256830   1.725   5.473  17.062  0.2546  0.0533 -0.2778
11780TIP3    H156831   1.685   5.396  17.104 -2.0368  0.8751 -0.8956
11780TIP3    H256832   1.781   5.437  16.994 -0.6630 -1.0938 -0.4403
11781TIP3   OH256833   1.652   2.723  16.027  0.3276  0.8502 -0.2783
11781TIP3    H156834   1.566   2.726  16.067 -0.3850 -2.2432 -1.4383
11781TIP3    H256835   1.638   2.755  15.938  0.1704 -0.5809 -0.7732
11782TIP3   OH256836   6.332   3.907  14.788 -0.2897 -0.0188 -0.2305
11782TIP3    H156837   6.406   3.846  14.793 -1.3382 -1.2385  0.6045
11782TIP3    H256838   6.374   3.994  14.787  1.2185 -0.7350 -1.7681
11783TIP3   OH256839   6.713   1.879  14.709  0.1084  0.1254  0.0089
11783TIP3    H156840   6.755   1.958  14.740 -0.4064  0.9990 -1.4832
11783TIP3    H256841   6.620   1.902  14.704  0.0642 -0.2897 -1.2442
11784TIP3   OH256842   1.323   3.244   3.706 -0.1390  0.5923 -0.5710
11784TIP3    H156843   1.298   3.245   3.614 -1.0648 -0.7498 -0.3389
11784TIP3    H256844   1.266   3.180   3.747  1.4010 -0.0632  0.6267
11785TIP3   OH256845   5.620   1.370  12.720 -0.7978 -0.6710  0.0691
11785TIP3    H156846   5.639   1.423  12.642  0.9209 -1.7609 -0.3068
11785TIP3    H256847   5.595   1.284  12.685 -1.0556 -0.8575  0.7013
11786TIP3   OH256848   1.097   6.029  12.985  0.3293  0.2005 -0.0255
11786TIP3    H156849   1.087   6.092  12.914 -1.8464 -0.2669 -0.1586
11786TIP3    H256850   1.019   6.041  13.040 -0.2317 -2.4967 -0.1645
11787TIP3   OH256851   0.389   4.863  12.132  0.0632  0.0653 -0.1601
11787TIP3    H156852   0.443   4.805  12.186  0.5246  0.2153 -0.4606
11787TIP3    H256853   0.333   4.803  12.082 -0.4323 -0.0693  0.5558
11788TIP3   OH256854   0.615   5.001  15.061 -0.6001  0.1630  0.8815
11788TIP3    H156855   0.693   5.043  15.027  0.6525 -1.2605  1.9264
11788TIP3    H256856   0.543   5.036  15.008  0.8109  1.0192 -0.4913
11789TIP3   OH256857   1.070   1.153   3.657  0.0269  0.3650  0.4719
11789TIP3    H156858   0.976   1.169   3.648  0.3701  2.2738  0.0685
11789TIP3    H256859   1.109   1.241   3.660  1.9016 -0.4107 -0.4620
11790TIP3   OH256860   2.512   4.997   4.810  0.0317  0.2300  0.6385
11790TIP3    H156861   2.569   4.920   4.820  0.6786  0.7195  0.7769
11790TIP3    H256862   2.558   5.066   4.858 -0.8002  0.5721  0.9386
11791TIP3   OH256863   6.679   3.371  11.366  1.0039 -0.1257 -0.2215
11791TIP3    H156864   6.673   3.466  11.350  1.6862 -0.0966 -0.2916
11791TIP3    H256865   6.589   3.346  11.389  0.4442  0.2404 -1.8840
11792TIP3   OH256866   2.303   5.763   2.456 -0.0670 -0.6720 -0.4276
11792TIP3    H156867   2.372   5.823   2.429 -0.5568  0.7042  1.2964
11792TIP3    H256868   2.283   5.787   2.547 -0.1840 -3.5185  0.3663
11793TIP3   OH256869   2.762   6.415   2.565  0.5907  0.3646 -0.0994
11793TIP3    H156870   2.669   6.398   2.548  0.4902  0.6285  0.1817
11793TIP3    H256871   2.797   6.441   2.480 -0.0355  2.2503  0.1979
11794TIP3   OH256872   4.074   1.731  12.973 -0.3171  0.1389 -0.0090
11794TIP3    H156873   4.018   1.655  12.962  1.0951 -0.9168 -0.0391
11794TIP3    H256874   4.157   1.695  13.006 -0.3375  1.8680  2.0608
11795TIP3   OH256875   2.753   0.810  11.211  0.6587 -0.4097  0.0721
11795TIP3    H156876   2.759   0.767  11.126  1.6335 -1.0894  0.4797
11795TIP3    H256877   2.785   0.899  11.196 -0.1494 -0.2073 -0.4881
11796TIP3   OH256878   2.504   0.687  16.108 -0.2410  0.2432  0.5055
11796TIP3    H156879   2.567   0.627  16.147  1.0952  0.6841 -0.8964
11796TIP3    H256880   2.421   0.640  16.109  0.8062 -1.6942 -0.6612
11797TIP3   OH256881   5.174   2.210   4.718  0.3199 -0.2474  0.3900
11797TIP3    H156882   5.245   2.184   4.777  0.8863  2.6803  1.0767
11797TIP3    H256883   5.145   2.295   4.750 -0.0641  0.9593 -2.8790
11798TIP3   OH256884   0.725   1.542   2.970  0.2404  0.4898  0.9456
11798TIP3    H156885   0.663   1.586   3.028  1.3635  0.9545  1.8094
11798TIP3    H256886   0.681   1.541   2.885 -1.3160  0.0302  1.7386
11799TIP3   OH256887   6.740   0.319  16.863 -0.5598  0.0287  0.4611
11799TIP3    H156888   6.672   0.293  16.926  0.2616  1.4033  1.9671
11799TIP3    H256889   6.697   0.386  16.809 -0.7049  0.1944  0.7789
11800TIP3   OH256890   1.608   2.340  14.726  0.0934  0.1233 -0.0900
11800TIP3    H156891   1.609   2.365  14.633 -0.9545 -1.1075 -0.4344
11800TIP3    H256892   1.697   2.309  14.743  0.1848 -0.0055 -0.7766
11801TIP3   OH256893   6.755   0.525   2.206  0.1529 -0.2387 -0.2692
11801TIP3    H156894   6.708   0.532   2.123  0.2146 -1.0232 -0.3692
11801TIP3    H256895   6.775   0.432   2.216 -1.2633 -0.3914  1.4176
11802TIP3   OH256896   1.024   3.589  12.487 -0.2239 -0.2828 -0.6141
11802TIP3    H156897   1.105   3.604  12.537 -0.1587  1.5685 -1.2519
11802TIP3    H256898   0.978   3.521  12.537  1.1361 -0.4679  0.4390
11803TIP3   OH256899   5.034   4.391  11.331  0.0853 -0.5313 -0.0951
11803TIP3    H156900   5.130   4.394  11.325 -0.0379  1.9887 -1.4759
11803TIP3    H256901   5.007   4.337  11.257  0.3809 -0.3100 -0.3666
11804TIP3   OH256902   4.388   5.028   5.755  0.1568 -0.0352  0.3586
11804TIP3    H156903   4.305   4.985   5.776 -0.0624  0.3254  0.2411
11804TIP3    H256904   4.435   5.032   5.838 -0.0313 -0.0529  0.4670
11805TIP3   OH256905   6.011   5.566   4.948 -0.0343  0.1702  0.0305
11805TIP3    H156906   5.995   5.661   4.941 -2.1866 -0.1498  0.1913
11805TIP3    H256907   6.047   5.542   4.863 -2.1680  0.6795 -1.0588
11806TIP3   OH256908   3.707   5.195  12.517  0.3061  0.4219  0.0651
11806TIP3    H156909   3.664   5.151  12.590 -0.3403  0.4366 -0.3057
11806TIP3    H256910   3.683   5.145  12.440 -1.5259  2.1693 -0.5372
11807TIP3   OH256911   2.437   1.438   1.062  0.1271  0.6972  0.0798
11807TIP3    H156912   2.403   1.401   0.981 -0.2270 -0.8362  0.9020
11807TIP3    H256913   2.523   1.398   1.073  0.2741  1.0785  0.3369
11808TIP3   OH256914   3.598   1.352  17.133 -0.0051 -0.2239  0.1080
11808TIP3    H156915   3.602   1.388  17.044  2.1629  0.2517  0.3701
11808TIP3    H256916   3.523   1.396  17.173  0.0990  0.9282 -0.9212
11809TIP3   OH256917   0.690   0.269   3.955  0.2654  0.3964 -0.1528
11809TIP3    H156918   0.653   0.214   3.885  1.4034 -1.4046  0.6171
11809TIP3    H256919   0.782   0.243   3.960 -0.1203 -0.6126  3.0055
11810TIP3   OH256920   6.242   2.963  12.692 -0.2923  0.1928  0.2768
11810TIP3    H156921   6.241   2.965  12.788 -0.5102  1.4365  0.2622
11810TIP3    H256922   6.335   2.960  12.669 -0.1421  2.4000  0.5143
11811TIP3   OH256923   0.874   0.579  15.118  0.8222 -0.4059 -0.3320
11811TIP3    H156924   0.878   0.665  15.159 -0.0441 -0.3093 -0.4478
11811TIP3    H256925   0.959   0.540  15.137  1.0792  0.3278  0.0425
11812TIP3   OH256926   4.722   5.437  14.125  0.3853 -0.1438 -0.5014
11812TIP3    H156927   4.657   5.441  14.194 -0.5036  1.0673 -1.3869
11812TIP3    H256928   4.787   5.374  14.157 -0.2357  0.0595  1.2136
11813TIP3   OH256929   1.112   6.186  12.634 -0.3602  0.2378 -0.4212
11813TIP3    H156930   1.046   6.200  12.566 -0.3509  0.0481 -0.4709
11813TIP3    H256931   1.093   6.252  12.701 -0.7505  0.0284 -0.3236
11814TIP3   OH256932   5.255   2.813  15.282 -0.5848 -0.6959 -0.1064
11814TIP3    H156933   5.281   2.729  15.246  0.9938 -0.4132  0.3637
11814TIP3    H256934   5.276   2.876  15.213  1.0976 -0.3285  0.7272
11815TIP3   OH256935   6.427   3.176   2.822  0.2857  0.4345 -0.0140
11815TIP3    H156936   6.358   3.242   2.830  0.6159  0.7869 -0.0433
11815TIP3    H256937   6.429   3.131   2.906  0.4819  0.8844  0.2210
11816TIP3   OH256938   3.538   1.160  11.544  0.5168 -0.2169  0.7048
11816TIP3    H156939   3.494   1.226  11.491 -0.8355 -2.2674 -0.8300
11816TIP3    H256940   3.480   1.145  11.618  0.6417  0.0469  0.8558
11817TIP3   OH256941   3.147   5.725  11.853 -0.4541 -0.0817  0.0169
11817TIP3    H156942   3.202   5.659  11.810 -0.3077 -0.0511  0.1562
11817TIP3    H256943   3.209   5.781  11.899 -0.5733  0.2400 -0.2181
11818TIP3   OH256944   6.737   4.092  14.109  0.2974 -0.6001  0.6331
11818TIP3    H156945   6.732   4.188  14.105  0.4700 -0.5972  0.5153
11818TIP3    H256946   6.698   4.070  14.194 -0.7365 -0.4939  0.1984
11819TIP3   OH256947   6.113   0.853   4.203 -0.0650  0.0095 -0.4743
11819TIP3    H156948   6.117   0.759   4.185  1.2943  0.3941 -2.3575
11819TIP3    H256949   6.020   0.873   4.206 -0.4084 -1.7166  1.7780
11820TIP3   OH256950   2.496   1.688  15.666 -0.1302 -0.5558  0.0908
11820TIP3    H156951   2.440   1.750  15.621 -0.0463 -0.3968  0.2055
11820TIP3    H256952   2.438   1.644  15.728 -0.5988 -1.8760 -1.2421
11821TIP3   OH256953   2.963   4.765  15.284 -0.4471  0.6552  0.0929
11821TIP3    H156954   3.028   4.749  15.216 -0.9725  0.5518 -0.3945
11821TIP3    H256955   2.986   4.704  15.355  0.2558  0.9439  0.1157
11822TIP3   OH256956   6.392   1.603   5.336 -0.2369  0.1895 -0.5613
11822TIP3    H156957   6.345   1.686   5.324  0.3521  0.6456  0.2461
11822TIP3    H256958   6.326   1.535   5.317 -1.2712  0.8121  0.7621
11823TIP3   OH256959   1.198   1.823  13.677  0.0614 -0.5867  0.2492
11823TIP3    H156960   1.192   1.866  13.763 -0.9167 -1.7226  0.7661
11823TIP3    H256961   1.291   1.828  13.654  0.3268 -0.2290  1.3615
11824TIP3   OH256962   4.568   2.272  14.102 -0.4130  0.0781  0.2912
11824TIP3    H156963   4.485   2.295  14.143 -1.3140 -0.3022 -1.2959
11824TIP3    H256964   4.574   2.328  14.025  0.2550 -0.6919 -0.2324
11825TIP3   OH256965   4.152   2.861  13.255 -0.0365  0.1309  0.1470
11825TIP3    H156966   4.065   2.821  13.256 -0.5331  1.1988  0.4336
11825TIP3    H256967   4.145   2.936  13.314  0.4318  1.5777 -1.6080
11826TIP3   OH256968   2.157   5.105   5.371 -0.0117  0.4088  0.1268
11826TIP3    H156969   2.105   5.137   5.445 -0.3172  1.0330 -0.3537
11826TIP3    H256970   2.100   5.042   5.328 -2.1243  4.1537 -2.9027
11827TIP3   OH256971   4.754   1.125  11.603 -0.1788 -0.1424 -0.1394
11827TIP3    H156972   4.698   1.190  11.561 -0.9272  0.7735  2.2206
11827TIP3    H256973   4.830   1.175  11.634 -0.1980 -0.5986  0.6422
11828TIP3   OH256974   2.763   0.475  15.490 -0.3703 -0.2011  0.2563
11828TIP3    H156975   2.816   0.542  15.447 -1.0101 -0.1724 -0.5007
11828TIP3    H256976   2.778   0.396  15.439  0.0732 -0.5472  0.9129
11829TIP3   OH256977   3.626   2.606  15.192  0.1750  0.7620  0.7068
11829TIP3    H156978   3.626   2.674  15.259 -0.9490  2.3734 -0.9055
11829TIP3    H256979   3.558   2.632  15.130 -0.4699 -1.9593  0.1784
11830TIP3   OH256980   2.694   4.417  12.828 -0.4244 -0.0988 -0.5204
11830TIP3    H156981   2.698   4.402  12.734  0.9285  2.6183 -0.9502
11830TIP3    H256982   2.678   4.511  12.837 -0.9614 -0.3769  1.9676
11831TIP3   OH256983   3.772   1.642   5.838  0.0524 -0.2604  0.3692
11831TIP3    H156984   3.805   1.698   5.767  0.5796 -1.8992 -0.7058
11831TIP3    H256985   3.683   1.673   5.853 -0.2283 -0.1586 -1.3356
11832TIP3   OH256986   0.604   4.183  11.085  0.1279  0.1268 -0.0332
11832TIP3    H156987   0.608   4.087  11.087 -0.8649  0.0856 -0.1104
11832TIP3    H256988   0.656   4.208  11.009 -1.3176 -0.4500 -1.2314
11833TIP3   OH256989   5.212   5.447  15.708  0.1200 -0.0835 -0.2662
11833TIP3    H156990   5.180   5.532  15.738  1.7602  0.5829 -0.3410
11833TIP3    H256991   5.261   5.412  15.783 -1.6107 -1.5697  0.2215
11834TIP3   OH256992   0.302   1.476  13.247  0.1545  0.7133 -0.0921
11834TIP3    H156993   0.318   1.570  13.254 -0.5809  0.9116 -0.8920
11834TIP3    H256994   0.389   1.437  13.241  0.4525  1.3937 -0.3074
11835TIP3   OH256995   3.588   0.484   4.228  0.6429 -0.1632 -0.0131
11835TIP3    H156996   3.547   0.566   4.258 -1.3176 -1.1371  0.0755
11835TIP3    H256997   3.626   0.506   4.143 -0.2537  0.7337 -0.2000
11836TIP3   OH256998   2.018   5.942  14.784 -0.1949 -0.0577 -0.1160
11836TIP3    H156999   2.112   5.942  14.763 -0.4179 -0.1433 -1.1165
11836TIP3    H257000   1.974   5.937  14.699 -1.1055 -0.4836  0.3755
11837TIP3   OH257001   3.791   4.964  15.984 -0.5447 -0.3455 -0.4392
11837TIP3    H157002   3.866   4.971  16.043 -0.7169 -1.6151 -0.0397
11837TIP3    H257003   3.791   4.872  15.956 -0.7476  0.1378 -2.0555
11838TIP3   OH257004   5.019   6.514   0.163  0.2997 -0.3604  0.6704
11838TIP3    H157005   5.063   6.499   0.247 -0.1310 -2.0224  0.6085
11838TIP3    H257006   5.044   6.440   0.109 -1.6586 -0.7545  0.2564
11839TIP3   OH257007   0.039   6.488   3.681  0.0715  0.2813  0.1420
11839TIP3    H157008   0.129   6.515   3.703  0.4972 -2.1552  1.5614
11839TIP3    H257009   0.048   6.400   3.646 -1.8288 -0.2875  0.9915
11840TIP3   OH257010   4.797   3.410   5.671 -0.0103  0.3575  0.1491
11840TIP3    H157011   4.843   3.483   5.712  2.4552 -1.5332  0.8691
11840TIP3    H257012   4.859   3.375   5.607 -0.9040 -1.5234  0.2856
11841TIP3   OH257013   1.351   4.307  16.895 -0.0264  0.0727 -0.1004
11841TIP3    H157014   1.440   4.274  16.900 -0.1565 -0.4083 -0.8704
11841TIP3    H257015   1.306   4.266  16.970  0.7223  1.3543  1.0715
11842TIP3   OH257016   4.494   5.591  12.138 -0.0758  0.2670 -0.8353
11842TIP3    H157017   4.510   5.627  12.051 -1.1488  0.1555 -1.0948
11842TIP3    H257018   4.478   5.498  12.124 -0.2176  0.2414 -0.5254
11843TIP3   OH257019   1.538   5.740   2.420  0.4480  0.5023 -0.7038
11843TIP3    H157020   1.538   5.691   2.337  1.3318  0.4946 -0.7037
11843TIP3    H257021   1.622   5.786   2.420  0.5307  0.3542  0.2740
11844TIP3   OH257022   3.811   5.442  11.468 -0.0445  0.1698 -0.4757
11844TIP3    H157023   3.856   5.385  11.407  0.2400 -0.3095  0.1816
11844TIP3    H257024   3.722   5.449  11.433  0.0623 -0.2513 -0.8339
11845TIP3   OH257025   2.804   5.627  14.882 -0.1348 -0.8253 -0.4434
11845TIP3    H157026   2.754   5.642  14.801  0.7745 -1.6199 -1.1595
11845TIP3    H257027   2.786   5.535  14.904 -0.0989 -0.7102  0.0760
11846TIP3   OH257028   6.699   0.314   5.878 -0.0889 -0.4253  0.4749
11846TIP3    H157029   6.628   0.279   5.825 -0.4040 -0.4020  0.8821
11846TIP3    H257030   6.773   0.255   5.862  1.1645  1.9805 -3.3750
11847TIP3   OH257031   2.139   4.575  16.411 -0.0015 -0.0866 -0.1166
11847TIP3    H157032   2.071   4.633  16.376  1.7126  0.3748 -2.8247
11847TIP3    H257033   2.153   4.605  16.500 -2.5418  0.5132  0.1258
11848TIP3   OH257034   5.455   4.955   0.351 -0.0275 -0.4032  0.4917
11848TIP3    H157035   5.363   4.930   0.338  0.0830 -1.1234  1.0681
11848TIP3    H257036   5.452   5.013   0.428 -0.2043  0.8942 -0.4749
11849TIP3   OH257037   4.928   0.587  10.555 -0.6481  0.4148  0.1550
11849TIP3    H157038   4.942   0.674  10.593  0.2093  0.7322 -0.8964
11849TIP3    H257039   5.015   0.550  10.548 -1.0542 -0.7629  1.0981
11850TIP3   OH257040   4.283   2.877   2.312  0.0049 -0.0221 -0.2872
11850TIP3    H157041   4.305   2.965   2.282 -0.3961 -0.1615 -0.9990
11850TIP3    H257042   4.216   2.891   2.379  0.9075  0.2900  0.5551
11851TIP3   OH257043   3.604   0.749  11.338  0.5304 -0.0056 -0.3370
11851TIP3    H157044   3.632   0.766  11.248  0.1543  1.1689 -0.2400
11851TIP3    H257045   3.516   0.786  11.343 -0.7738 -2.9471 -0.4097
11852TIP3   OH257046   2.170   0.298  11.447 -0.2132 -0.0487  0.4003
11852TIP3    H157047   2.258   0.311  11.481 -0.4221 -2.1389  1.8423
11852TIP3    H257048   2.113   0.340  11.511 -0.3079  0.8916 -0.2893
11853TIP3   OH257049   6.670   2.018  12.813 -0.1462 -0.1794  0.2321
11853TIP3    H157050   6.673   2.100  12.763  2.1124 -0.8994 -0.8993
11853TIP3    H257051   6.669   2.046  12.904 -0.7585  1.1327 -0.1627
11854TIP3   OH257052   0.927   4.341  14.816  0.3929  0.3736  0.7329
11854TIP3    H157053   1.019   4.340  14.788  0.1762 -0.3170  0.0337
11854TIP3    H257054   0.880   4.371  14.738 -0.0129  0.4167  0.9957
11855TIP3   OH257055   4.338   6.299   1.439 -0.2953  0.1432  0.0975
11855TIP3    H157056   4.310   6.389   1.457  2.4961  1.6300 -2.4965
11855TIP3    H257057   4.261   6.257   1.401 -0.9086  2.1989 -1.0358
11856TIP3   OH257058   2.653   4.913  13.785 -0.2452 -0.0524 -0.4498
11856TIP3    H157059   2.616   4.846  13.728  0.0637  1.0443 -1.9575
11856TIP3    H257060   2.746   4.913  13.765 -0.2637  0.9195 -0.5425
11857TIP3   OH257061   5.257   4.222   1.593  0.2150 -0.4679  0.4998
11857TIP3    H157062   5.335   4.181   1.555  0.8286 -0.2218  1.4846
11857TIP3    H257063   5.264   4.314   1.570 -0.3431 -0.6273 -0.3326
11858TIP3   OH257064   2.915   1.640  15.439  0.2654  0.4363  0.4981
11858TIP3    H157065   3.007   1.647  15.414  0.7138 -1.3362  1.5547
11858TIP3    H257066   2.902   1.546  15.455 -1.7509  0.6667  0.2549
11859TIP3   OH257067   2.596   2.689   5.474  0.2586 -0.5051 -0.1396
11859TIP3    H157068   2.577   2.702   5.380 -0.4217 -1.9877 -0.2176
11859TIP3    H257069   2.679   2.733   5.488  0.0166  0.3519 -1.2945
11860TIP3   OH257070   3.431   4.183  14.684  0.4023 -0.3009 -0.4778
11860TIP3    H157071   3.416   4.277  14.676  1.2640  0.0280  1.4553
11860TIP3    H257072   3.364   4.143  14.628 -1.8673  1.3676  0.9588
11861TIP3   OH257073   5.776   1.892   1.639  0.2866 -0.5462 -0.5803
11861TIP3    H157074   5.715   1.965   1.647  0.4892 -0.4381 -0.0191
11861TIP3    H257075   5.854   1.931   1.598  1.3746  0.1385  2.0164
11862TIP3   OH257076   1.779   1.578   5.313 -0.4528 -0.0347  0.1003
11862TIP3    H157077   1.705   1.610   5.261  0.8842  0.0944 -1.7481
11862TIP3    H257078   1.811   1.502   5.264  0.4703 -0.2707  1.0551
11863TIP3   OH257079   3.026   1.668   1.710  0.6601 -0.2152  0.3324
11863TIP3    H157080   3.102   1.693   1.763 -0.8086  0.7792  2.0073
11863TIP3    H257081   3.011   1.576   1.732  1.1838 -0.3246  0.2425
11864TIP3   OH257082   0.949   3.722   2.517 -0.0767 -0.3066  0.1104
11864TIP3    H157083   0.917   3.656   2.456  0.6005 -1.8759  1.4193
11864TIP3    H257084   0.961   3.800   2.463 -0.0198 -1.4980 -1.6478
11865TIP3   OH257085   1.070   0.550  15.849 -0.2430 -0.4134 -0.4501
11865TIP3    H157086   1.161   0.530  15.872 -0.4601  2.4027  3.4294
11865TIP3    H257087   1.022   0.469  15.869  0.8300 -0.5995  1.4890
11866TIP3   OH257088   2.350   3.767   1.101  0.2224 -0.5464  0.0896
11866TIP3    H157089   2.287   3.806   1.040  0.4156  0.3328  0.4336
11866TIP3    H257090   2.373   3.683   1.062 -0.2931 -0.3612 -0.6208
11867TIP3   OH257091   3.216   4.859  14.313 -0.1740 -0.3524 -0.3263
11867TIP3    H157092   3.256   4.794  14.255 -1.0456 -0.5204 -0.7448
11867TIP3    H257093   3.285   4.924  14.328  0.5540 -1.1217 -0.2875
11868TIP3   OH257094   5.362   5.929   5.296 -0.2047  0.2131 -0.2755
11868TIP3    H157095   5.390   5.838   5.285  0.2016  0.2836  0.1663
11868TIP3    H257096   5.418   5.964   5.365 -0.5063  0.7375 -0.2867
11869TIP3   OH257097   5.950   4.035   1.478  0.0380 -0.0423  0.3353
11869TIP3    H157098   5.974   4.073   1.394  0.4777  0.0910  0.5182
11869TIP3    H257099   6.003   4.084   1.542  0.1295 -0.5322  0.6343
11870TIP3   OH257100   5.587   2.769   2.946 -0.5027  0.0420  0.1921
11870TIP3    H157101   5.639   2.689   2.944  0.8821  0.9431 -0.7623
11870TIP3    H257102   5.570   2.785   3.039  0.3244 -0.6595  0.4661
11871TIP3   OH257103   1.611   6.068  12.310 -0.0543  0.4109 -0.4999
11871TIP3    H157104   1.666   6.140  12.342  0.4525 -0.9124  1.6920
11871TIP3    H257105   1.522   6.093  12.333  0.2519 -0.2738  1.5391
11872TIP3   OH257106   2.887   4.950   2.236  0.1935 -0.1870  0.4344
11872TIP3    H157107   2.910   4.874   2.290  0.8814  0.1796  0.6736
11872TIP3    H257108   2.960   5.011   2.249 -0.3282  0.4914  0.2083
11873TIP3   OH257109   5.934   5.341   4.721 -0.4343 -0.3129 -0.5320
11873TIP3    H157110   5.907   5.275   4.785 -0.6793  0.0513 -0.2634
11873TIP3    H257111   6.016   5.306   4.685  0.9380  0.5793  1.6173
11874TIP3   OH257112   4.451   1.632  17.268  0.1995  0.1320 -0.1210
11874TIP3    H157113   4.368   1.619  17.223 -1.4384 -1.3446  3.1699
11874TIP3    H257114   4.499   1.550  17.255  0.7386  0.5893 -1.1135
11875TIP3   OH257115   5.730   0.869  15.537 -0.1013 -0.3349 -0.1735
11875TIP3    H157116   5.677   0.804  15.491  0.5154  0.1972 -1.6867
11875TIP3    H257117   5.774   0.819  15.606  0.4682 -1.5786 -1.3899
11876TIP3   OH257118   2.407   3.311  13.812  0.1872 -0.7786  0.3947
11876TIP3    H157119   2.433   3.366  13.738  0.2663  1.2692  1.9087
11876TIP3    H257120   2.485   3.257  13.829  0.9225  0.2380  0.3282
11877TIP3   OH257121   1.550   0.076  16.564 -0.7582 -0.5591  0.5193
11877TIP3    H157122   1.482   0.139  16.586 -0.1298 -0.3729  2.0220
11877TIP3    H257123   1.520  -0.006  16.603  0.2906 -0.2628  2.0310
11878TIP3   OH257124   3.493   1.467  16.490  0.2214 -0.3654 -0.7442
11878TIP3    H157125   3.557   1.430  16.551  0.6474  0.3707 -0.7418
11878TIP3    H257126   3.521   1.436  16.404  0.9667  0.4954 -0.8125
11879TIP3   OH257127   5.881   5.108  12.531 -0.5080  0.2091  0.2921
11879TIP3    H157128   5.915   5.035  12.583 -1.1784 -0.3737 -0.0714
11879TIP3    H257129   5.935   5.109  12.452 -0.5211  0.0818  0.2812
11880TIP3   OH257130   5.955   3.099   1.328 -0.4819  0.0108  0.2520
11880TIP3    H157131   5.891   3.033   1.302 -0.8264  0.8428 -1.0592
11880TIP3    H257132   6.017   3.052   1.384  0.0430 -1.7365 -1.7449
11881TIP3   OH257133   1.696   5.587   1.285  0.2277  0.2747 -0.0904
11881TIP3    H157134   1.605   5.578   1.314  0.3451  0.7155  0.4375
11881TIP3    H257135   1.700   5.673   1.244  0.4933  0.4094  0.2161
11882TIP3   OH257136   6.276   0.313   6.154  0.1599 -0.0409  0.2296
11882TIP3    H157137   6.289   0.254   6.229 -0.9126 -0.8665 -0.2259
11882TIP3    H257138   6.221   0.383   6.189  0.4176  0.0506  0.4538
11883TIP3   OH257139   5.970   5.167   0.434 -0.2228 -0.3953  0.0121
11883TIP3    H157140   5.960   5.074   0.412 -0.7938  0.1111 -1.9814
11883TIP3    H257141   5.887   5.206   0.407  0.5081  0.9033 -0.3848
11884TIP3   OH257142   0.033   3.480   3.174  0.0811 -0.1812  0.8848
11884TIP3    H157143   0.086   3.523   3.241  0.5572 -0.4543  0.6872
11884TIP3    H257144   0.095   3.426   3.125 -0.5593 -1.3526  1.3438
11885TIP3   OH257145   3.919   1.186  15.819  0.2735  0.3334 -0.4173
11885TIP3    H157146   3.922   1.275  15.782 -1.4317 -0.0531 -1.5024
11885TIP3    H257147   3.973   1.134  15.759 -1.9364 -0.1501 -2.0684
11886TIP3   OH257148   3.592   4.392  12.883 -0.7600  0.4983  0.6825
11886TIP3    H157149   3.654   4.442  12.830 -1.4361  1.2811  0.6078
11886TIP3    H257150   3.506   4.419  12.850 -1.1587  0.0861  1.3711
11887TIP3   OH257151   5.650   1.173   4.844 -0.2869 -0.1138  0.5081
11887TIP3    H157152   5.640   1.235   4.916  1.8082  1.1629 -0.2457
11887TIP3    H257153   5.682   1.093   4.886 -1.9761 -0.3524  1.3605
11888TIP3   OH257154   0.786   6.178   6.471  0.1139  0.1686  0.2842
11888TIP3    H157155   0.827   6.264   6.467  2.0416 -0.7281 -0.2623
11888TIP3    H257156   0.850   6.124   6.518 -0.3759 -1.3066 -0.6981
11889TIP3   OH257157   4.609   5.160   4.736  0.3277  0.4215  0.4489
11889TIP3    H157158   4.570   5.106   4.667  0.7020  0.7698 -0.0376
11889TIP3    H257159   4.631   5.098   4.805  0.3627  0.0070  0.0664
11890TIP3   OH257160   2.103   1.574   6.038 -0.5166 -0.0951 -0.6548
11890TIP3    H157161   2.195   1.593   6.021 -0.4434  1.4082  1.2392
11890TIP3    H257162   2.105   1.507   6.107 -0.8314 -0.1547 -0.7031
11891TIP3   OH257163   0.716   5.229   2.260 -0.2983  0.2432  0.7050
11891TIP3    H157164   0.745   5.318   2.279  0.9975  0.1576 -0.7617
11891TIP3    H257165   0.719   5.185   2.345 -3.1713  2.1653  1.8622
11892TIP3   OH257166   5.743   6.119  16.724  1.0759  0.3463 -0.5473
11892TIP3    H157167   5.654   6.152  16.739  1.1503  0.5550 -0.5570
11892TIP3    H257168   5.798   6.173  16.781  1.2064  0.2793 -0.6087
11893TIP3   OH257169   6.084   0.271   5.822 -0.5951 -0.0072 -0.0345
11893TIP3    H157170   6.042   0.353   5.795  1.5827  0.8226 -0.9782
11893TIP3    H257171   6.048   0.254   5.910 -1.5958  1.5744 -0.1126
11894TIP3   OH257172   4.375   6.034  17.169 -0.1129 -0.0993  0.3439
11894TIP3    H157173   4.394   6.127  17.183  2.9366 -0.7403  0.9310
11894TIP3    H257174   4.324   6.008  17.246 -0.1747  0.8790  0.6363
11895TIP3   OH257175   1.573   0.803   0.854 -0.1625  0.1742 -0.3351
11895TIP3    H157176   1.664   0.774   0.853 -0.0175  0.6225 -0.2356
11895TIP3    H257177   1.567   0.862   0.929 -0.5303  0.1604 -0.3516
11896TIP3   OH257178   0.845   2.856  16.719 -0.5414  0.6819  0.3547
11896TIP3    H157179   0.848   2.766  16.751  0.3069  1.2374  1.8893
11896TIP3    H257180   0.809   2.849  16.631 -1.7685 -1.0156  0.9740
11897TIP3   OH257181   1.074   6.247   4.917 -0.2644  0.1077 -0.3498
11897TIP3    H157182   1.109   6.324   4.962  1.2462 -0.7848  0.0561
11897TIP3    H257183   1.126   6.240   4.837 -1.7245  0.6316 -1.3682
11898TIP3   OH257184   4.163   6.475   1.922 -0.3648  1.0888 -0.1035
11898TIP3    H157185   4.245   6.498   1.965 -1.1892  2.9794  0.4805
11898TIP3    H257186   4.137   6.392   1.963  2.5279 -0.8738 -2.1018
11899TIP3   OH257187   0.991   6.457   4.568  0.1027  0.0807  0.5281
11899TIP3    H157188   0.944   6.404   4.503 -0.5203  1.5659 -0.2431
11899TIP3    H257189   1.012   6.538   4.523  0.9575  0.5627  1.7480
11900TIP3   OH257190   0.678   3.137  14.067 -0.0898  0.5286  0.0274
11900TIP3    H157191   0.688   3.230  14.085  0.6682  0.3365  0.6476
11900TIP3    H257192   0.587   3.127  14.040 -0.0673  1.5036 -0.4055
11901TIP3   OH257193   1.070   5.352  16.317  0.0243 -0.1399 -0.2947
11901TIP3    H157194   1.040   5.261  16.328 -2.1571  0.7832  1.7818
11901TIP3    H257195   1.149   5.358  16.371 -0.2383 -0.6189  0.1522
11902TIP3   OH257196   3.336   5.405  11.920  0.7747  0.2565 -0.6781
11902TIP3    H157197   3.339   5.349  11.842  1.3149 -0.7438  0.0526
11902TIP3    H257198   3.424   5.401  11.956  0.7351  1.3346 -0.4258
11903TIP3   OH257199   2.837   6.031   3.435 -0.3143  0.2406  0.4914
11903TIP3    H157200   2.758   6.005   3.482 -0.6745 -0.1238 -0.2995
11903TIP3    H257201   2.900   6.052   3.504 -0.4783 -1.3542  1.1546
11904TIP3   OH257202   5.270   4.536   3.632  0.4508  0.0025  0.1327
11904TIP3    H157203   5.317   4.471   3.683 -0.7084 -0.4840  0.5785
11904TIP3    H257204   5.181   4.533   3.665 -0.4452 -0.6935 -2.2681
11905TIP3   OH257205   5.375   5.356  14.832  0.4676 -0.2558 -0.4476
11905TIP3    H157206   5.458   5.399  14.810  0.8256 -0.9077 -0.3838
11905TIP3    H257207   5.329   5.419  14.888  0.9790  0.0449 -0.3632
11906TIP3   OH257208   0.216   4.382  14.802 -0.3323 -0.0104  0.7400
11906TIP3    H157209   0.311   4.379  14.790 -0.0520 -0.6961  2.8928
11906TIP3    H257210   0.196   4.474  14.817 -0.1173  0.2384 -0.4643
11907TIP3   OH257211   4.664   0.539   2.472 -0.2322  0.3628  0.2681
11907TIP3    H157212   4.586   0.484   2.463  0.5657 -0.5490 -1.2444
11907TIP3    H257213   4.634   0.626   2.445 -1.3507  0.5860  2.1237
11908TIP3   OH257214   6.666   3.369   1.416 -0.2468 -0.6568 -0.1417
11908TIP3    H157215   6.585   3.399   1.459  0.2870 -0.0408  0.4453
11908TIP3    H257216   6.693   3.292   1.466 -0.3900 -0.7746 -0.2461
11909TIP3   OH257217   5.024   3.307   4.772 -0.3872  0.1537 -0.5690
11909TIP3    H157218   5.019   3.346   4.860 -3.5921 -0.0239 -0.6309
11909TIP3    H257219   4.953   3.347   4.723 -0.5393 -1.9733 -2.1770
11910TIP3   OH257220   0.305   5.293   1.612  0.0786  0.7122 -0.3764
11910TIP3    H157221   0.388   5.283   1.566 -0.3778 -1.6361 -0.7473
11910TIP3    H257222   0.329   5.300   1.704  0.6816 -0.3245 -0.4476
11911TIP3   OH257223   3.364   2.712  15.091 -0.3634  0.4486  0.3291
11911TIP3    H157224   3.424   2.770  15.044  0.7658 -2.0171 -1.3494
11911TIP3    H257225   3.296   2.692  15.028  0.0721 -1.2648  0.3861
11912TIP3   OH257226   4.782   6.787  15.621  0.1151  0.5914 -0.2029
11912TIP3    H157227   4.872   6.804  15.647 -0.2784  0.1196  1.5095
11912TIP3    H257228   4.768   6.694  15.641 -1.1351  0.9634  0.7118
11913TIP3   OH257229   4.427   5.209   3.643 -0.1368  0.3306 -0.0631
11913TIP3    H157230   4.339   5.236   3.667  0.0295  0.9338 -0.1311
11913TIP3    H257231   4.445   5.253   3.560 -0.1890 -0.6684 -0.6183
11914TIP3   OH257232   1.646   4.788  14.099  0.2562 -0.8564 -0.5401
11914TIP3    H157233   1.610   4.757  14.183 -2.9562  4.8630  0.5141
11914TIP3    H257234   1.590   4.748  14.033  0.9422 -3.1017  0.2068
11915TIP3   OH257235   3.020   2.121  12.373 -0.1216  0.4409  0.3265
11915TIP3    H157236   3.007   2.084  12.285  1.1624  0.4234  0.1430
11915TIP3    H257237   2.939   2.171  12.389  0.7162  2.6620 -1.9941
11916TIP3   OH257238   5.595   5.650  11.143 -0.5504 -0.0691 -0.2023
11916TIP3    H157239   5.651   5.572  11.144 -1.6124 -0.8510  2.4578
11916TIP3    H257240   5.508   5.615  11.122 -1.2240  0.2226  2.0008
11917TIP3   OH257241   0.730   0.621  14.887  0.4636 -0.1396  0.2488
11917TIP3    H157242   0.645   0.640  14.926  0.4483  0.9271 -0.3074
11917TIP3    H257243   0.792   0.627  14.960 -0.1477 -2.8377  1.0699
11918TIP3   OH257244   4.031   4.870  14.668 -0.1124  0.4468 -0.0101
11918TIP3    H157245   3.948   4.915  14.680 -0.6479 -0.0882 -1.5932
11918TIP3    H257246   4.066   4.860  14.757 -0.5916  2.8042  0.4780
11919TIP3   OH257247   2.169   1.756   1.950  0.1224 -0.0450 -0.1548
11919TIP3    H157248   2.151   1.663   1.965  3.7483 -1.0586 -1.5980
11919TIP3    H257249   2.233   1.780   2.017  2.6610  0.1628 -2.5778
11920TIP3   OH257250   2.636   1.210  14.838  0.4198 -0.1202  0.2082
11920TIP3    H157251   2.624   1.305  14.830  1.7398 -0.1502 -2.7889
11920TIP3    H257252   2.555   1.179  14.877 -0.5157  2.1142  0.1309
11921TIP3   OH257253   1.332   0.955  10.861 -0.3201  0.1898 -0.0445
11921TIP3    H157254   1.274   0.886  10.827  1.4530 -0.4583 -1.8698
11921TIP3    H257255   1.275   1.031  10.871 -1.5858 -0.5360 -1.4843
11922TIP3   OH257256   0.975   5.856  16.089  0.7258  0.7470  0.1114
11922TIP3    H157257   1.005   5.946  16.097  1.8001  0.4198 -0.1434
11922TIP3    H257258   1.034   5.806  16.145 -0.8035  0.3967  1.4448
11923TIP3   OH257259   2.968   6.817   5.118  0.3111 -0.3823  0.7106
11923TIP3    H157260   3.038   6.777   5.065 -0.9290 -1.1478 -0.3856
11923TIP3    H257261   2.894   6.758   5.108 -1.6338  2.2084 -1.0513
11924TIP3   OH257262   3.680   3.208   0.883 -0.3756  0.5552 -0.7592
11924TIP3    H157263   3.752   3.149   0.905  1.0168  2.7189  0.6421
11924TIP3    H257264   3.615   3.195   0.952  0.8609  2.1608  0.7378
11925TIP3   OH257265   0.986   0.003  13.573  0.1222  0.0247 -0.2961
11925TIP3    H157266   0.984  -0.093  13.568 -2.0422 -0.1140  2.1356
11925TIP3    H257267   1.016   0.022  13.662 -0.7685  1.5934 -0.3097
11926TIP3   OH257268   1.105   4.648  16.954 -0.5490  0.3313  0.2276
11926TIP3    H157269   1.040   4.716  16.935 -0.1241  0.7337  0.2204
11926TIP3    H257270   1.130   4.615  16.867 -2.1475 -1.1437  0.3009
11927TIP3   OH257271   3.335   0.180   4.730 -0.1033 -0.1671 -0.1796
11927TIP3    H157272   3.361   0.122   4.658  0.4532 -0.1421 -0.0030
11927TIP3    H257273   3.311   0.262   4.686 -0.5453 -0.4173 -0.4009
11928TIP3   OH257274   1.556   6.051   6.356 -0.3396 -0.3324  0.1818
11928TIP3    H157275   1.503   6.057   6.276  0.5885 -1.1578 -0.4960
11928TIP3    H257276   1.503   5.998   6.415 -0.5029 -0.7286 -0.3133
11929TIP3   OH257277   0.289   4.384   4.245  0.0717 -0.3364  0.4824
11929TIP3    H157278   0.336   4.467   4.242 -0.6522  0.0689  0.1973
11929TIP3    H257279   0.348   4.324   4.291  1.5309 -0.2784 -1.2545
11930TIP3   OH257280   4.110   4.638  15.941 -0.3368  0.2558 -0.4041
11930TIP3    H157281   4.164   4.700  15.892 -0.6361  1.2049  0.4599
11930TIP3    H257282   4.085   4.572  15.876  2.9107 -0.9227 -0.5508
11931TIP3   OH257283   6.084   1.779   2.908 -0.5173 -0.4368  0.4439
11931TIP3    H157284   6.013   1.719   2.886 -0.5486 -0.5705  0.9060
11931TIP3    H257285   6.147   1.768   2.837 -0.3885 -1.2273  0.6728
11932TIP3   OH257286   3.310   4.872  13.241 -0.3130  0.1681 -0.3996
11932TIP3    H157287   3.254   4.943  13.210 -0.1875  0.0624 -0.8851
11932TIP3    H257288   3.388   4.877  13.185  0.2020  0.3673  0.3264
11933TIP3   OH257289   4.311   5.160   0.546 -0.1214 -0.7598 -0.2497
11933TIP3    H157290   4.372   5.221   0.505 -0.6083  0.6760  1.0901
11933TIP3    H257291   4.302   5.088   0.484 -1.1426  1.5332 -2.8384
11934TIP3   OH257292   4.283   5.878   4.375 -0.2016  0.1381  0.0533
11934TIP3    H157293   4.205   5.825   4.393  0.2578  0.2950  2.6963
11934TIP3    H257294   4.338   5.868   4.453  0.9657  2.6286 -0.3810
11935TIP3   OH257295   2.447   6.149  16.820 -0.0699  0.0682  0.4483
11935TIP3    H157296   2.440   6.078  16.883 -1.9205 -0.5933 -0.4622
11935TIP3    H257297   2.497   6.112  16.748  0.0623  0.0924  0.5264
11936TIP3   OH257298   6.281   0.925   3.543 -0.1100 -0.4176 -0.0423
11936TIP3    H157299   6.369   0.911   3.507 -0.0665 -0.8217  0.2155
11936TIP3    H257300   6.278   1.019   3.563  0.9430 -0.7289  1.7003
11937TIP3   OH257301   1.091   0.347  16.176  0.4662  0.3460 -0.1741
11937TIP3    H157302   1.013   0.299  16.201  1.1506 -0.2931  0.7543
11937TIP3    H257303   1.061   0.409  16.109 -0.7099 -0.2900 -0.2369
11938TIP3   OH257304   5.210   3.970  14.628  0.6000  0.5468 -0.2455
11938TIP3    H157305   5.203   4.004  14.538  1.1721  1.4084  0.0386
11938TIP3    H257306   5.200   4.047  14.684  0.8423  0.0971  0.4227
11939TIP3   OH257307   5.262   0.454  12.462 -0.2767  0.0950  0.4233
11939TIP3    H157308   5.288   0.517  12.394 -0.8067  0.0956  0.2130
11939TIP3    H257309   5.199   0.396  12.418 -1.3572  0.6752  1.1622
11940TIP3   OH257310   6.252   5.362  12.073  0.4543  0.1499 -0.2089
11940TIP3    H157311   6.221   5.331  11.988 -1.8087  0.8986  0.3035
11940TIP3    H257312   6.302   5.288  12.108  0.0125 -0.7789 -1.4713
11941TIP3   OH257313   5.280   2.667  12.694  0.2865  0.3866 -0.4111
11941TIP3    H157314   5.251   2.624  12.774 -0.3155  0.4833 -0.5707
11941TIP3    H257315   5.200   2.703  12.656  0.5702  0.3706 -1.0342
11942TIP3   OH257316   3.205   0.025   0.946  0.5732 -0.2575 -0.1534
11942TIP3    H157317   3.189  -0.021   0.864 -1.4491  1.8709 -1.0113
11942TIP3    H257318   3.277   0.085   0.927  0.2003  0.1332 -0.3463
11943TIP3   OH257319   2.169   1.424  13.985 -0.0370 -0.0898 -0.4149
11943TIP3    H157320   2.164   1.503  14.039 -0.6076 -0.9946  0.8744
11943TIP3    H257321   2.128   1.450  13.902 -0.4074  0.9016  0.0637
11944TIP3   OH257322   6.000   0.516   2.608  0.4077  0.5738  0.3623
11944TIP3    H157323   6.028   0.576   2.539  0.2422 -0.8433 -0.9862
11944TIP3    H257324   6.076   0.459   2.622 -0.5002 -0.9196 -0.6619
11945TIP3   OH257325   4.086   6.770  16.582  0.3316  0.1387 -0.3166
11945TIP3    H157326   4.084   6.756  16.487  1.1069  0.1228 -0.3300
11945TIP3    H257327   4.168   6.731  16.610 -0.1961 -0.4154  0.4525
11946TIP3   OH257328   5.909   1.200  12.045  0.1291 -0.2136 -0.0685
11946TIP3    H157329   5.948   1.247  11.971 -1.4881  0.2427 -0.6635
11946TIP3    H257330   5.853   1.134  12.004  0.5791 -1.1128  0.7612
11947TIP3   OH257331   1.017   1.490   3.629  0.2300  0.2878 -0.0692
11947TIP3    H157332   1.059   1.484   3.714  0.6202 -1.2412 -0.3575
11947TIP3    H257333   0.996   1.583   3.619  2.0504  0.8006  0.7728
11948TIP3   OH257334   2.703   5.398   4.119 -0.1037  0.1884 -0.6007
11948TIP3    H157335   2.732   5.460   4.186  0.9875 -0.9722  0.0143
11948TIP3    H257336   2.744   5.430   4.038  1.7438 -0.6039 -0.0066
11949TIP3   OH257337   6.277   3.218  13.055 -0.2907 -0.1497 -0.1936
11949TIP3    H157338   6.219   3.257  12.990 -1.4012  0.0739  0.9156
11949TIP3    H257339   6.281   3.126  13.031 -1.3994 -0.2361 -0.0809
11950TIP3   OH257340   1.443   6.640   3.580 -0.1460  0.3422  0.0045
11950TIP3    H157341   1.442   6.591   3.498 -0.4661 -2.0495  1.3889
11950TIP3    H257342   1.351   6.659   3.598 -0.0565  1.0731 -0.3162
11951TIP3   OH257343   0.272   6.154  12.620 -0.3079 -0.5882 -0.3779
11951TIP3    H157344   0.216   6.110  12.684 -0.0689  1.8081  1.5468
11951TIP3    H257345   0.238   6.244  12.616  0.8103 -0.2181 -2.2777
11952TIP3   OH257346   3.535   1.224  13.745  0.2236 -0.1392 -0.3124
11952TIP3    H157347   3.599   1.281  13.701 -0.5623  0.7815 -0.2647
11952TIP3    H257348   3.575   1.137  13.742  2.8037  0.8696  2.2129
11953TIP3   OH257349   3.609   2.633   1.784 -0.0271  0.3405 -0.0443
11953TIP3    H157350   3.577   2.545   1.804 -1.3584  0.8219 -0.0062
11953TIP3    H257351   3.617   2.635   1.688  1.7673 -0.4055  0.0698
11954TIP3   OH257352   1.657   0.775   2.641  0.3394  0.1162 -0.4498
11954TIP3    H157353   1.607   0.827   2.579 -0.6650  0.6212  0.7723
11954TIP3    H257354   1.639   0.684   2.617 -1.6901  0.2859  0.3804
11955TIP3   OH257355   0.504   0.720   4.466 -0.4340  0.0726 -0.0070
11955TIP3    H157356   0.599   0.721   4.456 -0.3324  0.4327  0.9360
11955TIP3    H257357   0.473   0.796   4.417 -0.1081  0.7782  0.8692
11956TIP3   OH257358   5.482   2.780  15.505 -0.4359  0.4325  0.1722
11956TIP3    H157359   5.388   2.796  15.507 -0.5299 -0.1336  0.4340
11956TIP3    H257360   5.498   2.726  15.583  0.2571  1.3707  0.6904
11957TIP3   OH257361   3.801   2.943  12.268 -0.0831 -0.2196 -0.2933
11957TIP3    H157362   3.819   2.849  12.277 -0.1135 -0.2058 -0.0775
11957TIP3    H257363   3.705   2.949  12.263 -0.1092 -0.1541  0.2521
11958TIP3   OH257364   0.201   4.746  13.851 -0.0678  0.3844  0.2202
11958TIP3    H157365   0.179   4.663  13.892 -0.8432 -0.3034 -1.5693
11958TIP3    H257366   0.167   4.812  13.911 -1.4070 -0.6150  0.5734
11959TIP3   OH257367   0.012   0.188   0.921 -0.2444 -0.2663  0.4328
11959TIP3    H157368  -0.026   0.271   0.949  0.9732  0.8770 -1.1971
11959TIP3    H257369   0.064   0.210   0.844 -0.3467 -2.6384 -0.3715
11960TIP3   OH257370   0.849   2.253   2.238 -0.2085  0.3306  0.7999
11960TIP3    H157371   0.813   2.180   2.289  0.8481  0.4583  1.7519
11960TIP3    H257372   0.782   2.271   2.172 -1.1279 -0.5481  1.4654
11961TIP3   OH257373   5.582   4.611  16.038 -0.0999  0.1598 -0.2013
11961TIP3    H157374   5.638   4.660  16.099  0.6607 -0.0062 -0.7487
11961TIP3    H257375   5.515   4.571  16.093 -0.2063  1.0978  0.3594
11962TIP3   OH257376   6.258   2.126   4.367  0.0508 -0.1062 -0.1816
11962TIP3    H157377   6.317   2.195   4.397 -2.0709  1.8970 -0.4706
11962TIP3    H257378   6.298   2.045   4.399  3.1622  1.1181 -0.7538
11963TIP3   OH257379   6.415   6.791   2.067  0.1485 -0.3751 -0.1321
11963TIP3    H157380   6.450   6.881   2.062  1.2743 -0.7181  1.2691
11963TIP3    H257381   6.421   6.759   1.977 -0.7056  1.1129 -0.7493
11964TIP3   OH257382   5.556   4.858  11.234 -0.0700  0.0100  0.1713
11964TIP3    H157383   5.495   4.826  11.300 -1.2466 -1.4797 -1.6028
11964TIP3    H257384   5.590   4.778  11.193  1.2633  0.8970 -0.4715
11965TIP3   OH257385   4.510   2.963   0.401 -0.0901 -0.2284  0.9160
11965TIP3    H157386   4.548   3.039   0.357 -0.3341 -0.7247 -0.1590
11965TIP3    H257387   4.584   2.906   0.420 -0.2981 -1.3003 -1.3855
11966TIP3   OH257388   5.720   2.033  12.117 -0.4992  0.2180 -0.4021
11966TIP3    H157389   5.768   1.975  12.176  0.3711 -0.1456 -1.4424
11966TIP3    H257390   5.651   1.978  12.079 -1.2767  0.5421  0.5262
11967TIP3   OH257391   2.313   5.605  12.366  0.0052 -0.5172  0.2387
11967TIP3    H157392   2.227   5.641  12.389  0.3553  0.6696 -0.3063
11967TIP3    H257393   2.324   5.627  12.273  1.0592 -0.3580  0.4030
11968TIP3   OH257394   1.632   0.107  14.589 -0.4855  0.2052 -0.9707
11968TIP3    H157395   1.635   0.137  14.680  0.0662  2.1359 -1.5917
11968TIP3    H257396   1.593   0.020  14.594  0.6529 -0.2264  1.2285
11969TIP3   OH257397   0.050   3.280   2.386  0.7184  0.0589 -0.8281
11969TIP3    H157398  -0.007   3.356   2.396 -0.3297 -0.8620  0.4887
11969TIP3    H257399  -0.011   3.206   2.377  1.6971 -0.3757 -4.5908
11970TIP3   OH257400   4.431   5.410   4.051 -0.1234  0.2134 -0.0130
11970TIP3    H157401   4.344   5.372   4.038  0.7688 -2.8641  2.5312
11970TIP3    H257402   4.479   5.389   3.972 -0.9625 -0.1668 -0.4258
11971TIP3   OH257403   3.901   2.687   1.547  0.1943  0.0253 -0.6399
11971TIP3    H157404   3.915   2.636   1.627 -0.4769  2.6187  1.2036
11971TIP3    H257405   3.824   2.646   1.506  0.0152 -0.8046  0.4859
11972TIP3   OH257406   6.194   4.321   4.527  0.2767 -0.3071 -0.5336
11972TIP3    H157407   6.148   4.310   4.611  1.7392 -1.2410  0.1721
11972TIP3    H257408   6.279   4.356   4.551  1.6271 -2.8713 -1.3716
11973TIP3   OH257409   0.840   1.386  11.049 -0.3461  0.4404  0.1675
11973TIP3    H157410   0.843   1.426  11.136 -0.3915 -0.1660  0.4474
11973TIP3    H257411   0.749   1.362  11.037 -0.5365  1.4331 -0.4667
11974TIP3   OH257412   4.205   1.490   2.768  0.5316  0.2356  0.0938
11974TIP3    H157413   4.137   1.545   2.807 -1.6166 -1.6052 -0.8884
11974TIP3    H257414   4.213   1.416   2.828  0.4793 -0.3419 -0.5976
11975TIP3   OH257415   0.998   4.320  13.229  0.3473  0.0748 -0.7010
11975TIP3    H157416   0.957   4.237  13.252  1.0082 -0.2247 -0.6059
11975TIP3    H257417   1.073   4.328  13.288  2.5615 -1.1227 -3.2680
11976TIP3   OH257418   2.936   3.401   3.173  0.1719 -0.2837  0.4123
11976TIP3    H157419   2.845   3.386   3.148 -0.1499  1.9589  0.0643
11976TIP3    H257420   2.984   3.395   3.090  0.6509 -3.4648  0.8900
11977TIP3   OH257421   4.595   0.360   2.156 -0.7845  0.5544  0.6448
11977TIP3    H157422   4.574   0.309   2.078 -1.1197  2.1340 -0.3315
11977TIP3    H257423   4.521   0.420   2.166  0.9030  2.8403  0.0208
11978TIP3   OH257424   3.229   0.057  14.368 -0.0507 -0.6859 -0.6547
11978TIP3    H157425   3.181   0.016  14.439 -0.1106  0.2773 -0.1307
11978TIP3    H257426   3.319   0.028  14.380 -0.0361 -0.4157 -0.1046
11979TIP3   OH257427   1.582   0.738   0.390 -0.7346  0.0120  0.1580
11979TIP3    H157428   1.530   0.677   0.442 -0.2771 -0.3270  0.2120
11979TIP3    H257429   1.520   0.807   0.366 -1.0987 -0.1577  0.6108
11980TIP3   OH257430   3.933   3.895   1.205  0.1217  0.1353 -0.4451
11980TIP3    H157431   3.984   3.815   1.190 -2.1878 -2.0863  2.7979
11980TIP3    H257432   3.862   3.890   1.141 -0.1655 -0.5674 -0.0792
11981TIP3   OH257433   6.213   5.878  14.517 -0.3771  0.2497  0.1368
11981TIP3    H157434   6.167   5.961  14.530 -0.4385  0.0888  0.9587
11981TIP3    H257435   6.153   5.825  14.466 -0.0514  0.9671 -1.0004
11982TIP3   OH257436   2.095   5.437   3.221 -0.7287  0.0363  0.1917
11982TIP3    H157437   2.131   5.357   3.182  1.5069  0.2774  1.6472
11982TIP3    H257438   2.162   5.503   3.206 -0.5517  0.5423  2.8729
11983TIP3   OH257439   6.367   2.878  10.761  0.0677 -0.0272  0.6665
11983TIP3    H157440   6.402   2.920  10.682  0.0913 -1.3144 -0.0208
11983TIP3    H257441   6.277   2.855  10.738 -0.1891  0.3253  1.3039
11984TIP3   OH257442   2.694   1.893   2.290 -0.0682 -0.4622 -0.1053
11984TIP3    H157443   2.690   1.889   2.195  0.0785 -1.7432 -0.0603
11984TIP3    H257444   2.778   1.935   2.309 -0.6099  0.8296 -0.5532
11985TIP3   OH257445   1.953   1.363   2.483  0.3227  0.0101  0.2239
11985TIP3    H157446   1.973   1.451   2.513 -1.2727  0.4647  0.0032
11985TIP3    H257447   1.915   1.376   2.396  2.3013 -1.0807 -0.8596
11986TIP3   OH257448   1.847   2.697  13.449  0.0195 -0.1954  0.1491
11986TIP3    H157449   1.912   2.628  13.461 -0.0610 -0.4829 -1.0032
11986TIP3    H257450   1.830   2.698  13.355 -2.6170 -1.0557  0.5519
11987TIP3   OH257451   0.733   0.172  12.679  0.3348 -0.3920  0.1866
11987TIP3    H157452   0.776   0.098  12.636  1.4614  0.3545 -0.0156
11987TIP3    H257453   0.805   0.217  12.724 -0.4922  0.0347  1.1047
11988TIP3   OH257454   1.943   6.488   3.921 -0.5350 -0.3046  0.4581
11988TIP3    H157455   1.919   6.468   4.011  0.4376  2.3613  1.3512
11988TIP3    H257456   2.039   6.488   3.922 -0.5129 -1.2428 -0.8192
11989TIP3   OH257457   3.541   3.532  10.734  0.2243 -0.6693 -0.7658
11989TIP3    H157458   3.502   3.599  10.790  0.3093 -1.5654  0.3748
11989TIP3    H257459   3.631   3.562  10.719  0.2066 -0.4424 -0.4143
11990TIP3   OH257460   0.768   4.225  10.892 -0.1358  0.5266 -0.1494
11990TIP3    H157461   0.774   4.216  10.797 -0.7303  0.1156 -0.1491
11990TIP3    H257462   0.791   4.316  10.909  0.9696  0.3350 -0.6020
11991TIP3   OH257463   3.474   0.349  16.512 -0.1952  0.4304  0.0149
11991TIP3    H157464   3.563   0.324  16.537  0.1367 -0.4438 -1.9775
11991TIP3    H257465   3.439   0.392  16.590  0.9641 -1.7546  1.7975
11992TIP3   OH257466   3.154   2.422   4.713  0.0883 -0.1714  0.4850
11992TIP3    H157467   3.180   2.344   4.665 -0.0563  0.5636 -0.8197
11992TIP3    H257468   3.059   2.416   4.721 -0.1976  1.0542 -1.7614
11993TIP3   OH257469   0.517   0.751   3.847 -0.5996  0.8257  0.4173
11993TIP3    H157470   0.559   0.674   3.884  0.0448 -0.5534 -2.9975
11993TIP3    H257471   0.446   0.716   3.793  0.6916  2.4344 -2.4462
11994TIP3   OH257472   0.619   4.662   4.026 -0.0686 -0.2170 -0.2239
11994TIP3    H157473   0.608   4.580   3.978  2.7449 -0.4406 -0.5789
11994TIP3    H257474   0.707   4.656   4.063 -0.5078  1.8916  1.2576
11995TIP3   OH257475   0.642   2.489   6.298 -0.0349 -0.1579 -0.1723
11995TIP3    H157476   0.591   2.463   6.221 -0.3197 -0.1972  0.0261
11995TIP3    H257477   0.702   2.556   6.265  0.4145 -0.7711 -0.6000
11996TIP3   OH257478   0.347   3.607   1.229 -0.4039  0.1976  0.6282
11996TIP3    H157479   0.315   3.663   1.300 -0.3514 -0.2548  1.0074
11996TIP3    H257480   0.364   3.523   1.270 -3.2196 -0.9860 -0.4835
11997TIP3   OH257481   4.245   4.430   4.772  0.3945  0.5608  0.4625
11997TIP3    H157482   4.238   4.336   4.789  1.5469  0.2218 -0.8715
11997TIP3    H257483   4.338   4.445   4.757  0.6125  2.3837  3.2009
11998TIP3   OH257484   3.784   6.091   2.056 -0.0885  0.4428 -0.1066
11998TIP3    H157485   3.691   6.084   2.036 -0.1484 -1.7406  0.7695
11998TIP3    H257486   3.821   6.007   2.028  1.3283  0.6852  0.9603
11999TIP3   OH257487   1.430   1.746  17.018 -0.5441 -0.4163  0.2190
11999TIP3    H157488   1.492   1.683  17.054  0.1051 -0.4753 -0.9613
11999TIP3    H257489   1.455   1.830  17.057  2.2475  0.1177 -2.5286
12000TIP3   OH257490   2.385   1.414  11.492 -0.2654  0.3555 -0.0773
12000TIP3    H157491   2.319   1.344  11.497 -0.3119  0.3330 -0.9271
12000TIP3    H257492   2.334   1.493  11.472 -0.2033  0.6172  0.7862
12001TIP3   OH257493   2.990   0.870  15.635  0.2402 -0.0963  0.3167
12001TIP3    H157494   2.950   0.876  15.722 -2.7549  0.0278 -0.9963
12001TIP3    H257495   2.992   0.777  15.616  0.3415 -0.0854  0.2741
12002TIP3   OH257496   0.914   2.518  14.019 -0.0633  0.8613  0.2706
12002TIP3    H157497   0.820   2.506  14.005  0.0870 -1.1110  0.9230
12002TIP3    H257498   0.941   2.575  13.947 -1.2322 -0.8663 -1.5947
12003TIP3   OH257499   5.084   0.747  13.953 -0.0771 -0.0810  0.1305
12003TIP3    H157500   5.104   0.659  13.984 -1.1459 -0.6147 -0.6659
12003TIP3    H257501   5.147   0.762  13.882  2.4338  1.1818  2.5507
12004TIP3   OH257502   5.111   4.476  16.360  0.1437  0.0524 -0.6035
12004TIP3    H157503   5.069   4.432  16.434  1.6240  0.2035  0.3475
12004TIP3    H257504   5.114   4.568  16.385  1.2020  0.0121 -0.5920
12005TIP3   OH257505   3.429   2.665  12.437  0.3465 -0.1909 -0.1644
12005TIP3    H157506   3.383   2.659  12.520 -1.9502 -1.0356 -1.4305
12005TIP3    H257507   3.516   2.697  12.459  0.0940 -1.3500  2.6461
12006TIP3   OH257508   5.361   2.880  13.222  0.2167  0.0380 -0.1058
12006TIP3    H157509   5.332   2.867  13.312 -1.0706  0.8469 -0.3958
12006TIP3    H257510   5.369   2.791  13.186 -0.1374 -0.2495  0.5239
12007TIP3   OH257511   4.857   4.671  14.442 -0.4841 -0.1112 -0.3910
12007TIP3    H157512   4.876   4.597  14.499 -1.5267 -0.6073 -0.6761
12007TIP3    H257513   4.873   4.638  14.354  1.3025  0.7087 -0.3874
12008TIP3   OH257514   5.753   0.638  15.114  0.1538  0.3531 -0.1578
12008TIP3    H157515   5.808   0.640  15.193  0.8666 -0.2836 -0.6348
12008TIP3    H257516   5.813   0.612  15.044 -0.0737  2.6996 -1.2515
12009TIP3   OH257517   0.423   3.698   0.137  0.3450  0.0634  0.1444
12009TIP3    H157518   0.514   3.667   0.129  0.0405 -1.0645  0.9041
12009TIP3    H257519   0.382   3.672   0.054  0.7823  0.8205 -0.3141
12010TIP3   OH257520   4.054   4.325   6.104  0.2712  0.0060 -0.3799
12010TIP3    H157521   3.964   4.297   6.123  0.2501  0.5643  0.3544
12010TIP3    H257522   4.090   4.351   6.189  1.1658 -0.3106 -0.6561
12011TIP3   OH257523   5.055   3.843   5.711  0.3333 -0.2523  0.7660
12011TIP3    H157524   5.054   3.934   5.682 -1.3036 -0.1287  1.2023
12011TIP3    H257525   5.125   3.803   5.659  0.4367  1.0243 -0.1138
12012TIP3   OH257526   4.615   1.943  12.798 -0.0754 -0.0247 -0.4531
12012TIP3    H157527   4.630   1.916  12.707 -0.9386 -0.9401 -0.3405
12012TIP3    H257528   4.681   2.010  12.815  1.5244 -1.4142 -1.0639
12013TIP3   OH257529   1.255   3.759  12.853 -0.3931 -0.5126 -0.8366
12013TIP3    H157530   1.180   3.734  12.907  0.1756 -0.2274  0.0814
12013TIP3    H257531   1.260   3.854  12.860  0.2514 -0.5587 -0.6444
12014TIP3   OH257532   2.099   3.994   1.515 -0.0837  0.7733 -0.4941
12014TIP3    H157533   2.111   4.089   1.506  1.0379  0.5814 -1.1662
12014TIP3    H257534   2.164   3.968   1.580  0.4898  0.2803 -1.2572
12015TIP3   OH257535   6.001   4.641   3.832  0.3861  0.7764 -0.5485
12015TIP3    H157536   6.084   4.597   3.820  0.4658  0.5990  0.6164
12015TIP3    H257537   5.966   4.606   3.914  0.3301  2.6518  0.2614
12016TIP3   OH257538   4.706   3.733  14.286  0.2205  0.1357 -0.3175
12016TIP3    H157539   4.768   3.692  14.226 -1.5842  0.4954 -2.4883
12016TIP3    H257540   4.666   3.659  14.332  0.3027 -0.2621 -0.8749
12017TIP3   OH257541   6.448   1.341  14.048 -0.6119  0.0495 -0.3183
12017TIP3    H157542   6.413   1.416  14.095  0.5167  0.0654  0.5104
12017TIP3    H257543   6.427   1.265  14.103 -0.1877 -0.0477 -0.2883
12018TIP3   OH257544   4.099   4.933   5.065 -0.3318  0.3036  0.2040
12018TIP3    H157545   4.147   4.899   5.140  0.3323  0.5293 -0.1147
12018TIP3    H257546   4.131   4.882   4.991 -2.1512 -1.0334  0.3002
12019TIP3   OH257547   0.789   3.796   2.717  0.5507  0.3386 -0.0946
12019TIP3    H157548   0.866   3.760   2.673 -0.1089 -0.3106 -0.7349
12019TIP3    H257549   0.728   3.817   2.646 -1.0717 -1.9934  0.5241
12020TIP3   OH257550   0.249   3.196  17.066  0.1143  0.1306  0.6733
12020TIP3    H157551   0.159   3.226  17.076 -0.0341 -0.1191  0.0941
12020TIP3    H257552   0.298   3.274  17.040 -0.0275  0.1600  0.4966
12021TIP3   OH257553   0.954   4.729   2.819 -0.1198  0.5138  0.2032
12021TIP3    H157554   0.996   4.678   2.749 -0.1146  1.7559 -0.7291
12021TIP3    H257555   1.021   4.739   2.886 -0.0397 -0.4696  0.2691
12022TIP3   OH257556   0.452   2.926   5.475  0.1322  0.3862 -0.2939
12022TIP3    H157557   0.479   2.986   5.545  0.5333 -1.3152  1.0596
12022TIP3    H257558   0.368   2.891   5.504  1.0410 -1.5320  0.1711
12023TIP3   OH257559   4.008   4.359  14.593  0.5695 -0.3510 -0.0095
12023TIP3    H157560   3.952   4.419  14.544  0.7309  0.2230  0.5137
12023TIP3    H257561   3.953   4.328  14.665  1.2642  1.0560  1.1435
12024TIP3   OH257562   4.564   0.335  16.142  0.1187  0.7684  0.1342
12024TIP3    H157563   4.508   0.358  16.068 -0.5421 -1.7048 -0.1880
12024TIP3    H257564   4.653   0.343  16.108 -0.1670  0.1068 -0.8116
12025TIP3   OH257565   4.309   6.532   1.631 -0.3188 -0.6901 -0.1104
12025TIP3    H157566   4.297   6.559   1.722  1.2694 -0.7129  0.1072
12025TIP3    H257567   4.233   6.570   1.585  0.0029  1.1567  0.8317
12026TIP3   OH257568   0.552   5.622   3.402  0.5197  0.1895  0.4648
12026TIP3    H157569   0.609   5.659   3.335 -0.0819  0.2551 -0.0073
12026TIP3    H257570   0.552   5.687   3.472  3.5628 -1.2142  1.8591
12027TIP3   OH257571   4.563   4.563  14.678 -0.4357  0.2585 -0.1592
12027TIP3    H157572   4.521   4.542  14.761  0.7873 -1.3098  0.0845
12027TIP3    H257573   4.506   4.524  14.612  0.2136 -1.1701  0.1211
12028TIP3   OH257574   5.755   5.259   2.191 -0.8102 -0.0723 -0.1148
12028TIP3    H157575   5.792   5.207   2.120  0.3312  0.6639 -0.0761
12028TIP3    H257576   5.789   5.347   2.176  0.1872 -0.0986  1.8746
12029TIP3   OH257577   2.379   5.339   0.976  0.1960 -0.3004  0.1127
12029TIP3    H157578   2.319   5.408   1.005  1.1300  1.1484 -1.2451
12029TIP3    H257579   2.441   5.329   1.048  0.0996  0.3411  0.2889
12030TIP3   OH257580   3.241   1.877  17.035 -0.5879  0.0333 -0.1918
12030TIP3    H157581   3.332   1.854  17.056 -0.2880 -0.0771 -1.5638
12030TIP3    H257582   3.246   1.967  17.003 -1.0165  0.1599  0.1029
12031TIP3   OH257583   1.499   3.188   1.880  0.0056 -0.1550 -0.3554
12031TIP3    H157584   1.585   3.171   1.919 -0.3248  1.7950  1.3433
12031TIP3    H257585   1.518   3.202   1.787  1.3679 -0.8946 -0.2083
12032TIP3   OH257586   3.866   5.281  11.669 -0.2038  0.6053 -0.3897
12032TIP3    H157587   3.906   5.221  11.606  0.4359  0.7891 -0.1543
12032TIP3    H257588   3.847   5.360  11.618  0.5772  0.8612 -0.2811
12033TIP3   OH257589   1.649   5.778  15.384  0.0330  0.4417  0.1358
12033TIP3    H157590   1.653   5.844  15.453  0.0639  0.9871 -0.3815
12033TIP3    H257591   1.604   5.704  15.424  0.1558  0.7081  0.7762
12034TIP3   OH257592   4.877   4.449  14.622 -0.7775 -0.1186 -0.0470
12034TIP3    H157593   4.966   4.416  14.635 -1.2676 -1.6748 -0.5684
12034TIP3    H257594   4.829   4.420  14.699 -1.0977 -0.2041 -0.2791
12035TIP3   OH257595   4.296   4.243  15.191 -0.0509  0.1104 -0.0260
12035TIP3    H157596   4.328   4.279  15.108  0.4157  1.1931  0.6144
12035TIP3    H257597   4.205   4.271  15.195 -0.3104 -0.6408 -0.5558
12036TIP3   OH257598   5.356   6.558  16.257 -0.8580 -0.9581  0.3672
12036TIP3    H157599   5.329   6.583  16.168  0.4205 -1.6795 -0.2353
12036TIP3    H257600   5.281   6.508  16.290 -0.7523 -1.9769 -0.8797
12037TIP3   OH257601   1.131   6.746  14.313  0.1656 -0.4370 -0.6363
12037TIP3    H157602   1.079   6.674  14.349  0.4217 -0.3129 -0.0172
12037TIP3    H257603   1.084   6.825  14.341 -0.1801 -0.3616 -1.4147
12038TIP3   OH257604   6.426   3.821   3.492 -0.1017 -0.7775 -0.4447
12038TIP3    H157605   6.405   3.905   3.451  0.2108 -0.2616  0.4518
12038TIP3    H257606   6.341   3.779   3.505 -0.3551 -0.0328  0.3113
12039TIP3   OH257607   5.292   6.604   6.554  0.3143 -0.6306 -0.0835
12039TIP3    H157608   5.324   6.515   6.568 -0.6463 -0.8998  0.4263
12039TIP3    H257609   5.197   6.596   6.556  0.2201  0.3541 -0.3917
12040TIP3   OH257610   0.446   5.235   5.116 -0.4127 -0.0913 -0.4094
12040TIP3    H157611   0.417   5.169   5.052 -1.2374  0.0615 -0.2044
12040TIP3    H257612   0.540   5.245   5.100  0.3888 -3.6111  1.6179
12041TIP3   OH257613   2.552   1.053  13.185  0.3075 -0.3257 -1.0188
12041TIP3    H157614   2.482   1.099  13.140  0.5826  0.7762 -0.3503
12041TIP3    H257615   2.591   1.119  13.242  0.7569 -1.3716 -0.0901
12042TIP3   OH257616   0.977   2.920   3.875 -0.3219 -0.0847 -0.1858
12042TIP3    H157617   1.048   2.942   3.814  1.2721  0.6646  1.8540
12042TIP3    H257618   0.985   2.986   3.945 -1.7079 -1.2654  1.1162
12043TIP3   OH257619   1.373   5.128   0.872  0.4114  0.0711  0.1118
12043TIP3    H157620   1.446   5.183   0.899  1.0025 -0.9369  0.5704
12043TIP3    H257621   1.394   5.041   0.904 -0.6578 -0.3790 -0.3588
12044TIP3   OH257622   4.888   4.348   0.872  0.1906 -0.1785 -0.1258
12044TIP3    H157623   4.800   4.373   0.901  0.5992  0.0873  0.9144
12044TIP3    H257624   4.882   4.347   0.776 -1.3073 -1.5124 -0.0426
12045TIP3   OH257625   5.237   3.559   1.269 -0.8898  0.1916 -0.2894
12045TIP3    H157626   5.237   3.569   1.174 -1.3720 -0.7088 -0.3917
12045TIP3    H257627   5.280   3.638   1.302 -0.7670  0.5287 -1.2511
12046TIP3   OH257628   1.058   3.074  13.732 -0.7583 -0.1160  0.6719
12046TIP3    H157629   1.030   3.163  13.754 -0.0075 -0.2709  2.3371
12046TIP3    H257630   1.012   3.018  13.796 -0.3824 -0.8151  0.3380
12047TIP3   OH257631   5.723   5.304  13.279  0.1742  0.0959 -0.0088
12047TIP3    H157632   5.787   5.373  13.259 -0.1050  0.5281  0.5611
12047TIP3    H257633   5.763   5.224  13.245  0.1681  0.6432 -1.3386
12048TIP3   OH257634   1.129   0.596  13.608  1.0339  0.2906  0.0740
12048TIP3    H157635   1.064   0.563  13.670 -0.3281  1.0727 -0.9258
12048TIP3    H257636   1.124   0.536  13.534  1.3121  0.4677 -0.0889
12049TIP3   OH257637   5.660   0.141  16.707 -0.1679  0.1701  0.1633
12049TIP3    H157638   5.683   0.218  16.655  1.3312 -1.0295 -0.9997
12049TIP3    H257639   5.596   0.094  16.653 -2.3568  1.4143  1.6035
12050TIP3   OH257640   1.100   6.065   6.845  0.4323  0.4755 -0.0243
12050TIP3    H157641   1.158   6.032   6.914 -0.9909 -0.9597  0.4947
12050TIP3    H257642   1.111   6.004   6.773 -0.2570  0.3502 -0.0204
12051TIP3   OH257643   3.553   3.850   2.287 -0.7103 -0.6483  0.2382
12051TIP3    H157644   3.527   3.916   2.351  0.0577 -1.5362  1.5039
12051TIP3    H257645   3.635   3.882   2.251 -0.2665 -0.9731  0.9522
12052TIP3   OH257646   6.198   0.554   5.279 -0.2482  0.2527  0.1666
12052TIP3    H157647   6.237   0.471   5.308  0.4913  0.1112 -1.1706
12052TIP3    H257648   6.193   0.546   5.183  0.2029  1.9164 -0.0148
12053TIP3   OH257649   6.473   2.114   1.095 -0.7672 -0.1233 -0.4406
12053TIP3    H157650   6.492   2.175   1.023 -0.9259 -0.1290 -0.4872
12053TIP3    H257651   6.467   2.170   1.172  0.3471 -0.2192 -0.2656
12054TIP3   OH257652   4.851   6.220  15.935  0.0536  0.0355 -0.1716
12054TIP3    H157653   4.770   6.175  15.909 -0.9307  1.1402  0.8791
12054TIP3    H257654   4.920   6.155  15.923 -0.7547 -0.4107 -2.6605
12055TIP3   OH257655   3.484   4.827   4.935 -0.4616  0.2120  0.0144
12055TIP3    H157656   3.480   4.864   4.847  0.6361 -0.5229 -0.3475
12055TIP3    H257657   3.539   4.888   4.984  2.8431 -1.7946 -1.0428
12056TIP3   OH257658   2.934   5.201   2.798  0.8425 -0.4159 -0.2256
12056TIP3    H157659   2.991   5.126   2.815  2.5334  0.7236 -0.7678
12056TIP3    H257660   2.972   5.273   2.849 -1.5758 -0.2448  1.4018
12057TIP3   OH257661   5.231   1.571   0.369 -0.1417  0.6133  0.2609
12057TIP3    H157662   5.223   1.667   0.373 -2.8211  0.4861 -0.8658
12057TIP3    H257663   5.150   1.539   0.408 -0.6866 -1.1132 -2.1670
12058TIP3   OH257664   1.227   4.189   1.588  0.2661 -0.1267 -0.2471
12058TIP3    H157665   1.232   4.200   1.493 -1.3072  1.3018 -0.1718
12058TIP3    H257666   1.283   4.259   1.623 -0.0085  0.0089 -0.0831
12059TIP3   OH257667   2.896   5.627   4.210  0.2100  0.7508  0.2191
12059TIP3    H157668   2.945   5.587   4.138 -0.2616  0.1114  0.2490
12059TIP3    H257669   2.896   5.721   4.190 -0.9246  0.4513 -1.2285
12060TIP3   OH257670   2.256   5.280  12.493 -0.6706 -0.6968 -0.1924
12060TIP3    H157671   2.217   5.302  12.408 -2.2917 -0.8384  0.4831
12060TIP3    H257672   2.323   5.215  12.473  0.2844  0.6760 -1.5742
12061TIP3   OH257673   5.955   1.982  17.157 -0.3810  0.4268  0.0361
12061TIP3    H157674   5.906   1.921  17.103 -0.6487 -0.7679  1.5945
12061TIP3    H257675   5.889   2.025  17.211 -0.0309  0.9511  0.0525
12062TIP3   OH257676   4.239   0.918   5.642  0.0141  0.3699  0.4745
12062TIP3    H157677   4.320   0.954   5.607  0.7733  2.0869  3.8625
12062TIP3    H257678   4.184   0.994   5.660 -1.1412 -0.5914  1.0935
12063TIP3   OH257679   4.775   0.382  16.984 -0.2199  0.2446  0.1510
12063TIP3    H157680   4.857   0.396  16.936  0.0182 -0.4853  0.3441
12063TIP3    H257681   4.729   0.466  16.978  0.7829  0.8198  0.5070
12064TIP3   OH257682   3.547   4.341   1.917  0.6082  0.0100 -0.3874
12064TIP3    H157683   3.532   4.257   1.960 -0.8224 -0.0960 -1.0674
12064TIP3    H257684   3.495   4.337   1.837  0.2726  1.6692 -0.2685
12065TIP3   OH257685   3.210   3.579  12.567 -0.0776  0.3351  0.6999
12065TIP3    H157686   3.195   3.649  12.631 -1.5594 -0.7765  1.6107
12065TIP3    H257687   3.281   3.611  12.511  1.1553  1.3892  2.8190
12066TIP3   OH257688   3.972   2.210   4.495 -0.2651  0.1833 -0.0814
12066TIP3    H157689   4.058   2.252   4.490 -0.0138 -0.3807 -0.6212
12066TIP3    H257690   3.943   2.223   4.585  0.6330 -0.1099  0.2517
12067TIP3   OH257691   4.671   3.192   2.335 -0.4735  0.0893 -0.3381
12067TIP3    H157692   4.616   3.187   2.257 -1.5583 -0.6183  0.4351
12067TIP3    H257693   4.625   3.138   2.399 -0.2175  1.6057  1.1622
12068TIP3   OH257694   5.538   4.836  16.648 -0.1674 -0.4909  0.5075
12068TIP3    H157695   5.543   4.906  16.714  0.2259  0.0391 -0.0777
12068TIP3    H257696   5.620   4.788  16.658 -0.6299 -1.1433  1.2070
12069TIP3   OH257697   2.353   0.588   3.310 -0.7344 -0.4420 -0.1920
12069TIP3    H157698   2.371   0.645   3.235 -1.4027 -1.3160 -1.0256
12069TIP3    H257699   2.429   0.530   3.315 -0.8256 -0.5759 -0.3718
12070TIP3   OH257700   2.146   0.507   2.457  0.5309  0.1624 -0.1695
12070TIP3    H157701   2.181   0.483   2.372  0.5081 -1.1796  0.1886
12070TIP3    H257702   2.067   0.558   2.437  1.0183  0.6170 -0.9447
12071TIP3   OH257703   6.669   4.887   1.960 -0.8551 -0.1301 -0.9793
12071TIP3    H157704   6.587   4.912   2.001 -0.4777 -0.8582  0.2428
12071TIP3    H257705   6.658   4.795   1.936 -0.3427 -0.2696 -0.6856
12072TIP3   OH257706   0.860   6.691  16.183  0.0390 -0.0436  0.2736
12072TIP3    H157707   0.824   6.771  16.146  1.0724  0.2270 -0.1771
12072TIP3    H257708   0.892   6.642  16.108 -0.5050 -0.8466  0.5553
12073TIP3   OH257709   3.448   5.741  11.896 -0.3809 -0.3116 -0.2081
12073TIP3    H157710   3.469   5.824  11.939  1.1617 -0.1651 -1.1868
12073TIP3    H257711   3.482   5.674  11.955 -1.1920 -0.2375  0.3507
12074TIP3   OH257712   2.931   6.154   5.155 -0.2332 -0.3297 -0.2901
12074TIP3    H157713   2.993   6.164   5.083 -0.6131 -1.4795 -0.7863
12074TIP3    H257714   2.984   6.119   5.227  0.0180  0.2352 -0.1938
12075TIP3   OH257715   5.209   1.053   2.642  0.3031 -0.4336  0.0999
12075TIP3    H157716   5.147   1.059   2.714  0.7735 -0.0094  0.4803
12075TIP3    H257717   5.200   1.136   2.594  4.0973  1.9219  3.1108
12076TIP3   OH257718   5.767   2.556  17.187  0.1291 -0.1688 -0.3336
12076TIP3    H157719   5.804   2.517  17.266  0.3536  0.3234 -0.1907
12076TIP3    H257720   5.809   2.642  17.181 -0.1302 -0.0730 -0.8084
12077TIP3   OH257721   2.857   5.801   2.926 -0.3182  0.0226 -0.3635
12077TIP3    H157722   2.940   5.795   2.878  1.1865 -1.1019  2.2447
12077TIP3    H257723   2.836   5.894   2.927  1.4005  0.4346 -0.3238
12078TIP3   OH257724   5.171   6.597   2.061  0.0456 -0.3064  0.2940
12078TIP3    H157725   5.258   6.636   2.070  0.2294 -0.1524 -1.8207
12078TIP3    H257726   5.188   6.511   2.023 -0.7903  0.3079 -1.5392
12079TIP3   OH257727   5.927   6.670   4.962 -0.4301  0.1921  0.2911
12079TIP3    H157728   5.907   6.702   5.050  2.1044 -1.2175  1.4200
12079TIP3    H257729   5.863   6.600   4.947 -0.3879 -0.0879  1.3516
12080TIP3   OH257730   0.651   4.667  14.774 -0.6619  0.1407 -0.0283
12080TIP3    H157731   0.639   4.688  14.682 -3.0449  0.7967  0.3940
12080TIP3    H257732   0.602   4.585  14.787 -1.3170  0.6626  0.8839
12081TIP3   OH257733   6.016   1.745   5.179  0.5157 -0.3097  0.1760
12081TIP3    H157734   6.024   1.681   5.251 -0.8173 -2.0935 -1.2091
12081TIP3    H257735   6.032   1.693   5.100  0.6366  1.3651 -0.9154
12082TIP3   OH257736   1.525   1.483  13.655  0.2475  0.4103  0.0402
12082TIP3    H157737   1.620   1.492  13.647  0.4373 -0.1596  1.3653
12082TIP3    H257738   1.505   1.514  13.744 -0.2810 -2.8899  1.1758
12083TIP3   OH257739   3.653   3.019  14.434 -0.2937  0.1608 -0.4412
12083TIP3    H157740   3.569   2.996  14.474 -1.1815  1.7222 -1.3456
12083TIP3    H257741   3.646   2.990  14.344 -0.6637  2.0578 -1.0577
12084TIP3   OH257742   5.122   6.784   6.743 -0.2395  0.8213  0.0589
12084TIP3    H157743   5.206   6.750   6.711 -2.3886 -1.2381 -3.7097
12084TIP3    H257744   5.113   6.870   6.702 -1.2857 -0.2365 -1.9992
12085TIP3   OH257745   0.581   1.626  10.738  0.1166  0.0202 -0.4876
12085TIP3    H157746   0.628   1.614  10.820  1.1381  1.9981 -0.7446
12085TIP3    H257747   0.489   1.633  10.763  0.0900 -2.4391  0.1674
12086TIP3   OH257748   4.865   3.557  12.276 -0.1063 -0.5072  0.8105
12086TIP3    H157749   4.944   3.536  12.226 -0.8362 -1.2543 -0.0344
12086TIP3    H257750   4.876   3.649  12.300 -0.0208  0.0204 -1.2049
12087TIP3   OH257751   3.066   3.256   5.336 -0.5169 -0.1659 -0.0373
12087TIP3    H157752   3.005   3.218   5.272 -0.7089  2.3908 -1.4651
12087TIP3    H257753   3.147   3.206   5.325 -1.2946 -1.3146 -0.5986
12088TIP3   OH257754   3.349   3.176  16.904 -0.4321 -0.1267  0.0098
12088TIP3    H157755   3.359   3.081  16.905 -1.6749 -0.2647  1.5179
12088TIP3    H257756   3.437   3.209  16.883  0.3168 -1.5754  0.7863
12089TIP3   OH257757   3.531   6.567  15.010 -0.2237 -0.2525 -0.1377
12089TIP3    H157758   3.598   6.605  14.954  0.4882 -0.3938  0.6189
12089TIP3    H257759   3.526   6.475  14.981 -1.6996  0.2886 -1.7250
12090TIP3   OH257760   4.893   6.215  13.039 -0.1739  0.0775  0.4997
12090TIP3    H157761   4.843   6.136  13.019  0.1719 -0.0294  0.0667
12090TIP3    H257762   4.985   6.190  13.026 -0.0454  0.4661  0.6479
12091TIP3   OH257763   0.955   0.420  15.486  0.9428 -0.1119  0.1476
12091TIP3    H157764   0.994   0.507  15.484  1.1692 -0.2043  0.6486
12091TIP3    H257765   0.919   0.411  15.574  1.1479 -0.6251  0.1791
12092TIP3   OH257766   0.243   4.327   2.474  0.0141  1.0013  0.0589
12092TIP3    H157767   0.150   4.349   2.471 -0.3917 -0.7940 -0.5581
12092TIP3    H257768   0.251   4.265   2.547  0.6623  0.8506 -0.1370
12093TIP3   OH257769   5.683   0.886   6.282 -0.4732  0.1652 -0.7833
12093TIP3    H157770   5.694   0.793   6.299 -0.5257  0.0404 -1.4353
12093TIP3    H257771   5.637   0.919   6.359  2.2398  0.2316  0.8923
12094TIP3   OH257772   1.827   1.424   0.174 -0.2508 -0.0468 -0.0182
12094TIP3    H157773   1.815   1.370   0.253 -0.9793  1.5610  1.0070
12094TIP3    H257774   1.887   1.373   0.119 -1.7512 -2.3837  0.4347
12095TIP3   OH257775   4.125   1.122   3.990 -0.4595  0.1624  0.1508
12095TIP3    H157776   4.198   1.078   3.947 -1.7105 -0.9603 -0.8711
12095TIP3    H257777   4.049   1.068   3.969 -2.0662  2.8993 -1.2626
12096TIP3   OH257778   2.835   4.343  16.705 -0.3416  0.4270 -0.7156
12096TIP3    H157779   2.740   4.346  16.697 -0.3659 -0.1205 -0.6373
12096TIP3    H257780   2.852   4.275  16.770  0.1022  0.5010 -0.7543
12097TIP3   OH257781   5.167   0.781  15.541 -0.6592 -0.0271  0.0857
12097TIP3    H157782   5.254   0.786  15.582 -0.7779  1.6218  0.1469
12097TIP3    H257783   5.138   0.872  15.535 -1.6632 -0.4495 -1.5111
12098TIP3   OH257784   6.745   1.795   3.583 -0.0371  0.0219  0.4004
12098TIP3    H157785   6.664   1.757   3.549 -0.5616  0.6359  0.9393
12098TIP3    H257786   6.745   1.885   3.548 -0.2319  0.4351  1.4479
12099TIP3   OH257787   6.567   4.245   4.410 -0.0581 -0.0851 -0.2908
12099TIP3    H157788   6.499   4.177   4.408 -1.3231  1.1507 -0.4463
12099TIP3    H257789   6.545   4.299   4.486  1.9660 -0.8548  0.8841
12100TIP3   OH257790   3.698   0.251   5.127 -0.3271 -0.2498  0.6966
12100TIP3    H157791   3.771   0.301   5.092  0.1054  0.8078  3.0335
12100TIP3    H257792   3.620   0.302   5.103 -0.2856 -1.1016 -1.3208
12101TIP3   OH257793   3.213   3.782  12.740 -0.0476  0.2925 -0.4097
12101TIP3    H157794   3.296   3.828  12.729  0.0922  0.0490 -0.3845
12101TIP3    H257795   3.146   3.849  12.725  0.1571  0.6530  0.2938
12102TIP3   OH257796   1.049   0.210   2.124 -0.6141  0.0892  0.0054
12102TIP3    H157797   1.059   0.293   2.172  1.1141 -0.3073  0.3606
12102TIP3    H257798   0.987   0.160   2.177 -0.1245  0.3798  0.8829
12103TIP3   OH257799   6.726   5.374   4.712 -0.2473  0.5034 -0.2609
12103TIP3    H157800   6.734   5.469   4.706 -0.7659  0.5967  0.4766
12103TIP3    H257801   6.725   5.344   4.621 -1.2617  1.3026 -0.5178
12104TIP3   OH257802   2.147   2.027   5.096  0.0093  0.0140  0.1677
12104TIP3    H157803   2.237   1.997   5.110  0.2669 -0.0319 -1.5152
12104TIP3    H257804   2.097   1.946   5.088  0.3271  0.0199 -2.0173
12105TIP3   OH257805   1.443   5.794  13.982 -0.0829  0.2173  0.1578
12105TIP3    H157806   1.399   5.879  13.979  1.9590  1.2858 -0.7859
12105TIP3    H257807   1.394   5.739  13.921 -2.1874  0.3073  1.7178
12106TIP3   OH257808   3.472   4.520   0.238  0.0929 -0.0186 -0.3779
12106TIP3    H157809   3.519   4.460   0.296  0.0272 -0.3962 -0.7039
12106TIP3    H257810   3.383   4.484   0.234 -1.0879  2.4069  2.6438
12107TIP3   OH257811   2.834   3.729  15.875  0.0675 -0.1456 -0.2112
12107TIP3    H157812   2.766   3.675  15.834 -1.8416  1.0565  1.2550
12107TIP3    H257813   2.890   3.667  15.921 -0.6864 -1.0905 -0.5444
12108TIP3   OH257814   2.796   5.863  14.069 -0.3267  0.3453 -0.2252
12108TIP3    H157815   2.874   5.809  14.084 -1.0859 -0.2721  1.6359
12108TIP3    H257816   2.743   5.812  14.009  0.0228  0.0768 -0.3081
12109TIP3   OH257817   3.502   6.101  15.652  0.1178 -0.2926 -0.7610
12109TIP3    H157818   3.460   6.175  15.608 -0.7221  0.5983  1.4672
12109TIP3    H257819   3.589   6.133  15.675  0.4435 -0.6514 -1.4784
12110TIP3   OH257820   2.065   5.593   4.018 -0.0808  0.3246  0.4978
12110TIP3    H157821   2.107   5.530   3.960  0.6758  0.5239  0.8229
12110TIP3    H257822   1.976   5.559   4.031 -0.2777  0.3231 -0.8310
12111TIP3   OH257823   0.768   6.455   3.981  0.5304 -0.5576 -0.1166
12111TIP3    H157824   0.825   6.519   4.023  2.0173 -1.3445 -0.9230
12111TIP3    H257825   0.705   6.431   4.049  1.1365  0.3399  0.7684
12112TIP3   OH257826   6.375   6.083   3.662  0.3595 -0.5652  0.1551
12112TIP3    H157827   6.342   6.046   3.745  0.8684 -1.3181  0.0324
12112TIP3    H257828   6.446   6.024   3.637  0.3859 -0.1782 -0.6822
12113TIP3   OH257829   3.080   5.213   2.517 -0.2296  0.1799 -0.5612
12113TIP3    H157830   3.014   5.243   2.580  0.2859  2.9673 -1.2954
12113TIP3    H257831   3.153   5.184   2.571 -1.0689 -0.5995  0.1869
12114TIP3   OH257832   1.151   2.633  16.114  0.7921  0.0943 -0.0165
12114TIP3    H157833   1.205   2.555  16.121 -0.5861 -0.7625  1.5810
12114TIP3    H257834   1.061   2.601  16.129  0.0504  1.7368 -0.8308
12115TIP3   OH257835   6.443   2.967   4.704  0.5210 -0.5483  0.2666
12115TIP3    H157836   6.378   2.972   4.774  1.0322  0.5930  0.6641
12115TIP3    H257837   6.430   2.880   4.666 -0.6661 -0.6543  0.8910
12116TIP3   OH257838   2.804   4.494  16.150  1.4311  0.2921 -0.4148
12116TIP3    H157839   2.795   4.408  16.109 -2.7162  0.7418 -0.7186
12116TIP3    H257840   2.812   4.475  16.244 -3.3060 -0.4919 -0.0283
12117TIP3   OH257841   2.584   5.228  16.054  0.0457  0.2888  0.2769
12117TIP3    H157842   2.533   5.308  16.042 -0.6021 -0.1043  0.4041
12117TIP3    H257843   2.529   5.158  16.017  1.9635  0.3155 -2.8264
12118TIP3   OH257844   3.984   3.333  10.856  0.1340 -0.2541 -0.5875
12118TIP3    H157845   3.911   3.393  10.841  1.1381  0.9937 -0.5852
12118TIP3    H257846   3.946   3.261  10.907 -1.2086  0.0913 -1.0746
12119TIP3   OH257847   2.486   4.601  16.826  0.3260  0.4925 -0.5125
12119TIP3    H157848   2.463   4.523  16.878  0.6056 -0.9850 -2.5543
12119TIP3    H257849   2.579   4.612  16.841  0.3898  0.1197 -0.6181
12120TIP3   OH257850   5.858   1.018   5.204  0.0266 -0.4839 -0.5431
12120TIP3    H157851   5.942   1.026   5.159  0.6671  0.5691  0.8028
12120TIP3    H257852   5.828   0.930   5.183  0.1827  0.0512 -3.2143
12121TIP3   OH257853   6.259   1.260   5.001 -0.4546 -0.7185  0.2368
12121TIP3    H157854   6.260   1.340   4.947 -0.8592 -1.1654 -0.4414
12121TIP3    H257855   6.350   1.231   5.001 -0.6201 -1.2581 -1.0311
12122TIP3   OH257856   6.598   5.719  17.253  0.0058 -0.0543  0.1799
12122TIP3    H157857   6.590   5.642  17.196  1.3681 -0.2381  0.2074
12122TIP3    H257858   6.680   5.705  17.300 -0.7918  0.4048  1.7438
12123TIP3   OH257859   2.507   4.768   5.474  0.5449  0.0578  0.2033
12123TIP3    H157860   2.553   4.783   5.391  1.2821  0.5671  0.6988
12123TIP3    H257861   2.415   4.782   5.452  0.7602  0.4946 -0.4722
12124TIP3   OH257862   0.002   2.590   6.148  0.0324  0.7265 -0.7000
12124TIP3    H157863  -0.074   2.641   6.175  0.0227  1.0763 -1.3822
12124TIP3    H257864  -0.027   2.540   6.073 -0.4293 -1.5686  0.9694
12125TIP3   OH257865   0.893   3.625  16.306 -0.2727  0.2992 -0.2905
12125TIP3    H157866   0.906   3.707  16.355  1.8142  0.9589 -1.9119
12125TIP3    H257867   0.895   3.557  16.373 -1.1408  1.4765  0.9747
12126TIP3   OH257868   2.126   6.260   6.100 -0.3989  0.3310  0.1974
12126TIP3    H157869   2.121   6.230   6.191 -2.6153  0.4485  0.1356
12126TIP3    H257870   2.039   6.296   6.082  0.1292  0.6221 -1.8679
12127TIP3   OH257871   4.265   5.609  13.249 -0.1365 -0.0287 -0.1771
12127TIP3    H157872   4.331   5.552  13.209 -2.1831 -1.2414 -1.9863
12127TIP3    H257873   4.302   5.697  13.243  2.9877 -1.0571  2.4223
12128TIP3   OH257874   6.765   1.266  16.528 -0.4528  0.0657 -0.0244
12128TIP3    H157875   6.843   1.269  16.473  0.3835  0.0852  1.1512
12128TIP3    H257876   6.743   1.357  16.545 -0.6434  0.0574 -0.2124
12129TIP3   OH257877   2.254   5.652   3.205  0.4591  0.3084  0.7676
12129TIP3    H157878   2.336   5.701   3.194 -0.0535  0.9438 -0.2991
12129TIP3    H257879   2.186   5.719   3.204 -0.2456 -0.4146 -0.5967
12130TIP3   OH257880   6.497   2.608   2.174 -0.0826  0.0854  0.3024
12130TIP3    H157881   6.415   2.639   2.213  0.5053 -0.1736  1.7596
12130TIP3    H257882   6.546   2.570   2.247  1.1741 -0.1142 -0.6268
12131TIP3   OH257883   1.318   5.358   0.588 -0.7042 -0.1914 -0.3031
12131TIP3    H157884   1.311   5.454   0.582  1.7518  0.1139  1.1496
12131TIP3    H257885   1.350   5.343   0.677  0.8593 -2.2520 -1.1891
12132TIP3   OH257886   5.135   3.081  12.593  0.2300 -0.1897 -0.7669
12132TIP3    H157887   5.157   3.126  12.512  2.5248 -0.5199 -0.3591
12132TIP3    H257888   5.218   3.045  12.624 -0.9404 -1.6399  0.7707
12133TIP3   OH257889   2.111   0.957  11.688  0.6928  0.2524  0.1616
12133TIP3    H157890   2.188   0.932  11.738  0.0306 -1.1888  0.4960
12133TIP3    H257891   2.139   0.952  11.597  1.3312  0.9239  0.3140
12134TIP3   OH257892   1.822   6.672   1.281 -0.8868  0.1921 -0.3608
12134TIP3    H157893   1.810   6.666   1.376 -0.8632 -1.9489 -0.4601
12134TIP3    H257894   1.751   6.729   1.251 -1.0702  0.6385  0.9073
12135TIP3   OH257895   0.437   6.187  12.080  0.2841 -0.0906 -0.1930
12135TIP3    H157896   0.396   6.203  12.165 -0.4894 -0.5906 -0.4662
12135TIP3    H257897   0.504   6.121  12.097 -2.6665 -3.3569 -0.6782
12136TIP3   OH257898   4.979   3.912   4.419  0.2397  0.2086  1.0327
12136TIP3    H157899   4.969   3.818   4.432  0.9357  0.0423  0.4329
12136TIP3    H257900   4.916   3.934   4.351  1.4222 -0.1836 -0.2071
12137TIP3   OH257901   2.366   5.044   2.360 -0.3121  0.8227  0.5602
12137TIP3    H157902   2.353   5.084   2.274 -2.1040 -1.0611 -0.0631
12137TIP3    H257903   2.350   5.116   2.422 -0.3527  1.8592 -0.6316
12138TIP3   OH257904   3.665   2.524   4.950 -0.0250 -0.2202  0.0013
12138TIP3    H157905   3.636   2.479   4.871 -0.7086 -1.1728  0.7758
12138TIP3    H257906   3.659   2.458   5.019  2.2633  0.0810  0.5271
12139TIP3   OH257907   2.992   6.795  12.703 -0.0458  0.1108 -0.1542
12139TIP3    H157908   2.980   6.825  12.613  0.3764  0.4358 -0.1036
12139TIP3    H257909   3.005   6.876  12.753 -0.1789 -0.0763  0.1804
12140TIP3   OH257910   1.169   2.600   5.364 -0.2915  0.8978 -0.4341
12140TIP3    H157911   1.248   2.547   5.353 -0.9852 -0.1618 -0.4793
12140TIP3    H257912   1.157   2.605   5.459 -2.2909 -2.2794 -0.4126
12141TIP3   OH257913   2.897   3.354  12.015  0.2057  0.4152 -0.3297
12141TIP3    H157914   2.929   3.419  12.078  0.3568  1.0850 -1.0978
12141TIP3    H257915   2.975   3.301  11.994  0.8730  2.1361 -2.3057
12142TIP3   OH257916   6.169   3.242  17.123 -0.4608 -0.1488  0.4400
12142TIP3    H157917   6.199   3.270  17.036  0.0920  1.2221  1.0665
12142TIP3    H257918   6.210   3.303  17.184 -0.8298 -1.1194  1.6802
12143TIP3   OH257919   2.723   3.448  13.429 -0.1238 -0.2614 -0.0324
12143TIP3    H157920   2.777   3.517  13.389  1.0362 -0.1418  1.7210
12143TIP3    H257921   2.667   3.418  13.357  0.1048  1.7507 -1.1052
12144TIP3   OH257922   0.055   4.158  14.776  0.0611  0.7451 -0.3620
12144TIP3    H157923  -0.032   4.177  14.739 -0.6987  2.1724  2.0108
12144TIP3    H257924   0.093   4.244  14.792  0.2579  0.2239  2.2754
12145TIP3   OH257925   4.255   3.796  13.872 -0.2911  0.1135 -0.1793
12145TIP3    H157926   4.268   3.834  13.959 -1.3978 -0.2368  0.1581
12145TIP3    H257927   4.278   3.865  13.811  1.2054  0.1241  0.3841
12146TIP3   OH257928   2.624   6.315  11.203 -0.0830  0.7979 -0.2032
12146TIP3    H157929   2.712   6.321  11.240  1.2570 -1.7434 -2.8006
12146TIP3    H257930   2.627   6.370  11.125 -0.7551  0.5752 -0.3877
12147TIP3   OH257931   2.727   0.314  13.267  0.0904  0.0705  0.1120
12147TIP3    H157932   2.684   0.228  13.263 -0.3272  0.0843  2.9037
12147TIP3    H257933   2.664   0.370  13.312  1.1340  1.3510  0.0126
12148TIP3   OH257934   2.677   2.410   5.563  0.0057 -0.0464 -0.2289
12148TIP3    H157935   2.713   2.370   5.484 -0.3942  0.8536 -0.8765
12148TIP3    H257936   2.632   2.488   5.532  0.7801  0.9134  1.0243
12149TIP3   OH257937   5.552   2.398  14.751 -0.5528  0.6951  0.3901
12149TIP3    H157938   5.466   2.439  14.760 -0.6483  0.5102  0.3326
12149TIP3    H257939   5.600   2.453  14.689 -0.0105  1.8021  1.7493
12150TIP3   OH257940   1.392   0.430  16.151  0.2043  1.0058  0.0129
12150TIP3    H157941   1.406   0.451  16.058 -0.5373 -0.2852 -0.3944
12150TIP3    H257942   1.298   0.440  16.164 -0.4037 -3.1903 -0.5158
12151TIP3   OH257943   4.561   5.049   5.464  0.1172  0.3547 -0.0781
12151TIP3    H157944   4.497   5.105   5.506 -0.3040  0.7561 -1.2576
12151TIP3    H257945   4.645   5.091   5.482  0.0492 -0.0466  1.2605
12152TIP3   OH257946   6.674   0.797   2.898  0.4636  0.8329  0.6309
12152TIP3    H157947   6.761   0.803   2.937  1.5005 -2.2416 -1.0117
12152TIP3    H257948   6.691   0.784   2.805 -1.7020 -0.8030  0.4282
12153TIP3   OH257949   0.462   2.267  10.732  0.2553 -0.0197 -0.5938
12153TIP3    H157950   0.447   2.237  10.642  0.6717 -0.1051 -0.6368
12153TIP3    H257951   0.509   2.349  10.723 -0.6293  0.5112 -0.4652
12154TIP3   OH257952   5.624   5.081  15.927  0.6893 -0.0725 -0.1900
12154TIP3    H157953   5.562   5.072  15.999  0.4830  2.0873 -0.0627
12154TIP3    H257954   5.705   5.042  15.960  0.3993  0.2768  0.9598
12155TIP3   OH257955   1.203   0.868  13.189  0.8673 -0.1023 -0.3444
12155TIP3    H157956   1.198   0.852  13.283  2.2217  0.4120 -0.1796
12155TIP3    H257957   1.112   0.861  13.159  0.3103  0.5517  1.1369
12156TIP3   OH257958   3.103   0.048   5.771  0.0130 -0.3855 -0.1794
12156TIP3    H157959   3.090   0.018   5.681 -1.5847 -1.1180  0.2858
12156TIP3    H257960   3.109   0.143   5.763 -2.8696 -0.2060 -0.7875
12157TIP3   OH257961   0.773   6.338   3.732 -0.6007 -1.2084 -0.2860
12157TIP3    H157962   0.855   6.291   3.746 -1.8632 -3.2341  0.4119
12157TIP3    H257963   0.750   6.374   3.817 -0.4917 -0.7086 -0.4642
12158TIP3   OH257964   3.765   6.088  16.539 -0.0736 -0.2203 -0.0676
12158TIP3    H157965   3.711   6.023  16.494  0.3798  1.1708 -2.7001
12158TIP3    H257966   3.855   6.058  16.524  0.2033  1.5707 -2.3234
12159TIP3   OH257967   0.540   2.094   4.795 -0.2609 -0.2345 -0.2296
12159TIP3    H157968   0.483   2.123   4.724  1.4109  0.7477 -1.1882
12159TIP3    H257969   0.597   2.169   4.812 -0.4252 -0.5710  1.9473
12160TIP3   OH257970   6.161   5.055   2.870 -0.1092 -0.1368 -0.1943
12160TIP3    H157971   6.092   5.031   2.931 -2.2411  0.5438 -2.2484
12160TIP3    H257972   6.151   5.150   2.858  1.3953  0.0269 -0.2561
12161TIP3   OH257973   3.595   3.516  13.213 -0.1415 -0.4720 -0.6504
12161TIP3    H157974   3.500   3.514  13.204 -0.2113  2.3809 -0.9487
12161TIP3    H257975   3.610   3.559  13.297  0.8916 -1.1351 -0.4834
12162TIP3   OH257976   1.131   0.811   3.626 -0.2555 -0.1575 -0.2490
12162TIP3    H157977   1.043   0.825   3.660  0.0713  0.9138  0.1869
12162TIP3    H257978   1.127   0.841   3.536 -0.2125  0.3510 -0.0817
12163TIP3   OH257979   6.139   2.816   4.369 -0.2156  0.5226 -0.2307
12163TIP3    H157980   6.111   2.840   4.458 -0.1621  1.9113 -0.5801
12163TIP3    H257981   6.127   2.721   4.365 -0.4447  0.4783  1.1844
12164TIP3   OH257982   4.902   5.230  15.275  0.4962 -0.2672 -0.6341
12164TIP3    H157983   4.927   5.230  15.368  1.3637 -0.8654 -0.8554
12164TIP3    H257984   4.871   5.141  15.259 -0.2835  0.0206 -0.7636
12165TIP3   OH257985   5.121   1.547   5.692 -0.7002  0.8080 -0.6199
12165TIP3    H157986   5.181   1.618   5.715  0.9210 -0.6531 -0.2794
12165TIP3    H257987   5.161   1.505   5.616 -1.7064  0.3049 -0.8872
12166TIP3   OH257988   1.770   1.441  12.211  0.3144  0.0741  0.0180
12166TIP3    H157989   1.828   1.396  12.272  1.7787  0.0282 -1.3837
12166TIP3    H257990   1.727   1.370  12.163  0.0976  0.1306  0.1274
12167TIP3   OH257991   5.634   3.539   3.820  0.1104 -0.6977  0.1281
12167TIP3    H157992   5.580   3.578   3.751  0.8720  0.6368  0.2708
12167TIP3    H257993   5.572   3.516   3.889 -0.4707 -0.7027 -0.3863
12168TIP3   OH257994   5.732   4.805   1.180  0.4581 -0.3005 -0.2905
12168TIP3    H157995   5.663   4.739   1.180 -0.5075  0.7078 -0.7750
12168TIP3    H257996   5.737   4.836   1.090  0.5639  0.6477  0.0360
12169TIP3   OH257997   2.596   2.799   1.366 -0.3095 -0.1335  0.0160
12169TIP3    H157998   2.629   2.845   1.442  0.0274 -0.9897  0.3876
12169TIP3    H257999   2.605   2.862   1.294 -0.0979  0.4688  0.5679
12170TIP3   OH258000   3.185   2.995  15.144  0.0305 -0.5508 -0.8643
12170TIP3    H158001   3.208   2.989  15.236 -0.9358  0.3158 -0.5626
12170TIP3    H258002   3.236   2.925  15.102 -1.2232 -2.4136  0.6446
12171TIP3   OH258003   4.265   2.381   2.118  0.2012  0.0502  0.3337
12171TIP3    H158004   4.300   2.403   2.032 -1.0479 -1.3962 -0.5695
12171TIP3    H258005   4.220   2.460   2.146 -0.9480 -0.0440 -1.1714
12172TIP3   OH258006   3.179   2.763  16.940 -0.2759  0.2211  0.2549
12172TIP3    H158007   3.125   2.735  17.014  0.0126 -0.3621  0.2485
12172TIP3    H258008   3.181   2.688  16.882  1.3466 -0.1196  0.7220
12173TIP3   OH258009   4.985   0.847  15.334 -0.3075  0.9525  0.1314
12173TIP3    H158010   4.894   0.833  15.360  0.1073 -0.0014  1.0882
12173TIP3    H258011   5.036   0.796  15.396  0.9817  2.7388  0.5712
12174TIP3   OH258012   3.542   5.291  16.164 -0.2939 -0.1439  0.0889
12174TIP3    H158013   3.540   5.235  16.087 -2.6724 -0.1107  0.0964
12174TIP3    H258014   3.634   5.288  16.194  0.0344 -2.4245 -1.0601
12175TIP3   OH258015   1.469   6.210   3.814  0.6113  0.3912 -0.3398
12175TIP3    H158016   1.560   6.184   3.801  0.5099  0.0687 -0.4035
12175TIP3    H258017   1.443   6.249   3.730 -0.3811 -2.6838 -1.5328
12176TIP3   OH258018   4.631   1.491   1.936  0.1746 -0.2432 -0.2092
12176TIP3    H158019   4.544   1.476   1.974 -0.7542 -0.0180 -2.1635
12176TIP3    H258020   4.633   1.586   1.919  1.1210 -0.1209  0.5510
12177TIP3   OH258021   0.445   0.087   0.308 -0.3128  0.0347  0.0464
12177TIP3    H158022   0.451   0.048   0.396 -0.7585 -2.0396 -0.7953
12177TIP3    H258023   0.401   0.019   0.256 -2.2769  2.2093 -1.2144
12178TIP3   OH258024   0.472   1.870   4.086  0.5755 -0.0817 -0.1132
12178TIP3    H158025   0.546   1.874   4.146 -1.3881  1.9785  2.2466
12178TIP3    H258026   0.460   1.960   4.056 -0.5690 -0.5155 -0.9802
12179TIP3   OH258027   4.874   1.068   4.039 -0.0336  0.4918 -0.3932
12179TIP3    H158028   4.966   1.061   4.062 -0.4158  1.5059  1.6445
12179TIP3    H258029   4.871   1.130   3.966  1.0855 -1.3951 -2.0856
12180TIP3   OH258030   5.675   5.241  11.993  1.0072  0.3900  0.1950
12180TIP3    H158031   5.615   5.177  12.032  0.8677  0.2584 -0.2390
12180TIP3    H258032   5.694   5.302  12.065  2.6867 -1.2175  1.1466
12181TIP3   OH258033   1.780   3.793   4.238 -0.3211  0.1142 -0.5401
12181TIP3    H158034   1.851   3.738   4.206  0.8462  1.5297 -0.4186
12181TIP3    H258035   1.812   3.883   4.228 -0.7131  0.6864  2.6224
12182TIP3   OH258036   2.130   2.606  16.987 -0.0947  0.1309  0.2991
12182TIP3    H158037   2.119   2.617  16.892  0.3779  0.2981  0.2658
12182TIP3    H258038   2.136   2.695  17.020 -2.9494  0.1908  0.8183
12183TIP3   OH258039   1.801   5.698   5.338  0.2897  0.4800 -0.2143
12183TIP3    H158040   1.805   5.760   5.266 -1.3459 -0.0093 -0.7414
12183TIP3    H258041   1.709   5.671   5.342  1.1707 -2.8684 -0.8637
12184TIP3   OH258042   4.360   3.800  11.668 -0.3854 -0.1329 -0.2095
12184TIP3    H158043   4.430   3.817  11.731 -1.0505 -0.2262  0.5599
12184TIP3    H258044   4.390   3.842  11.587 -1.0831  2.9281  1.0806
12185TIP3   OH258045   1.877   4.041   4.132 -0.2220 -0.0897  0.3207
12185TIP3    H158046   1.971   4.035   4.113 -0.3073 -0.0329 -0.1321
12185TIP3    H258047   1.835   4.033   4.046 -0.6486 -0.5442  0.5696
12186TIP3   OH258048   4.185   5.888  13.905 -0.4974 -0.2025 -0.2043
12186TIP3    H158049   4.149   5.891  13.994 -1.5780  2.0505 -0.6754
12186TIP3    H258050   4.115   5.848  13.853 -0.9229  0.8646 -0.4759
12187TIP3   OH258051   3.384   4.541   1.204 -0.5710  0.0434 -0.2556
12187TIP3    H158052   3.409   4.618   1.254 -0.6256 -0.1776  0.1103
12187TIP3    H258053   3.459   4.481   1.212 -1.0579 -0.4593  0.5189
12188TIP3   OH258054   0.885   4.966   0.120  0.0835 -0.6453  0.4766
12188TIP3    H158055   0.839   4.952   0.202 -1.3324  0.5604 -0.0882
12188TIP3    H258056   0.931   5.049   0.133  1.3810 -1.3941  0.7158
12189TIP3   OH258057   0.120   3.437  15.325 -0.5457  0.3657 -0.9067
12189TIP3    H158058   0.138   3.463  15.416 -0.7249  1.1367 -1.0917
12189TIP3    H258059   0.070   3.510  15.288 -0.2954  0.1442 -1.6921
12190TIP3   OH258060   2.275   4.249  15.422 -0.1967 -0.1633 -0.0887
12190TIP3    H158061   2.292   4.236  15.328 -0.3183 -0.3194 -0.0894
12190TIP3    H258062   2.296   4.164  15.462 -2.1849 -0.7648 -0.2614
12191TIP3   OH258063   4.489   5.160  11.607 -0.0969  0.5099 -0.2708
12191TIP3    H158064   4.423   5.165  11.677 -0.7887 -3.0742 -0.5967
12191TIP3    H258065   4.571   5.148  11.654 -0.4332 -0.8713 -0.0133
12192TIP3   OH258066   4.816   3.618   3.695  0.2653 -0.0708 -0.3011
12192TIP3    H158067   4.858   3.535   3.670  0.0814 -0.7230  1.4365
12192TIP3    H258068   4.870   3.686   3.654  0.3345 -1.0410 -1.8695
12193TIP3   OH258069   5.459   5.719  11.649  0.6247 -0.3334  0.1458
12193TIP3    H158070   5.510   5.794  11.681 -0.0993  0.2045  0.0670
12193TIP3    H258071   5.376   5.726  11.695 -0.9366  1.2015 -2.7428
12194TIP3   OH258072   3.659   6.751  14.446  0.2765 -0.2946  0.0933
12194TIP3    H158073   3.584   6.755  14.505  0.2112 -0.2397  0.0069
12194TIP3    H258074   3.640   6.678  14.388  0.1180 -0.0529 -0.1615
12195TIP3   OH258075   0.263   4.941  12.802 -0.3567 -0.0861 -0.4089
12195TIP3    H158076   0.273   5.010  12.736  0.7116  0.2847  0.1308
12195TIP3    H258077   0.340   4.950  12.858 -1.7395  0.2259  1.4879
12196TIP3   OH258078   5.013   5.913  15.564 -0.2228 -0.0902  0.2417
12196TIP3    H158079   5.099   5.909  15.605  0.3780  1.9724 -0.7688
12196TIP3    H258080   4.962   5.845  15.609  1.8888 -1.2841  0.8872
12197TIP3   OH258081   1.233   1.764  14.592  0.8228 -0.2501  0.0980
12197TIP3    H158082   1.327   1.753  14.580  0.9007  0.0960  0.3733
12197TIP3    H258083   1.193   1.696  14.538  1.1872  0.4412 -1.0523
12198TIP3   OH258084   5.776   4.094   4.543  0.1637 -0.3032  0.5686
12198TIP3    H158085   5.858   4.049   4.560  0.4555  0.4081  1.0831
12198TIP3    H258086   5.721   4.030   4.498  1.1592 -0.6387 -0.1779
12199TIP3   OH258087   5.917   5.989  11.200  0.1535  0.0841 -0.5562
12199TIP3    H158088   5.971   6.039  11.262 -1.2642  2.0344 -0.8425
12199TIP3    H258089   5.853   5.944  11.255 -0.3721  0.8908 -0.4940
12200TIP3   OH258090   3.617   3.204   2.521  0.1841 -0.1806 -0.0502
12200TIP3    H158091   3.556   3.132   2.506  1.2528 -1.0960 -0.0666
12200TIP3    H258092   3.562   3.282   2.529 -1.0619 -1.1679  1.1257
12201TIP3   OH258093   5.762   3.513   0.626  0.1188 -0.2371  0.2443
12201TIP3    H158094   5.836   3.535   0.682 -0.6491  0.2382  1.0729
12201TIP3    H258095   5.802   3.497   0.540  1.1432  0.3356  0.6000
12202TIP3   OH258096   3.763   0.597   0.028  0.7140 -0.3858  0.3030
12202TIP3    H158097   3.703   0.620  -0.043 -1.6345  0.8711  2.6170
12202TIP3    H258098   3.846   0.637   0.004 -0.4509  1.2922 -1.0046
12203TIP3   OH258099   0.367   6.440  16.680 -0.0953 -0.3626  0.4014
12203TIP3    H158100   0.409   6.475  16.601 -0.9821 -0.0548  0.0656
12203TIP3    H258101   0.354   6.347  16.661  0.3059 -0.4330  0.4538
12204TIP3   OH258102   3.588   2.591  10.819  0.2879  0.1785 -0.2791
12204TIP3    H158103   3.684   2.588  10.820  0.2868 -0.6467  3.4900
12204TIP3    H258104   3.567   2.684  10.809  1.4787  0.5522  0.6297
12205TIP3   OH258105   2.136   2.903  13.948  0.3446 -0.4968 -0.2268
12205TIP3    H158106   2.224   2.940  13.954  1.0435 -1.6976 -2.3521
12205TIP3    H258107   2.134   2.863  13.861 -2.8696  1.0016 -0.9071
12206TIP3   OH258108   0.441   3.472   3.679 -0.1393 -0.8078 -0.1841
12206TIP3    H158109   0.423   3.401   3.741 -0.9252 -0.0584  0.4441
12206TIP3    H258110   0.528   3.504   3.702  0.1780 -1.4899 -0.4053
12207TIP3   OH258111   3.754   5.480  10.838  0.7695  0.1086 -0.4398
12207TIP3    H158112   3.670   5.437  10.821  0.8117 -0.2010  0.1242
12207TIP3    H258113   3.819   5.410  10.832  0.7824 -0.0262  1.0044
12208TIP3   OH258114   4.887   6.668   0.425  0.1861 -0.0603 -0.0646
12208TIP3    H158115   4.894   6.705   0.337  0.8675 -1.8440 -0.7828
12208TIP3    H258116   4.976   6.640   0.446 -0.1363 -0.4218  0.8278
12209TIP3   OH258117   6.006   5.340  11.408  0.2682 -0.1103  0.0106
12209TIP3    H158118   5.960   5.350  11.325 -0.4441  0.3710  0.4593
12209TIP3    H258119   6.092   5.380  11.392  0.0135  0.2835 -0.3962
12210TIP3   OH258120   6.204   0.860   4.780  0.0481  0.1264 -0.4202
12210TIP3    H158121   6.236   0.804   4.851  0.9645  0.7450 -0.3320
12210TIP3    H258122   6.234   0.815   4.700 -0.5140 -0.2868 -0.4003
12211TIP3   OH258123   4.037   4.360  12.256 -0.6758 -0.5079 -0.1369
12211TIP3    H158124   4.061   4.278  12.212 -1.3333 -0.0772 -1.3094
12211TIP3    H258125   4.112   4.418  12.241 -0.9345 -0.3331 -0.7847
12212TIP3   OH258126   4.632   3.490  11.569 -0.1123 -0.0678 -0.0339
12212TIP3    H158127   4.689   3.420  11.600  0.7651  0.5037 -0.3400
12212TIP3    H258128   4.549   3.447  11.550 -0.0163 -0.7835  1.1261
12213TIP3   OH258129   3.807   4.453   0.033 -0.2596 -0.2296  0.1713
12213TIP3    H158130   3.899   4.480   0.026  0.1511 -1.7122 -0.2284
12213TIP3    H258131   3.763   4.530   0.068  0.9048  0.9644 -0.9062
12214TIP3   OH258132   2.181   2.189   6.254 -0.1060 -0.6723 -0.5827
12214TIP3    H158133   2.159   2.096   6.257 -0.8823 -0.4838 -0.3183
12214TIP3    H258134   2.275   2.191   6.234  0.4999 -1.5504  2.0516
12215TIP3   OH258135   6.187   2.881   2.944 -0.4928  0.3205 -0.3247
12215TIP3    H158136   6.098   2.875   2.980 -0.4931 -0.7507 -0.5023
12215TIP3    H258137   6.242   2.901   3.021 -0.3674 -2.8875  0.4837
12216TIP3   OH258138   4.616   1.275   1.336  0.0225  0.3728 -0.5053
12216TIP3    H158139   4.681   1.261   1.267  0.0067 -0.1861 -0.4049
12216TIP3    H258140   4.541   1.221   1.311  0.2356 -0.2850  0.2444
12217TIP3   OH258141   1.889   1.746  13.729 -0.3865 -0.2224 -0.3298
12217TIP3    H158142   1.867   1.696  13.650 -0.2517  0.1344 -0.5927
12217TIP3    H258143   1.976   1.782  13.711 -0.3286 -0.1890  0.0072
12218TIP3   OH258144   4.420   1.545  14.315 -0.9766 -0.2898 -0.3746
12218TIP3    H158145   4.370   1.522  14.236  0.3278 -1.5131 -0.8553
12218TIP3    H258146   4.466   1.465  14.339 -0.6646  0.3165  1.1346
12219TIP3   OH258147   4.835   6.656   1.698  0.0194 -0.0867 -0.7023
12219TIP3    H158148   4.922   6.628   1.670 -0.0468 -0.3107 -0.6858
12219TIP3    H258149   4.792   6.685   1.617  0.0576 -0.1194 -0.7338
12220TIP3   OH258150   4.787   6.553  16.170  0.2094  0.2287 -0.1160
12220TIP3    H158151   4.840   6.578  16.094  0.7801 -0.7053 -0.0315
12220TIP3    H258152   4.781   6.634  16.221  0.5053  0.6604 -0.7469
12221TIP3   OH258153   1.820   0.676   0.808 -0.5869  0.8249 -0.5116
12221TIP3    H158154   1.784   0.633   0.730  0.1309  0.9821 -0.9447
12221TIP3    H258155   1.905   0.710   0.778  0.8359 -1.2980  1.0095
12222TIP3   OH258156   4.472   5.407   2.288 -0.1486  0.4855  0.0398
12222TIP3    H158157   4.471   5.499   2.263  0.6117  0.6278  0.5024
12222TIP3    H258158   4.565   5.386   2.297 -0.2718 -0.6207 -1.1260
12223TIP3   OH258159   4.821   6.083  10.191  0.1967 -0.0116 -0.2483
12223TIP3    H158160   4.860   5.997  10.206 -1.1976 -0.5028  0.5662
12223TIP3    H258161   4.832   6.129  10.275  0.1144  0.2906 -0.4025
12224TIP3   OH258162   4.302   2.244   0.531 -0.7012 -0.1141 -0.0349
12224TIP3    H158163   4.319   2.302   0.605 -1.0025 -0.4934  0.3335
12224TIP3    H258164   4.300   2.302   0.455  1.9028  0.0087 -0.0673
12225TIP3   OH258165   4.262   2.683   6.282 -0.4490 -0.0219  0.2429
12225TIP3    H158166   4.178   2.645   6.309  0.1525 -1.8963 -0.4552
12225TIP3    H258167   4.328   2.625   6.321  0.4808 -0.3844 -1.8342
12226TIP3   OH258168   4.908   4.769  14.020  0.5167 -0.3270  0.3537
12226TIP3    H158169   4.922   4.855  14.059 -4.0104  0.8066 -0.1754
12226TIP3    H258170   4.861   4.720  14.087  0.6765 -1.4657 -0.3489
12227TIP3   OH258171   2.528   1.134   5.512 -0.1406  0.3369 -0.3603
12227TIP3    H158172   2.483   1.056   5.544 -1.0764  1.2891  0.7047
12227TIP3    H258173   2.485   1.206   5.557  0.4372  1.5041 -1.6393
12228TIP3   OH258174   6.304   6.409  17.214  0.3160 -0.4221 -0.0281
12228TIP3    H158175   6.227   6.456  17.181 -0.4566 -0.8876  1.0745
12228TIP3    H258176   6.349   6.379  17.136 -0.1634  0.5995 -0.7108
12229TIP3   OH258177   5.142   5.076   3.927  0.2499 -0.0555  0.0025
12229TIP3    H158178   5.172   5.096   3.839  0.1265  0.0692 -0.0111
12229TIP3    H258179   5.163   5.154   3.978  1.2992 -0.5342  0.3247
12230TIP3   OH258180   6.819   4.320   5.383 -0.0307 -0.0244 -0.3776
12230TIP3    H158181   6.744   4.328   5.443 -0.2430  0.9765 -0.7838
12230TIP3    H258182   6.877   4.391   5.408 -0.3745  0.7390 -1.7319
12231TIP3   OH258183   0.135   1.607   3.508  0.4618 -0.3403  0.0997
12231TIP3    H158184   0.211   1.645   3.552  1.1266 -0.1386 -1.1897
12231TIP3    H258185   0.066   1.672   3.517  0.7324 -0.1063  0.4587
12232TIP3   OH258186   3.675   3.450   1.767 -0.1501 -0.2176 -0.1644
12232TIP3    H158187   3.580   3.443   1.753 -0.1264 -2.3498  0.4762
12232TIP3    H258188   3.697   3.539   1.741 -2.4720  0.5800  0.4602
12233TIP3   OH258189   5.554   4.314  14.163 -0.4686 -0.2349  0.3228
12233TIP3    H158190   5.610   4.364  14.103 -1.3166 -0.7398 -0.8931
12233TIP3    H258191   5.575   4.350  14.249  1.2171  0.0805 -0.1912
12234TIP3   OH258192   2.374   2.042   1.309  0.6983 -0.5908  0.0530
12234TIP3    H158193   2.424   1.987   1.248  1.2235  1.1614 -1.1389
12234TIP3    H258194   2.284   2.012   1.300  0.5841  0.3760 -2.4635
12235TIP3   OH258195   1.620   5.637  16.687 -0.0709  0.1485  0.9155
12235TIP3    H158196   1.629   5.587  16.606  0.3649  3.9186 -1.4754
12235TIP3    H258197   1.542   5.601  16.729 -1.0438 -1.0287 -1.8001
12236TIP3   OH258198   1.469   3.442  15.326  0.0006  0.1419 -0.1018
12236TIP3    H158199   1.427   3.359  15.307  0.2027 -0.0571  0.3216
12236TIP3    H258200   1.519   3.462  15.247  0.0691 -0.2075 -0.1473
12237TIP3   OH258201   0.498   3.132   4.255  0.1585 -0.1583  0.1133
12237TIP3    H158202   0.464   3.089   4.334 -0.2185  1.0442  0.6186
12237TIP3    H258203   0.485   3.068   4.185 -1.5367 -0.3973  0.6223
12238TIP3   OH258204   2.779   3.823  13.579 -0.0341  0.2662 -0.4050
12238TIP3    H158205   2.687   3.843  13.593 -0.0405  0.2311 -0.3984
12238TIP3    H258206   2.783   3.793  13.488 -0.2300 -0.9280 -0.0182
12239TIP3   OH258207   6.727   1.749  10.952 -0.0993  0.3752 -0.0431
12239TIP3    H158208   6.800   1.694  10.981 -0.9456 -1.0077 -0.4776
12239TIP3    H258209   6.733   1.827  11.008  2.0964  0.5929 -0.5224
12240TIP3   OH258210   2.122   5.763  13.152 -0.1517  0.7336  0.4879
12240TIP3    H158211   2.077   5.692  13.107  0.3972  0.4411  0.4076
12240TIP3    H258212   2.054   5.830  13.165 -0.6949  0.1453  0.6781
12241TIP3   OH258213   5.293   2.431  13.919 -0.1658 -0.0266 -0.1550
12241TIP3    H158214   5.250   2.466  13.841 -1.3641 -0.3674  0.3415
12241TIP3    H258215   5.333   2.350  13.889 -0.3882 -0.0189 -0.4818
12242TIP3   OH258216   3.143   2.445  12.727 -0.4458 -0.6108 -0.0055
12242TIP3    H158217   3.111   2.507  12.663 -0.7306  0.5076  1.2056
12242TIP3    H258218   3.238   2.457  12.727 -0.5638  0.3578  0.7612
12243TIP3   OH258219   0.843   4.565  16.229  0.1033  0.0314 -0.1358
12243TIP3    H158220   0.828   4.568  16.324  2.0865  0.0860  0.1938
12243TIP3    H258221   0.800   4.484  16.201 -2.8438  1.3618  0.3444
12244TIP3   OH258222   5.227   6.692   4.095  0.5494 -0.1256  0.2712
12244TIP3    H158223   5.132   6.687   4.082  0.1846  0.0846  2.5847
12244TIP3    H258224   5.261   6.612   4.055 -0.5366  0.0458 -1.0311
12245TIP3   OH258225   5.179   1.957  13.528  0.2314 -0.1900 -0.0935
12245TIP3    H158226   5.193   1.862  13.536  0.4041 -0.3875 -2.2689
12245TIP3    H258227   5.266   1.995  13.543  0.3738 -0.4547 -0.2430
12246TIP3   OH258228   1.060   4.985   0.380  0.5192 -0.1748 -0.0443
12246TIP3    H158229   0.995   4.928   0.419  1.1946 -0.6986  0.3300
12246TIP3    H258230   1.107   5.023   0.455  1.2587 -0.5293 -0.3191
12247TIP3   OH258231   2.284   1.862  12.187 -0.0394  0.1033 -0.4504
12247TIP3    H158232   2.230   1.905  12.254  0.9720  2.3430 -1.0192
12247TIP3    H258233   2.273   1.769  12.204  0.6761  0.5889  3.2816
12248TIP3   OH258234   3.908   6.574  11.390  0.1397  0.3622 -0.0374
12248TIP3    H158235   3.886   6.661  11.357 -0.3720 -0.5856 -2.2927
12248TIP3    H258236   4.003   6.566  11.377  0.0022  0.1481 -0.9335
12249TIP3   OH258237   0.105   2.275  13.239 -0.5525  0.3466  0.1624
12249TIP3    H158238   0.074   2.253  13.327  1.3866  0.8422  0.9813
12249TIP3    H258239   0.066   2.208  13.183 -0.8491 -0.6734  1.5609
12250TIP3   OH258240   0.147   1.011   2.741 -0.0552 -0.4534 -0.4696
12250TIP3    H158241   0.206   0.971   2.806  2.9412  0.1309 -2.7147
12250TIP3    H258242   0.089   0.939   2.715 -1.3733 -0.6661  2.8914
12251TIP3   OH258243   6.558   5.975   3.072 -0.1051 -0.7366 -0.3902
12251TIP3    H158244   6.492   5.957   3.140  0.7414  0.6740  0.8435
12251TIP3    H258245   6.512   6.032   3.010  0.0104  0.5104  0.6362
12252TIP3   OH258246   1.806   0.700   4.906  0.3742 -0.7836 -0.4786
12252TIP3    H158247   1.797   0.674   4.814 -0.3403 -0.8611 -0.3825
12252TIP3    H258248   1.897   0.679   4.927  0.1350 -2.1078 -0.7441
12253TIP3   OH258249   6.651   6.355  12.768  0.5193 -0.6159 -0.1571
12253TIP3    H158250   6.618   6.383  12.683  0.4911 -2.6594 -0.8349
12253TIP3    H258251   6.745   6.341  12.754  0.8194  0.5718  0.5672
12254TIP3   OH258252   2.377   1.100  15.224  0.4261 -0.8537 -0.3520
12254TIP3    H158253   2.358   1.134  15.136  0.4136  1.3046  0.4805
12254TIP3    H258254   2.469   1.122  15.239  0.0921 -0.1338  0.6656
12255TIP3   OH258255   6.310   4.799   3.166  0.3003 -0.0020 -0.6253
12255TIP3    H158256   6.323   4.806   3.261  0.6869 -1.3939 -0.5522
12255TIP3    H258257   6.389   4.755   3.135  0.0850  0.2743 -1.5711
12256TIP3   OH258258   5.056   0.249   1.984  0.6435  0.9269  0.2496
12256TIP3    H158259   5.038   0.157   1.962  0.5456  0.9819  0.0998
12256TIP3    H258260   5.135   0.271   1.935  0.3918  1.0677 -0.0896
12257TIP3   OH258261   5.511   2.942  13.652 -0.1858 -0.2240 -0.0182
12257TIP3    H158262   5.602   2.922  13.677 -0.1451  1.0344  0.8440
12257TIP3    H258263   5.512   3.035  13.633 -0.7234 -0.7153 -2.5817
12258TIP3   OH258264   1.321   1.054   2.958  0.1079  0.0910  0.3394
12258TIP3    H158265   1.398   1.011   2.921  0.2273  0.3518  0.2843
12258TIP3    H258266   1.307   1.131   2.903  0.0300  0.2492  0.5763
12259TIP3   OH258267   0.364   5.083   1.265 -0.1631  0.0296  0.1692
12259TIP3    H158268   0.379   5.031   1.343  2.3625 -0.1672 -0.4091
12259TIP3    H258269   0.272   5.070   1.244 -0.2204 -1.9763  1.6225
12260TIP3   OH258270   1.708   2.380  17.073 -0.5288  0.3281  0.0070
12260TIP3    H158271   1.782   2.440  17.076  0.9315 -1.4663  0.3511
12260TIP3    H258272   1.667   2.397  16.988  1.8990 -0.5622 -1.3725
12261TIP3   OH258273   6.596   2.940  11.427 -0.2984  0.3719  0.3680
12261TIP3    H158274   6.571   3.012  11.486 -0.5616 -0.1454  0.8984
12261TIP3    H258275   6.551   2.863  11.463  0.9404 -0.2998  0.5047
12262TIP3   OH258276   4.475   4.337   4.328 -0.1227 -0.0471 -0.1373
12262TIP3    H158277   4.384   4.358   4.310  0.1100  0.0835 -1.2270
12262TIP3    H258278   4.484   4.245   4.303 -0.3355 -0.5230  1.4825
12263TIP3   OH258279   2.806   2.215   4.426  0.1003  0.9267 -0.0092
12263TIP3    H158280   2.786   2.152   4.495  1.0205  0.3636 -0.2500
12263TIP3    H258281   2.794   2.166   4.344  0.5861  1.1290 -0.2032
12264TIP3   OH258282   6.249   4.440  13.274 -0.6744  0.1246 -0.3304
12264TIP3    H158283   6.305   4.454  13.197  1.6364 -0.8149  1.1058
12264TIP3    H258284   6.213   4.352  13.261 -0.8637  0.2566 -0.7024
12265TIP3   OH258285   6.291   2.669   3.413  0.3171 -0.4135 -0.0747
12265TIP3    H158286   6.311   2.608   3.484 -0.2134 -0.2026  0.2630
12265TIP3    H258287   6.326   2.753   3.443  1.3118 -0.6100 -0.6713
12266TIP3   OH258288   4.697   3.974  13.089 -1.0216  0.4102  0.0964
12266TIP3    H158289   4.690   3.974  12.993 -1.7309 -0.3044  0.1454
12266TIP3    H258290   4.691   4.066  13.113  1.6911  0.8564 -0.7156
12267TIP3   OH258291   5.827   3.927  11.998  0.0172  0.0669  0.2219
12267TIP3    H158292   5.734   3.904  11.994 -0.1064  0.4596  0.6789
12267TIP3    H258293   5.827   4.020  12.024  0.5786 -0.6309  2.8874
12268TIP3   OH258294   5.290   4.821  12.873  0.3009  0.6144  0.6942
12268TIP3    H158295   5.233   4.786  12.942 -0.3930  1.8118  0.7245
12268TIP3    H258296   5.357   4.871  12.921  0.0583  1.1011  0.5284
12269TIP3   OH258297   4.098   3.830   2.749 -0.4032  0.2859 -0.1877
12269TIP3    H158298   4.189   3.822   2.780 -0.6400 -2.2818  0.0072
12269TIP3    H258299   4.057   3.891   2.810  0.8062  0.2775  0.6638
12270TIP3   OH258300   5.936   1.578   2.816  0.1017  0.0890 -0.4401
12270TIP3    H158301   5.877   1.519   2.862 -0.3067  0.9626  0.1718
12270TIP3    H258302   5.996   1.520   2.768 -0.9697 -0.8012 -0.7150
12271TIP3   OH258303   4.814   3.820  15.182  0.2732 -0.3212  0.3705
12271TIP3    H158304   4.776   3.904  15.156  1.2980  0.0152 -0.0552
12271TIP3    H258305   4.872   3.841  15.254  2.4416 -0.2604 -1.3285
12272TIP3   OH258306   6.000   2.914  15.022 -0.0960  0.2361  0.2375
12272TIP3    H158307   6.072   2.949  14.970  0.1611  0.2244  0.5869
12272TIP3    H258308   6.039   2.892  15.107 -0.3969 -0.2554  0.2547
12273TIP3   OH258309   6.607   5.388   0.727  0.5682 -0.9070  0.0313
12273TIP3    H158310   6.546   5.381   0.801  1.1009 -0.1222  0.5561
12273TIP3    H258311   6.647   5.301   0.721 -0.4680 -1.3801 -0.2073
12274TIP3   OH258312   3.362   0.544  13.284  0.2611  0.5547  0.2314
12274TIP3    H158313   3.452   0.516  13.302  0.6926  2.7210  1.7458
12274TIP3    H258314   3.363   0.567  13.191  1.0238 -0.2877  0.0194
12275TIP3   OH258315   6.376   1.735   4.774  0.3335  0.0258  0.0164
12275TIP3    H158316   6.392   1.799   4.843  4.0207 -2.6055  1.7575
12275TIP3    H258317   6.360   1.653   4.821  1.7642 -1.5815 -2.2037
12276TIP3   OH258318   1.792   5.237  13.588  0.1689  1.0804 -0.8182
12276TIP3    H158319   1.803   5.326  13.619 -0.0118  1.1120 -0.8512
12276TIP3    H258320   1.718   5.240  13.528  0.5216  1.0234 -1.2663
12277TIP3   OH258321   3.199   6.107  13.263 -0.3167  0.3326  0.0569
12277TIP3    H158322   3.251   6.049  13.319  1.4999  2.0859  0.2666
12277TIP3    H258323   3.258   6.181  13.244 -2.7274  2.3886  0.2741
12278TIP3   OH258324   0.540   1.368  13.536 -0.0150  0.4440  0.0259
12278TIP3    H158325   0.539   1.399  13.627  0.0581 -1.6811  0.7877
12278TIP3    H258326   0.539   1.448  13.483  1.6026  1.7383  1.8925
12279TIP3   OH258327   2.725   4.560  15.148 -0.4249  0.0003  0.1107
12279TIP3    H158328   2.720   4.636  15.206 -1.2832  0.2110 -0.2379
12279TIP3    H258329   2.778   4.497  15.196  0.6793  0.9925  0.2146
12280TIP3   OH258330   0.413   4.666   4.211 -0.1303  0.3970  0.1907
12280TIP3    H158331   0.453   4.673   4.298 -1.1338  0.7490  0.6306
12280TIP3    H258332   0.478   4.703   4.152  0.5082  0.2767  0.8021
12281TIP3   OH258333   2.938   2.937  12.803 -0.8879 -0.3423 -0.1676
12281TIP3    H158334   2.927   2.845  12.779 -1.2523 -0.9517  2.2364
12281TIP3    H258335   2.899   2.945  12.889  0.6986  1.6859  0.4222
12282TIP3   OH258336   3.115   3.224  13.885  0.0100 -0.0011  0.2550
12282TIP3    H158337   3.192   3.279  13.870 -0.1884  0.1173 -0.3580
12282TIP3    H258338   3.073   3.261  13.963  0.1407  0.4247  0.1236
12283TIP3   OH258339   2.018   3.041   4.851 -0.2738 -0.2639  0.2382
12283TIP3    H158340   1.956   3.017   4.782  0.7282 -0.8010 -0.4835
12283TIP3    H258341   1.972   3.020   4.932 -1.8723  1.3565 -0.2160
12284TIP3   OH258342   2.668   5.370   0.307  0.2140 -0.2000 -0.4100
12284TIP3    H158343   2.698   5.290   0.351  0.4539  0.2402  0.2356
12284TIP3    H258344   2.574   5.373   0.324 -0.0905 -1.2291 -1.8697
12285TIP3   OH258345   0.787   3.427  12.255 -0.1575 -0.4010  0.6586
12285TIP3    H158346   0.844   3.351  12.242 -0.2613 -0.1113 -1.7893
12285TIP3    H258347   0.699   3.393  12.244 -0.1611  0.2300 -1.5482
12286TIP3   OH258348   3.286   3.142   3.914 -0.2858 -0.3902  0.0757
12286TIP3    H158349   3.366   3.104   3.951 -0.3439 -1.1209 -0.5256
12286TIP3    H258350   3.269   3.089   3.836 -0.8766  0.3129 -0.2770
12287TIP3   OH258351   2.866   1.486  12.969  0.6742 -0.0892 -0.2532
12287TIP3    H158352   2.843   1.570  13.008 -0.5350 -0.3651 -0.3463
12287TIP3    H258353   2.906   1.437  13.041 -2.0693 -0.8121  0.8520
12288TIP3   OH258354   0.940   6.233   3.414  0.6649  0.3156 -0.3786
12288TIP3    H158355   0.954   6.141   3.390  2.7936  0.6234 -0.4330
12288TIP3    H258356   0.850   6.236   3.447  0.1926 -1.5611 -1.4266
12289TIP3   OH258357   3.940   2.537   5.121 -0.4256 -0.0209 -0.5863
12289TIP3    H158358   3.949   2.444   5.102 -0.5155  0.0040 -0.7594
12289TIP3    H258359   4.029   2.568   5.132 -0.4698 -0.4229  0.9460
12290TIP3   OH258360   3.618   3.343  11.387 -0.5420  0.0399  0.0885
12290TIP3    H158361   3.677   3.292  11.441 -1.2471 -0.6189  0.2380
12290TIP3    H258362   3.659   3.430  11.382 -0.0586 -0.1326  0.9852
12291TIP3   OH258363   6.364   6.004   5.743  0.4502 -0.0042  0.6357
12291TIP3    H158364   6.445   6.030   5.787  0.0562  2.3701  0.0671
12291TIP3    H258365   6.294   6.042   5.797 -0.0998  1.4954 -1.0680
12292TIP3   OH258366   0.912   2.270  12.419  0.2349  0.0317 -0.0392
12292TIP3    H158367   0.962   2.189  12.406 -0.3431 -0.3173 -0.0822
12292TIP3    H258368   0.849   2.248  12.488 -0.3165  0.2666 -0.4666
12293TIP3   OH258369   5.036   1.032   4.646 -0.2673 -0.0237 -0.3688
12293TIP3    H158370   4.961   0.979   4.676  0.1095  0.0053  0.6215
12293TIP3    H258371   5.007   1.122   4.657 -0.1750 -0.0135 -0.2151
12294TIP3   OH258372   4.626   3.081   5.368  0.2961 -0.2129  0.6899
12294TIP3    H158373   4.618   3.060   5.275 -2.2945 -0.0278  0.8400
12294TIP3    H258374   4.577   3.011   5.412  0.2642  0.5127  1.8138
12295TIP3   OH258375   0.038   4.214   1.624  0.0946 -0.4148 -0.4576
12295TIP3    H158376   0.077   4.236   1.709 -0.7947  0.4909 -0.2816
12295TIP3    H258377  -0.005   4.295   1.596 -1.5921 -1.3806 -0.6884
12296TIP3   OH258378   4.324   6.168   3.971 -0.1155  0.9076 -0.0684
12296TIP3    H158379   4.252   6.111   3.998 -1.7949  2.3902 -1.2827
12296TIP3    H258380   4.366   6.194   4.053 -0.8294 -0.1450  0.6388
12297TIP3   OH258381   1.914   6.038   0.122  0.3987  0.3418  0.2830
12297TIP3    H158382   1.963   6.035   0.041  0.1674 -0.4655  0.1746
12297TIP3    H258383   1.823   6.049   0.095  0.4644  1.4528  0.4724
12298TIP3   OH258384   5.046   4.144  15.305 -0.2536  0.3442  0.3645
12298TIP3    H158385   4.959   4.168  15.273 -0.1884 -1.0970 -0.9568
12298TIP3    H258386   5.034   4.056  15.342  0.6969  0.0134 -0.1113
12299TIP3   OH258387   4.862   0.218  13.102 -0.1540 -0.0849 -0.0352
12299TIP3    H158388   4.917   0.193  13.176 -0.9590 -0.1672  0.5377
12299TIP3    H258389   4.851   0.138  13.051 -0.5461 -0.2947  0.3767
12300TIP3   OH258390   2.026   2.518  13.536  0.0767 -0.2114  1.1696
12300TIP3    H158391   2.117   2.546  13.545  0.3015 -0.7984  0.7556
12300TIP3    H258392   2.032   2.423  13.520 -0.5094  0.1289 -1.1723
12301TIP3   OH258393   0.896   1.862   0.185 -0.4571  0.5358  0.4378
12301TIP3    H158394   0.886   1.957   0.191 -0.4160  0.4303  2.3382
12301TIP3    H258395   0.988   1.850   0.160 -0.0625  0.9541  1.6652
12302TIP3   OH258396   4.751   5.034   0.228 -0.1638 -0.8140 -0.2070
12302TIP3    H158397   4.763   5.125   0.202 -1.6663 -0.9874 -1.5708
12302TIP3    H258398   4.698   5.038   0.307  0.8758 -0.4699  0.4895
12303TIP3   OH258399   0.399   3.832   6.775  0.3461  0.4562 -0.3587
12303TIP3    H158400   0.318   3.830   6.827  0.8324  2.8118  0.5581
12303TIP3    H258401   0.442   3.749   6.795 -0.6432  0.2815  1.1283
12304TIP3   OH258402   2.999   0.265  14.469 -0.1651 -0.0763 -0.1575
12304TIP3    H158403   3.089   0.234  14.462 -0.0155  0.1616  0.6868
12304TIP3    H258404   2.960   0.245  14.383  0.6931 -0.1479 -0.5338
12305TIP3   OH258405   5.155   4.132  15.549 -0.0840 -0.5400  0.3690
12305TIP3    H158406   5.093   4.169  15.485  1.2707 -0.7941 -1.1275
12305TIP3    H258407   5.101   4.075  15.604 -1.4710  0.5063  0.1384
12306TIP3   OH258408   6.297   4.300   5.617 -0.5158  0.2003 -0.0306
12306TIP3    H158409   6.226   4.282   5.679 -1.5741  0.1652 -1.2283
12306TIP3    H258410   6.282   4.390   5.589  0.1266  0.3133 -0.0105
12307TIP3   OH258411   0.910   4.927   5.764 -0.2253 -0.5998  0.3459
12307TIP3    H158412   0.900   4.832   5.776  0.5190 -0.6565  0.5671
12307TIP3    H258413   1.003   4.938   5.742 -0.1043  0.1687  1.2415
12308TIP3   OH258414   4.297   4.170  15.495  0.4319  0.6079 -0.1848
12308TIP3    H158415   4.220   4.158  15.550  1.8097  1.2267  1.9285
12308TIP3    H258416   4.266   4.222  15.421 -0.8043  2.3512  1.5206
12309TIP3   OH258417   3.734   2.322   3.659 -0.3063 -0.2472  0.1805
12309TIP3    H158418   3.798   2.324   3.730  0.5548 -0.5088 -0.5721
12309TIP3    H258419   3.778   2.365   3.585 -0.8106 -0.8705 -0.4957
12310TIP3   OH258420   5.196   4.737  13.628  0.2322 -0.7391 -0.0770
12310TIP3    H158421   5.206   4.679  13.704  2.3746  0.6834  0.7607
12310TIP3    H258422   5.136   4.806  13.658 -1.9968 -2.2220 -0.9475
12311TIP3   OH258423   1.547   0.143  15.165 -0.3372  0.3337 -0.3744
12311TIP3    H158424   1.486   0.106  15.229 -0.4165  1.2069  0.0575
12311TIP3    H258425   1.605   0.199  15.217  0.8358 -0.4885 -0.7777
12312TIP3   OH258426   6.136   5.159   1.078 -0.2114  0.4433 -0.3323
12312TIP3    H158427   6.117   5.095   1.146  0.8636  2.1836  1.6562
12312TIP3    H258428   6.051   5.199   1.059 -0.4803  0.1116  0.1485
12313TIP3   OH258429   1.803   1.224  14.220 -0.4780  0.0238 -0.3838
12313TIP3    H158430   1.710   1.214  14.197 -0.4491 -0.9423 -0.1136
12313TIP3    H258431   1.818   1.157  14.287  0.2413  0.6618  0.0990
12314TIP3   OH258432   6.754   0.031   0.632 -0.2730 -0.2557 -0.1666
12314TIP3    H158433   6.718   0.119   0.619  1.4702  0.5036  0.0092
12314TIP3    H258434   6.677  -0.026   0.639 -1.3995  1.1176 -1.1972
12315TIP3   OH258435   1.226   5.510  12.309  0.2979 -0.8423 -0.1192
12315TIP3    H158436   1.262   5.597  12.293  1.2967 -1.1815  0.2333
12315TIP3    H258437   1.286   5.450  12.264 -0.8657 -1.3002 -1.1071
12316TIP3   OH258438   5.845   2.718  13.101 -0.2263 -0.0202  0.5477
12316TIP3    H158439   5.835   2.688  13.010  1.1013 -1.4186  0.8398
12316TIP3    H258440   5.755   2.735  13.130 -0.9327 -2.4093 -0.1059
12317TIP3   OH258441   0.855   5.448  14.096  0.3527  0.0794 -0.3386
12317TIP3    H158442   0.777   5.424  14.045 -0.2421 -0.8404  0.9709
12317TIP3    H258443   0.825   5.516  14.156  0.4790 -0.5009  0.3868
12318TIP3   OH258444   2.423   0.141  10.262  0.4446  0.3081  0.1380
12318TIP3    H158445   2.386   0.218  10.218  0.1937  0.2168  0.1899
12318TIP3    H258446   2.511   0.132  10.224  0.4651  0.6013  0.1062
12319TIP3   OH258447   0.504   3.038   0.836  0.3459  0.3441 -0.3224
12319TIP3    H158448   0.565   3.104   0.871  0.0601 -0.1214  1.0934
12319TIP3    H258449   0.549   2.955   0.850 -0.4539  0.0283  0.4073
12320TIP3   OH258450   6.600   5.583   1.926 -0.3469 -0.3570  0.1398
12320TIP3    H158451   6.682   5.543   1.956  0.4750  1.0755 -0.1844
12320TIP3    H258452   6.586   5.545   1.839 -1.1681 -2.2243  1.0408
12321TIP3   OH258453   0.396   2.930  11.416 -0.6961  0.4782  0.3193
12321TIP3    H158454   0.425   2.966  11.332 -0.3269  1.0961  0.7123
12321TIP3    H258455   0.310   2.970  11.431 -0.8883  0.1491  0.0999
12322TIP3   OH258456   1.502   2.017  17.101 -0.0055  0.1190  0.1290
12322TIP3    H158457   1.466   2.038  17.188 -1.8919 -0.5045 -0.4684
12322TIP3    H258458   1.593   2.045  17.105 -0.1867  0.4993  2.1744
12323TIP3   OH258459   6.295   2.918   3.189 -0.4720 -0.6439 -0.0001
12323TIP3    H158460   6.357   2.883   3.253 -2.9731 -0.9578  2.3445
12323TIP3    H258461   6.328   3.006   3.171  1.7379 -1.4887 -0.3260
12324TIP3   OH258462   6.787   2.704   5.401  0.7975  0.0470  0.3466
12324TIP3    H158463   6.832   2.782   5.370  0.6053 -0.2072 -0.6172
12324TIP3    H258464   6.697   2.731   5.415  0.5987 -0.1377 -0.5572
12325TIP3   OH258465   2.154   5.069  15.858  0.6140 -0.0988  0.0322
12325TIP3    H158466   2.245   5.083  15.883  0.6536 -0.7501  0.2551
12325TIP3    H258467   2.159   5.007  15.785  0.2638 -1.4551  1.1284
12326TIP3   OH258468   3.831   3.506  15.247  0.6860 -0.8494  0.3724
12326TIP3    H158469   3.760   3.459  15.204  1.2150 -0.1145 -1.3616
12326TIP3    H258470   3.886   3.438  15.285 -0.6634 -1.4411  1.3069
12327TIP3   OH258471   5.432   2.802   2.707 -0.6697 -0.6895  0.3297
12327TIP3    H158472   5.457   2.788   2.798  0.1072  0.7131  0.3547
12327TIP3    H258473   5.366   2.872   2.711 -0.2839 -0.2847 -0.2005
12328TIP3   OH258474   3.330   2.843   2.536 -0.3607 -0.2744 -0.0175
12328TIP3    H158475   3.290   2.762   2.568 -0.6165  0.4908  1.6575
12328TIP3    H258476   3.338   2.898   2.614 -1.9056  2.0389 -1.4203
12329TIP3   OH258477   0.501   2.790   0.306 -0.3334 -0.0459 -0.1645
12329TIP3    H158478   0.486   2.866   0.251 -1.8732 -0.8796 -0.8971
12329TIP3    H258479   0.433   2.794   0.373 -0.3234 -0.7047 -0.1111
12330TIP3   OH258480   5.517   6.736   1.119  0.6004 -0.4258 -0.2920
12330TIP3    H158481   5.511   6.806   1.054  0.8420  0.3184  0.4827
12330TIP3    H258482   5.438   6.683   1.104  1.3198 -1.0340 -2.0625
12331TIP3   OH258483   1.590   4.177   2.290 -0.5380 -0.4088  0.5679
12331TIP3    H158484   1.548   4.108   2.341 -2.6576 -0.9744 -1.8404
12331TIP3    H258485   1.621   4.133   2.211  2.1792  0.5539  1.0573
12332TIP3   OH258486   5.571   6.003   5.078  0.7013 -0.3792  0.2538
12332TIP3    H158487   5.535   5.959   5.155  0.4686  0.9324  0.9284
12332TIP3    H258488   5.632   6.067   5.115  1.6832 -0.7466 -0.7391
12333TIP3   OH258489   0.050   0.289  13.715  0.1320  0.2240  0.1918
12333TIP3    H158490  -0.036   0.273  13.753 -0.3943  1.0928 -0.6282
12333TIP3    H258491   0.086   0.362  13.766  1.0311 -1.0988  1.5271
12334TIP3   OH258492   1.775   3.330  13.404  0.5410  0.6016 -0.2519
12334TIP3    H158493   1.804   3.411  13.444  0.1061 -0.1141  1.5450
12334TIP3    H258494   1.707   3.297  13.462  0.2318 -0.7060 -1.3221
12335TIP3   OH258495   2.624   4.708  16.290 -0.1555  0.3501 -0.3072
12335TIP3    H158496   2.655   4.648  16.222  1.8033 -0.4199  1.2167
12335TIP3    H258497   2.566   4.655  16.344 -1.4079  0.8614 -1.1203
12336TIP3   OH258498   1.554   2.296   4.528 -0.0883 -0.4767  0.8908
12336TIP3    H158499   1.571   2.378   4.574 -2.0987  1.5038 -1.6354
12336TIP3    H258500   1.460   2.300   4.508  0.3499 -1.9848 -1.7853
12337TIP3   OH258501   4.891   1.030  13.066  0.3509 -0.4105 -0.4583
12337TIP3    H158502   4.911   0.949  13.019  1.0583 -1.3337  1.3562
12337TIP3    H258503   4.940   1.021  13.149 -2.7328  0.0510  1.4921
12338TIP3   OH258504   3.032   3.274  14.533  0.3822 -0.3805 -0.0754
12338TIP3    H158505   3.080   3.357  14.526  1.1335 -0.7280  0.8610
12338TIP3    H258506   2.972   3.287  14.606  0.8563 -0.8201  0.4059
12339TIP3   OH258507   4.956   5.795  16.828 -0.3620 -0.0719  0.1546
12339TIP3    H158508   4.965   5.710  16.872  2.7782  0.9603  1.6427
12339TIP3    H258509   4.876   5.832  16.866  0.1753 -0.8650  2.1635
12340TIP3   OH258510   3.938   6.240  12.289 -0.0323 -0.2716  0.1911
12340TIP3    H158511   3.943   6.310  12.224 -1.6730 -1.3872 -1.1660
12340TIP3    H258512   4.024   6.242  12.332  1.3604  0.0174 -2.4702
12341TIP3   OH258513   0.640   5.447  15.921 -0.1268 -0.0058  0.0965
12341TIP3    H158514   0.697   5.409  15.989 -0.9383 -1.5490 -0.0757
12341TIP3    H258515   0.551   5.433  15.953 -0.5012 -0.2427 -1.0126
12342TIP3   OH258516   4.372   5.736   2.803  0.4257  0.5720 -0.3140
12342TIP3    H158517   4.415   5.821   2.792 -0.2446  0.8126 -1.1689
12342TIP3    H258518   4.443   5.675   2.821  1.0318  1.1285 -0.7918
12343TIP3   OH258519   2.014   6.373   0.187 -0.5981  0.6159 -0.4876
12343TIP3    H158520   1.944   6.424   0.146 -0.4306 -0.1735 -1.7653
12343TIP3    H258521   2.068   6.343   0.114 -0.4209 -0.9800  0.2926
12344TIP3   OH258522   3.984   3.845  12.700 -0.2608  0.6132  0.0320
12344TIP3    H158523   4.008   3.912  12.763  1.1079  0.7990 -0.6775
12344TIP3    H258524   3.902   3.808  12.734 -0.6608  2.1580  0.7826
12345TIP3   OH258525   2.836   5.191   3.273 -0.6248 -0.6051  0.5789
12345TIP3    H158526   2.785   5.271   3.282  0.0552  0.2399 -2.5201
12345TIP3    H258527   2.927   5.220   3.282 -0.4669 -1.4188  1.7424
12346TIP3   OH258528   0.190   3.237   0.589  0.7560  0.4693  0.2473
12346TIP3    H158529   0.096   3.217   0.584  0.6978  0.6814  0.4853
12346TIP3    H258530   0.227   3.198   0.510  0.3694  0.8981 -0.1496
12347TIP3   OH258531   1.376   0.108  16.143 -0.1961 -0.3681  0.6262
12347TIP3    H158532   1.456   0.159  16.133 -0.4607  0.0832  0.7706
12347TIP3    H258533   1.336   0.141  16.223 -0.8618 -0.1198  0.2015
12348TIP3   OH258534   0.400   4.278  17.108  0.0643  0.3742 -0.2874
12348TIP3    H158535   0.420   4.367  17.140  1.8196 -0.4057  0.8317
12348TIP3    H258536   0.314   4.259  17.146  0.4460  0.9420  0.8959
12349TIP3   OH258537   4.172   3.333   3.382  0.0301 -0.2280  0.5165
12349TIP3    H158538   4.174   3.425   3.355  0.0528  0.3642  2.4779
12349TIP3    H258539   4.110   3.330   3.455 -0.3114 -1.8605  0.1884
12350TIP3   OH258540   2.980   6.239  13.365  0.0411  0.5475  0.0484
12350TIP3    H158541   2.936   6.275  13.288 -0.5755 -0.0357  0.1253
12350TIP3    H258542   3.048   6.183  13.330 -0.0394  0.5254 -0.0733
12351TIP3   OH258543   2.768   4.288  15.960 -0.2986 -0.1102  0.3924
12351TIP3    H158544   2.726   4.340  15.891 -1.6632  1.9828  2.6876
12351TIP3    H258545   2.719   4.206  15.962 -0.9334  0.2447 -0.4412
12352TIP3   OH258546   5.015   6.513   2.638  0.0515  0.9538  0.8936
12352TIP3    H158547   5.107   6.538   2.633 -0.5549  2.9199 -1.7597
12352TIP3    H258548   4.969   6.593   2.665 -1.1579  0.7838 -0.5569
12353TIP3   OH258549   0.568   0.009   5.821  0.5094  0.0541  0.2985
12353TIP3    H158550   0.516   0.027   5.899  0.4644 -1.5621  0.6491
12353TIP3    H258551   0.538  -0.077   5.790  0.8856  0.4366 -1.2007
12354TIP3   OH258552   0.357   1.328   2.966  0.5648 -1.0070 -0.1164
12354TIP3    H158553   0.358   1.414   2.924  0.9917 -1.4102 -0.9375
12354TIP3    H258554   0.377   1.345   3.058  0.5279 -0.2171 -0.2565
12355TIP3   OH258555   6.761   6.600  14.422 -0.1838  0.1204 -0.2227
12355TIP3    H158556   6.791   6.569  14.336 -0.6429 -2.3606  0.4830
12355TIP3    H258557   6.837   6.643  14.460  1.2215 -2.2707 -0.2548
12356TIP3   OH258558   2.514   2.697  11.071  0.1309  0.2128 -0.0317
12356TIP3    H158559   2.573   2.744  11.013 -0.9513  1.1374 -0.3963
12356TIP3    H258560   2.572   2.644  11.126  1.1961 -0.1513 -1.4833
12357TIP3   OH258561   1.281   3.351   2.545 -0.8565  0.3281  0.1544
12357TIP3    H158562   1.365   3.329   2.585 -1.4546 -0.9518  0.7303
12357TIP3    H258563   1.272   3.445   2.559 -0.2794  0.1859  1.5695
12358TIP3   OH258564   4.954   6.754   0.984 -0.6078  0.1464 -0.1403
12358TIP3    H158565   4.920   6.834   1.024 -2.7558 -0.3700 -0.8793
12358TIP3    H258566   4.916   6.751   0.897 -0.0715 -1.3785 -0.3506
12359TIP3   OH258567   2.126   5.447  11.349  0.3891 -0.2287 -0.0347
12359TIP3    H158568   2.108   5.432  11.256 -1.7929  0.2857  0.2748
12359TIP3    H258569   2.096   5.366  11.392 -0.9596  0.5120  0.4590
12360TIP3   OH258570   4.485   1.481  15.220  0.4893  0.1447 -0.4356
12360TIP3    H158571   4.473   1.481  15.315  2.0223  0.4407 -0.2324
12360TIP3    H258572   4.429   1.552  15.188 -0.5560 -0.4003  0.1624
12361TIP3   OH258573   2.802   5.610   4.703  0.3177 -0.1253  0.5974
12361TIP3    H158574   2.727   5.626   4.760 -1.3951 -0.9037 -1.3726
12361TIP3    H258575   2.843   5.696   4.692 -1.4829  0.6868  0.0844
12362TIP3   OH258576   1.424   5.813  12.897 -0.4662 -0.5804 -0.5941
12362TIP3    H158577   1.437   5.905  12.920 -1.1038 -1.1199  2.0962
12362TIP3    H258578   1.408   5.814  12.802 -0.8600  2.0933 -0.5487
12363TIP3   OH258579   3.952   2.979   1.530  0.2534 -0.3905  0.2957
12363TIP3    H158580   3.927   2.892   1.563 -1.4541  0.0945  0.3132
12363TIP3    H258581   4.025   2.962   1.470  1.2919 -1.6211  1.8402
12364TIP3   OH258582   5.354   3.453   4.606  0.8514  0.1190  0.0099
12364TIP3    H158583   5.367   3.423   4.696 -0.5313  2.4729  1.0453
12364TIP3    H258584   5.441   3.448   4.566  1.1506 -2.6094  0.9268
12365TIP3   OH258585   2.323   2.733  15.695 -0.6670  0.0183 -0.1973
12365TIP3    H158586   2.276   2.742  15.778  2.2565  2.6757  1.2850
12365TIP3    H258587   2.291   2.805  15.641 -0.4945  0.0353 -0.2779
12366TIP3   OH258588   3.053   4.711   1.170 -0.7723  0.4376  0.2433
12366TIP3    H158589   3.146   4.736   1.167 -0.3945 -0.8866  0.4095
12366TIP3    H258590   3.012   4.779   1.224 -0.3028  2.2132 -1.5630
12367TIP3   OH258591   2.199   5.153   5.087 -0.0724 -0.1819 -0.5516
12367TIP3    H158592   2.210   5.059   5.079  0.6967 -0.1271 -0.1611
12367TIP3    H258593   2.196   5.170   5.181 -1.4660  0.0443 -0.6282
12368TIP3   OH258594   2.702   2.086  12.620  0.1751 -0.1667 -0.5846
12368TIP3    H158595   2.612   2.083  12.587 -0.3624  1.9684  0.5535
12368TIP3    H258596   2.738   2.167  12.582  2.5278 -2.2774 -3.1459
12369TIP3   OH258597   3.786   6.316   0.803 -0.0780  0.3721 -0.1763
12369TIP3    H158598   3.839   6.396   0.800  0.4138  0.0995  0.9750
12369TIP3    H258599   3.702   6.341   0.764  0.1190  1.4243  0.0669
12370TIP3   OH258600   2.017   1.401  14.284  0.3809  0.0254  0.1625
12370TIP3    H158601   2.042   1.480  14.236  0.0644  0.4056  0.6195
12370TIP3    H258602   1.932   1.377  14.249  0.5044 -0.1531 -0.0195
12371TIP3   OH258603   1.582   2.029  16.013 -0.3717 -0.4021 -0.3073
12371TIP3    H158604   1.559   1.936  16.013 -0.8769 -0.2773 -0.0586
12371TIP3    H258605   1.500   2.074  16.033 -0.3143  0.1416 -1.2488
12372TIP3   OH258606   2.895   1.703   1.328  0.4238  1.1491 -0.0025
12372TIP3    H158607   2.963   1.693   1.261  0.3242  0.2756  0.0173
12372TIP3    H258608   2.936   1.756   1.396  0.9694  0.9149 -0.1491
12373TIP3   OH258609   2.303   4.935  14.556 -0.2040  0.1600  0.2451
12373TIP3    H158610   2.294   4.966  14.466  2.2353  2.7205  0.8279
12373TIP3    H258611   2.376   4.985  14.592 -2.8603  1.2296  4.5360
12374TIP3   OH258612   4.032   2.247  12.061  0.0895 -0.0248  0.1063
12374TIP3    H158613   4.100   2.216  12.001 -0.9136 -1.1722 -0.4591
12374TIP3    H258614   3.955   2.195  12.038 -1.1883  1.7934  0.2318
12375TIP3   OH258615   0.154   2.013  16.904  0.2616 -0.3881 -0.5125
12375TIP3    H158616   0.072   2.011  16.954 -0.0031  0.1296 -0.9196
12375TIP3    H258617   0.129   1.986  16.816 -0.1743  3.0752 -1.5619
12376TIP3   OH258618   2.496   0.325   0.553  0.7206 -0.2106 -0.3939
12376TIP3    H158619   2.568   0.272   0.588  0.3459 -0.7113 -0.3622
12376TIP3    H258620   2.485   0.395   0.617 -0.4424 -1.5380  0.9066
12377TIP3   OH258621   3.077   6.710  14.559  0.1941  0.2406  0.1859
12377TIP3    H158622   2.983   6.694  14.562  0.2065  0.0348 -0.4566
12377TIP3    H258623   3.097   6.751  14.644 -0.7156  1.6077 -0.2469
12378TIP3   OH258624   2.505   5.412  12.736  0.2065  0.0030  0.2485
12378TIP3    H158625   2.481   5.478  12.801  0.5430 -0.4475  0.8365
12378TIP3    H258626   2.506   5.459  12.653  0.3383  0.7085  0.6490
12379TIP3   OH258627   3.850   2.964  14.094  0.0741 -0.1182  0.0530
12379TIP3    H158628   3.917   3.016  14.049  0.3185 -0.5997 -0.1416
12379TIP3    H258629   3.890   2.942  14.178 -0.1405  0.2474  0.2529
12380TIP3   OH258630   2.177   1.499   0.622  0.1090  0.4348  0.3126
12380TIP3    H158631   2.193   1.442   0.547 -0.1253  0.9241 -0.1189
12380TIP3    H258632   2.263   1.530   0.649  0.2555 -0.2768  0.6775
12381TIP3   OH258633   4.151   1.612   4.873 -0.0707 -0.5400 -0.3697
12381TIP3    H158634   4.224   1.669   4.851  1.5290 -1.8308  1.4083
12381TIP3    H258635   4.172   1.580   4.961 -2.5717 -1.2564 -0.0040
12382TIP3   OH258636   4.270   0.400   0.267 -0.0374  0.2447  0.6981
12382TIP3    H158637   4.364   0.389   0.249 -0.3043 -1.8967  0.4127
12382TIP3    H258638   4.234   0.429   0.184  0.0004 -1.5302  0.0292
12383TIP3   OH258639   4.004   3.285  15.110  0.1575  0.2971 -0.2453
12383TIP3    H158640   4.089   3.306  15.071  0.2426 -0.3381 -0.4071
12383TIP3    H258641   4.016   3.301  15.204  1.0349 -1.5917 -0.0036
12384TIP3   OH258642   6.229   1.953  16.475 -0.2412 -0.5469  0.1831
12384TIP3    H158643   6.296   1.887  16.494 -0.2961 -0.8228 -0.5537
12384TIP3    H258644   6.151   1.903  16.452 -0.0046 -0.2598 -1.3574
12385TIP3   OH258645   3.166   6.109   2.283 -0.6216  0.1176 -0.0516
12385TIP3    H158646   3.196   6.045   2.218 -0.6971  1.8335 -1.8254
12385TIP3    H258647   3.100   6.062   2.334  0.0073 -1.5076 -0.6870
12386TIP3   OH258648   0.822   1.968  16.480 -0.3679 -0.1252 -0.4365
12386TIP3    H158649   0.839   2.053  16.440 -0.1667  0.0184 -0.0467
12386TIP3    H258650   0.731   1.972  16.509  0.1833  0.6314  1.2344
12387TIP3   OH258651   6.291   3.560   0.390 -0.0866 -0.5047 -0.0696
12387TIP3    H158652   6.286   3.488   0.453  0.5749 -0.6765 -0.2075
12387TIP3    H258653   6.261   3.637   0.439 -0.7295 -0.8579  0.0973
12388TIP3   OH258654   2.034   1.950   5.997  0.1169  0.3680 -0.2508
12388TIP3    H158655   1.989   2.031   6.021 -0.4592  0.0413 -0.2137
12388TIP3    H258656   2.117   1.954   6.044  0.1823  1.0380 -0.4218
12389TIP3   OH258657   0.382   6.190  16.519 -0.0983 -0.3705 -0.1343
12389TIP3    H158658   0.466   6.169  16.478  0.1950 -0.8733  0.7342
12389TIP3    H258659   0.320   6.193  16.445  0.4270 -1.2884 -0.6120
12390TIP3   OH258660   4.032   2.028   2.912  0.4015  0.7560 -0.4237
12390TIP3    H158661   4.085   2.005   2.988 -2.4382  0.0679  1.4227
12390TIP3    H258662   4.036   2.123   2.907  1.4534  0.7329 -0.0597
12391TIP3   OH258663   5.934   1.514   5.366  0.2697 -0.3317 -0.0723
12391TIP3    H158664   5.856   1.472   5.402  0.3528  0.3443  0.9427
12391TIP3    H258665   5.996   1.443   5.351 -0.7780 -0.9493 -1.5067
12392TIP3   OH258666   1.111   3.190  14.020  0.6982 -0.3948  0.1503
12392TIP3    H158667   1.054   3.231  14.085  0.9441 -2.1048  1.4565
12392TIP3    H258668   1.114   3.254  13.948 -3.1102 -0.4159 -0.1207
12393TIP3   OH258669   0.507   4.408  15.583 -0.5234  0.3411 -0.1807
12393TIP3    H158670   0.451   4.369  15.515 -0.9029  1.4626 -0.5203
12393TIP3    H258671   0.459   4.392  15.664 -0.1605 -0.8355 -0.1853
12394TIP3   OH258672   1.426   4.229   4.930 -0.5033  0.1682 -0.3169
12394TIP3    H158673   1.440   4.291   5.001 -0.8872 -0.1255  0.0152
12394TIP3    H258674   1.514   4.209   4.897 -0.3089  0.0977  0.2517
12395TIP3   OH258675   5.204   0.973  12.967  0.6607 -0.1356 -0.1485
12395TIP3    H158676   5.210   0.927  12.883  0.3487 -1.9290  0.7907
12395TIP3    H258677   5.140   0.922  13.017  2.0104  0.0100  1.7582
12396TIP3   OH258678   5.282   1.835   2.989  0.0309 -0.5934  0.2453
12396TIP3    H158679   5.250   1.788   2.912  0.1221 -0.3222  0.0394
12396TIP3    H258680   5.341   1.774   3.032 -0.9673 -1.2030  0.7761
12397TIP3   OH258681   3.066   4.072   4.206  0.4488 -0.2947  0.6057
12397TIP3    H158682   3.102   4.160   4.213 -1.0675  0.2674  1.7651
12397TIP3    H258683   3.090   4.030   4.289 -0.3763 -0.3767  0.8024
12398TIP3   OH258684   0.073   0.942  11.888  0.1404  0.0843  0.9273
12398TIP3    H158685   0.125   0.899  11.956 -1.3445  1.4893  3.0285
12398TIP3    H258686   0.061   0.875  11.821  1.7631 -1.2997  1.9850
12399TIP3   OH258687   6.704   2.866  14.308  0.2123  0.3447 -0.2983
12399TIP3    H158688   6.632   2.805  14.318 -0.2314  0.7575 -0.9492
12399TIP3    H258689   6.760   2.850  14.384  0.0834 -0.8355 -0.4442
12400TIP3   OH258690   3.163   1.668  10.870  0.3858  0.7103 -0.6124
12400TIP3    H158691   3.240   1.664  10.928  1.0678 -0.2797 -1.5625
12400TIP3    H258692   3.163   1.759  10.838  0.5989  0.9838  0.1374
12401TIP3   OH258693   2.317   0.496   4.277  0.4236  0.2967  0.3162
12401TIP3    H158694   2.255   0.443   4.226  0.4832 -0.6634  1.2262
12401TIP3    H258695   2.350   0.437   4.344  0.7383  1.4112  1.1609
12402TIP3   OH258696   6.062   6.147   5.200  0.3945  0.2401  0.2720
12402TIP3    H158697   6.146   6.193   5.191  0.7648 -1.0180 -3.5997
12402TIP3    H258698   6.072   6.094   5.279  2.8389  0.9362  0.4651
12403TIP3   OH258699   6.418   6.516   6.399  0.4194 -0.2720  0.4025
12403TIP3    H158700   6.475   6.465   6.456  2.2150  1.3051  0.0568
12403TIP3    H258701   6.429   6.606   6.429 -1.6355  0.1073  0.0870
12404TIP3   OH258702   6.604   0.487  16.721  0.6294 -0.2558  0.2703
12404TIP3    H158703   6.597   0.505  16.627  0.8887 -1.0415  0.1001
12404TIP3    H258704   6.513   0.473  16.750  0.6312 -0.9354 -0.0474
12405TIP3   OH258705   6.028   2.885  16.131  0.1641  0.7975 -0.1905
12405TIP3    H158706   6.117   2.904  16.101  0.2770 -1.2333 -1.2414
12405TIP3    H258707   6.023   2.789  16.132 -1.8490  0.8829  0.3842
12406TIP3   OH258708   3.384   4.792   5.262  0.4780  0.2410 -0.2143
12406TIP3    H158709   3.341   4.737   5.327 -2.2156  1.6884 -0.6892
12406TIP3    H258710   3.474   4.800   5.293 -0.7961  1.1356  3.5374
12407TIP3   OH258711   2.682   3.844  11.931  0.3198 -0.0096 -0.7876
12407TIP3    H158712   2.613   3.825  11.868 -1.3289 -0.2477  1.0461
12407TIP3    H258713   2.743   3.771  11.924 -1.4283 -1.5826  0.0105
12408TIP3   OH258714   4.928   3.531   3.058 -0.0524  0.0321 -0.1426
12408TIP3    H158715   4.933   3.626   3.050 -2.9037  0.3645  1.1315
12408TIP3    H258716   4.955   3.513   3.148 -1.2437 -0.1580  0.1882
12409TIP3   OH258717   0.290   6.696  13.799 -0.1996  0.0866  0.0878
12409TIP3    H158718   0.231   6.634  13.843  0.7931 -2.6479 -2.2482
12409TIP3    H258719   0.376   6.677  13.835  0.2776 -0.6791 -1.4023
12410TIP3   OH258720   6.599   6.760   3.800  0.3973  0.7968 -0.5555
12410TIP3    H158721   6.631   6.669   3.804  1.3432  1.1425 -0.1386
12410TIP3    H258722   6.536   6.760   3.727 -0.0792 -0.3366 -0.1698
12411TIP3   OH258723   0.887   5.292  11.074 -0.5294  0.2272 -0.0610
12411TIP3    H158724   0.802   5.286  11.031 -0.1121 -1.7749 -0.6751
12411TIP3    H258725   0.938   5.220  11.035 -0.1082 -1.6247  3.7161
12412TIP3   OH258726   0.234   5.717  16.982 -0.0525  0.5495  0.0636
12412TIP3    H158727   0.233   5.734  16.888 -0.2845 -0.1754 -0.0659
12412TIP3    H258728   0.175   5.784  17.019 -1.7540 -0.5782 -0.5455
12413TIP3   OH258729   1.574   0.533   2.883  0.0689 -0.2307 -0.4968
12413TIP3    H158730   1.486   0.539   2.845  0.0954 -0.4483 -0.5961
12413TIP3    H258731   1.561   0.489   2.967 -0.0659  0.7827  0.0183
12414TIP3   OH258732   3.022   4.838  11.984  0.1375 -0.4083 -0.0725
12414TIP3    H158733   3.000   4.929  12.004  0.9181 -0.4188  0.8503
12414TIP3    H258734   2.941   4.790  11.997  0.2636 -0.1819  1.6264
12415TIP3   OH258735   2.005   1.963  10.955  0.0524  0.4117  0.2793
12415TIP3    H158736   2.037   2.042  10.912 -2.4894  1.3057 -0.0136
12415TIP3    H258737   2.074   1.898  10.938  0.8107  1.7369 -1.9761
12416TIP3   OH258738   2.132   4.070  15.748  0.1298  0.1934 -0.2346
12416TIP3    H158739   2.186   4.139  15.786  0.7656 -0.4390  0.0300
12416TIP3    H258740   2.046   4.110  15.737  0.5321  1.0776 -0.2394
12417TIP3   OH258741   0.732   6.289   0.980 -0.4498 -0.8119  0.6224
12417TIP3    H158742   0.818   6.302   1.019 -0.4589  2.2878 -0.2564
12417TIP3    H258743   0.750   6.268   0.889 -0.6217  0.1599  0.3618
12418TIP3   OH258744   4.461   2.900   6.293  0.7119 -0.1905 -0.3115
12418TIP3    H158745   4.496   2.896   6.204 -0.2631  0.7796 -0.7450
12418TIP3    H258746   4.374   2.860   6.287  0.3236  0.6032  0.0441
12419TIP3   OH258747   1.813   0.987   0.890 -0.0712  0.1491 -0.1517
12419TIP3    H158748   1.815   1.065   0.946  0.7223 -0.3619  0.5441
12419TIP3    H258749   1.834   0.915   0.949  1.2925 -0.3325 -1.2178
12420TIP3   OH258750   2.638   1.881  16.936  0.5767  0.0277 -0.0505
12420TIP3    H158751   2.577   1.808  16.946  1.2986 -0.6506 -0.5698
12420TIP3    H258752   2.591   1.944  16.881  0.1530 -0.2625 -0.0225
12421TIP3   OH258753   4.373   4.791  13.162  0.1082  0.0485 -0.5851
12421TIP3    H158754   4.392   4.830  13.077 -1.0911 -0.4146 -1.0819
12421TIP3    H258755   4.438   4.829  13.221  0.2468  1.2243 -1.4694
12422TIP3   OH258756   2.893   4.097  11.114  0.2159  0.0361 -0.2973
12422TIP3    H158757   2.844   4.016  11.097  1.1531 -0.3119 -1.4273
12422TIP3    H258758   2.878   4.150  11.036  1.6177 -0.0706 -0.6549
12423TIP3   OH258759   3.553   4.130  11.860 -0.1907 -0.1417 -0.3046
12423TIP3    H158760   3.640   4.090  11.857 -0.7385 -1.5949  1.7848
12423TIP3    H258761   3.501   4.071  11.915 -1.6281  2.2972  1.0944
12424TIP3   OH258762   4.771   0.150   0.692  0.1321 -0.1249  0.0374
12424TIP3    H158763   4.839   0.084   0.685 -0.2911 -0.5357 -0.2174
12424TIP3    H258764   4.695   0.112   0.648 -0.0071  0.6811 -0.4401
12425TIP3   OH258765   3.328   5.832   2.877  0.1549  0.4664 -0.2407
12425TIP3    H158766   3.389   5.833   2.803  0.6317  2.4649  0.1496
12425TIP3    H258767   3.382   5.810   2.953 -0.1366 -0.5256 -0.3170
12426TIP3   OH258768   6.713   1.024   5.082  0.1143 -0.1755  0.1813
12426TIP3    H158769   6.797   1.018   5.036  0.0010 -0.4819  0.0204
12426TIP3    H258770   6.735   1.008   5.174  0.2995  0.1784  0.2009
12427TIP3   OH258771   3.467   4.972   3.326  0.4012 -0.5841  0.2664
12427TIP3    H158772   3.444   4.917   3.402  0.3228  1.3231  1.6518
12427TIP3    H258773   3.549   5.014   3.351  1.3843 -1.3688 -1.5091
12428TIP3   OH258774   6.107   6.561  11.375  0.4802 -0.3136 -0.1562
12428TIP3    H158775   6.162   6.635  11.351 -0.4464  0.8215  1.1522
12428TIP3    H258776   6.078   6.580  11.464  1.2507 -2.8674  0.6798
12429TIP3   OH258777   3.030   4.183  12.928 -0.5186  0.2293  0.6083
12429TIP3    H158778   2.935   4.197  12.931 -0.5972 -0.1355  0.0449
12429TIP3    H258779   3.061   4.243  12.860 -0.5420 -0.6230 -0.1721
12430TIP3   OH258780   5.129   3.803  14.822  0.2770  0.4267 -0.2058
12430TIP3    H158781   5.114   3.713  14.794  0.5844  0.3416 -0.1042
12430TIP3    H258782   5.165   3.846  14.744  0.2247  0.4343 -0.2247
12431TIP3   OH258783   4.283   6.734  17.053  0.0850  0.1058 -0.4666
12431TIP3    H158784   4.191   6.758  17.066  0.1139  0.2876 -0.5873
12431TIP3    H258785   4.295   6.736  16.958  0.8650  2.6035 -0.3576
12432TIP3   OH258786   2.286   6.604   3.066  0.4730 -0.4695  0.0494
12432TIP3    H158787   2.345   6.540   3.105 -0.3429 -0.7498  0.8379
12432TIP3    H258788   2.223   6.624   3.135  1.2453  1.8743  0.1119
12433TIP3   OH258789   4.468   2.056   5.559 -0.6776 -0.1807  0.4822
12433TIP3    H158790   4.416   2.127   5.522 -0.6463 -0.3535  0.1040
12433TIP3    H258791   4.481   1.995   5.487  3.3708  1.7019 -0.5628
12434TIP3   OH258792   0.945   1.224   1.767  0.6990 -0.1246  0.2561
12434TIP3    H158793   0.950   1.195   1.676  1.7034  0.2868  0.1701
12434TIP3    H258794   0.853   1.245   1.781 -0.0540 -3.3406  0.3374
12435TIP3   OH258795   2.107   5.495   2.206  0.4471  0.4731  0.2172
12435TIP3    H158796   2.025   5.473   2.162  0.2173  0.8168  0.4740
12435TIP3    H258797   2.082   5.504   2.299  1.6692 -4.6911  1.2078
12436TIP3   OH258798   5.657   4.834  14.092 -0.4036 -0.8476 -0.3861
12436TIP3    H158799   5.708   4.773  14.145  0.2902 -0.1689 -0.2685
12436TIP3    H258800   5.627   4.901  14.155  1.2952  0.5345 -1.0067
12437TIP3   OH258801   0.122   2.886  15.994 -0.4689  0.2167 -0.0579
12437TIP3    H158802   0.157   2.804  16.029 -1.7451  0.3195  1.5031
12437TIP3    H258803   0.158   2.954  16.051  0.1603  0.7065 -1.0291
12438TIP3   OH258804   5.312   1.913   4.544  0.3987  0.5222 -0.3039
12438TIP3    H158805   5.221   1.890   4.561  0.9586 -1.7910 -0.1335
12438TIP3    H258806   5.350   1.930   4.630  0.3146  0.6722 -0.2979
12439TIP3   OH258807   1.999   5.744   6.812  0.3765  0.5197  0.0977
12439TIP3    H158808   1.980   5.671   6.871  0.5472  0.7153  0.4021
12439TIP3    H258809   2.086   5.774   6.839  1.2942 -0.6053 -1.5258
12440TIP3   OH258810   3.956   0.468  14.848 -0.3371 -0.0672 -0.4533
12440TIP3    H158811   3.954   0.547  14.902  4.2894 -1.2079  1.6276
12440TIP3    H258812   4.003   0.493  14.769 -1.4854 -0.0280 -1.1376
12441TIP3   OH258813   1.625   1.184   3.382  1.0153  1.0421 -0.3213
12441TIP3    H158814   1.690   1.116   3.395 -0.3809 -0.0738  1.0718
12441TIP3    H258815   1.554   1.140   3.334  0.8084  1.9543 -0.8696
12442TIP3   OH258816   3.785   1.532  12.543  0.3134  0.3328 -0.2363
12442TIP3    H158817   3.704   1.543  12.592  0.0690  1.6519 -0.9034
12442TIP3    H258818   3.782   1.443  12.510  0.7389 -0.7737  2.5909
12443TIP3   OH258819   1.987   3.452   3.391  0.3538  0.3518  0.3724
12443TIP3    H158820   2.040   3.405   3.455 -0.4956  0.3547  1.0784
12443TIP3    H258821   1.995   3.544   3.415  0.2452  0.3761  0.3202
12444TIP3   OH258822   4.294   3.701   4.240 -0.3011 -0.7500 -0.0436
12444TIP3    H158823   4.263   3.631   4.182 -0.5677 -2.0785  1.6530
12444TIP3    H258824   4.223   3.714   4.302  0.5786 -0.3971  0.9043
12445TIP3   OH258825   3.531   1.307   2.137  0.7925 -0.0797 -0.4938
12445TIP3    H158826   3.627   1.304   2.141  1.0117  1.4376 -3.2094
12445TIP3    H258827   3.508   1.238   2.075  0.0510 -1.0520  0.8613
12446TIP3   OH258828   2.401   4.929   4.035 -0.4180 -0.1085  0.3945
12446TIP3    H158829   2.329   4.931   4.097  0.3026 -2.0575  1.3222
12446TIP3    H258830   2.477   4.903   4.087  1.2761  3.1819 -0.2944
12447TIP3   OH258831   6.674   5.512   4.441 -0.2394 -0.5945  0.0371
12447TIP3    H158832   6.752   5.457   4.433 -0.9189 -1.6011  0.3495
12447TIP3    H258833   6.601   5.454   4.419 -0.8323  0.5710 -1.1272
12448TIP3   OH258834   3.028   5.060  12.409  0.0484 -0.4555 -0.5686
12448TIP3    H158835   3.063   4.979  12.370  0.1146 -0.3613 -0.7046
12448TIP3    H258836   2.934   5.056  12.391  0.1802 -0.0618 -1.3742
12449TIP3   OH258837   3.876   0.019   5.178 -0.7859 -0.0747 -0.2156
12449TIP3    H158838   3.961   0.056   5.202 -1.0252 -1.2403  2.6537
12449TIP3    H258839   3.817   0.094   5.175  0.3217  0.7621 -2.3788
12450TIP3   OH258840   5.785   6.405   5.861  0.4472  0.1165 -0.0614
12450TIP3    H158841   5.810   6.496   5.874 -1.3727  0.5069  0.7782
12450TIP3    H258842   5.761   6.373   5.948 -3.2823  0.1700 -1.0055
12451TIP3   OH258843   3.446   1.921   1.737 -0.2349 -0.2700  0.5642
12451TIP3    H158844   3.390   1.975   1.682 -0.4848  0.2609  1.3274
12451TIP3    H258845   3.437   1.833   1.701 -1.6582 -0.2093  0.7548
12452TIP3   OH258846   3.626   2.341   1.857 -0.2860  0.3812  0.3064
12452TIP3    H158847   3.585   2.348   1.943  0.2555  1.5942  0.4671
12452TIP3    H258848   3.656   2.250   1.852  0.2139  0.4663  1.6384
12453TIP3   OH258849   3.796   1.895  12.234 -0.1919  0.1059 -0.4331
12453TIP3    H158850   3.738   1.842  12.180  1.4574 -0.6779 -1.4819
12453TIP3    H258851   3.838   1.833  12.293 -1.6904  0.9036  1.5340
12454TIP3   OH258852   0.443   0.373  11.265  0.4826  0.5155  0.1201
12454TIP3    H158853   0.477   0.285  11.277  3.0855  1.6555  1.6802
12454TIP3    H258854   0.370   0.363  11.204 -1.1497 -3.0871  2.4844
12455TIP3   OH258855   0.968   4.658   1.613  0.2560 -0.4858  0.1018
12455TIP3    H158856   1.054   4.700   1.626 -0.2116  0.6415 -0.3873
12455TIP3    H258857   0.969   4.584   1.673  1.2135  0.0707  0.7998
12456TIP3   OH258858   3.140   4.775  12.357 -0.3838 -0.4557 -0.4250
12456TIP3    H158859   3.133   4.712  12.285  1.4909  0.9541 -1.8804
12456TIP3    H258860   3.180   4.852  12.318 -0.5850  0.8361  1.8420
12457TIP3   OH258861   5.308   5.764  13.641  0.2090 -0.0721 -0.6106
12457TIP3    H158862   5.224   5.807  13.658 -0.2643 -1.9528  2.0984
12457TIP3    H258863   5.331   5.723  13.724  3.7645  0.2520 -1.3542
12458TIP3   OH258864   1.240   0.511   5.010 -0.0921  0.1068  0.3072
12458TIP3    H158865   1.323   0.513   5.058  0.4788  1.4601 -0.6808
12458TIP3    H258866   1.222   0.418   4.996  1.4358 -0.1974  0.2548
12459TIP3   OH258867   1.309   3.670   1.309 -0.1594  0.1129  0.0694
12459TIP3    H158868   1.245   3.737   1.331  0.0859  0.3789 -0.0161
12459TIP3    H258869   1.387   3.719   1.282  0.1099 -0.2044  0.2588
12460TIP3   OH258870   0.141   5.241   5.392 -0.1908  0.8209 -0.2088
12460TIP3    H158871   0.233   5.269   5.386  0.0839  0.1567  0.7437
12460TIP3    H258872   0.107   5.252   5.303  0.7995  1.1195 -0.5642
12461TIP3   OH258873   3.910   3.773   3.780 -0.0267 -0.3858 -0.3097
12461TIP3    H158874   3.873   3.686   3.767 -1.1690  0.0500  0.0121
12461TIP3    H258875   3.836   3.832   3.771  0.6370  0.5103  0.0946
12462TIP3   OH258876   0.363   3.012   4.457 -0.0343 -0.3669 -0.1731
12462TIP3    H158877   0.418   2.936   4.474  0.9603  0.4781  0.4677
12462TIP3    H258878   0.275   2.977   4.449  0.5993 -1.7406 -1.2333
12463TIP3   OH258879   4.280   5.968   1.008  0.1237 -0.9634 -0.2056
12463TIP3    H158880   4.261   6.047   0.957  0.6018 -1.0608 -0.5453
12463TIP3    H258881   4.354   5.993   1.063 -1.7550 -0.2020  2.0184
12464TIP3   OH258882   4.292   0.689   2.808 -0.0150 -0.3250 -0.0083
12464TIP3    H158883   4.245   0.770   2.790 -0.0809 -0.4634 -0.4699
12464TIP3    H258884   4.338   0.705   2.890  1.2463  0.7438 -0.9164
12465TIP3   OH258885   2.504   5.142  12.725  0.1832  0.1400 -0.1464
12465TIP3    H158886   2.413   5.118  12.705 -0.5010  2.9042 -0.5685
12465TIP3    H258887   2.499   5.234  12.751  2.5793 -0.3236  2.1044
12466TIP3   OH258888   2.049   1.785  17.074  0.2573  0.3837  0.1867
12466TIP3    H158889   1.988   1.754  17.141 -0.4233  2.3287  0.5099
12466TIP3    H258890   2.045   1.880  17.081  0.9069  0.5928 -1.9851
12467TIP3   OH258891   4.198   3.964  13.261 -0.1613 -0.2219  0.1773
12467TIP3    H158892   4.212   4.003  13.347 -0.9626 -1.0143  0.6780
12467TIP3    H258893   4.244   4.022  13.201 -0.3778  0.8685  1.0315
12468TIP3   OH258894   3.546   4.005   3.330 -0.1762 -0.8494  0.0879
12468TIP3    H158895   3.595   4.079   3.366 -2.2247  2.3733 -3.4037
12468TIP3    H258896   3.466   4.002   3.382 -1.0830  0.8733 -1.1617
12469TIP3   OH258897   4.607   5.320  11.383  0.0625  0.3793  0.0318
12469TIP3    H158898   4.546   5.395  11.386  0.4369  0.7769 -1.4542
12469TIP3    H258899   4.553   5.245  11.405 -0.9458  0.7566 -1.0892
12470TIP3   OH258900   1.861   1.144   2.971  0.4913 -0.4788  0.2105
12470TIP3    H158901   1.821   1.065   3.007  0.1997 -1.4073 -2.0258
12470TIP3    H258902   1.947   1.115   2.940 -0.0884 -0.2589 -1.7233
12471TIP3   OH258903   5.753   6.796   2.900  0.4612 -0.3738  0.4844
12471TIP3    H158904   5.739   6.701   2.895 -1.3238 -0.0766 -0.7418
12471TIP3    H258905   5.778   6.821   2.811 -2.1277  0.7173  0.0077
12472TIP3   OH258906   1.392   0.878   5.875 -0.4376  0.1665  0.2950
12472TIP3    H158907   1.454   0.894   5.946  0.9278 -0.4890 -0.7191
12472TIP3    H258908   1.356   0.964   5.854 -0.1143  0.5021  1.1216
12473TIP3   OH258909   3.229   5.686  15.341  0.1348 -0.0225 -0.3550
12473TIP3    H158910   3.159   5.624  15.358 -0.2702  0.5211 -0.0366
12473TIP3    H258911   3.223   5.705  15.247 -0.9285  0.9671 -0.0947
12474TIP3   OH258912   0.186   0.149   1.462 -0.0265 -0.1992 -0.5016
12474TIP3    H158913   0.167   0.151   1.556  0.3716  0.7916 -0.4262
12474TIP3    H258914   0.194   0.057   1.441 -2.1272 -0.5403  0.0278
12475TIP3   OH258915   5.931   2.458  14.418  0.4898  0.0355  0.2647
12475TIP3    H158916   6.000   2.516  14.451  0.3590  0.4238 -0.1537
12475TIP3    H258917   5.851   2.491  14.457  0.7030 -1.2350  1.8481
12476TIP3   OH258918   0.686   4.464   1.995 -0.1273  0.4782  0.3830
12476TIP3    H158919   0.697   4.548   1.951 -0.1968  0.3276  0.0737
12476TIP3    H258920   0.775   4.435   2.015 -0.0109 -0.1094 -0.9172
12477TIP3   OH258921   0.350   0.570   1.790 -0.1587  0.0729  0.7741
12477TIP3    H158922   0.316   0.525   1.712 -0.8253 -1.3697  1.8755
12477TIP3    H258923   0.305   0.655   1.790 -0.7535 -0.2329  0.0285
12478TIP3   OH258924   1.371   1.165   1.387  0.2687  0.3709 -0.0164
12478TIP3    H158925   1.316   1.236   1.419  1.0080  0.9373 -0.0017
12478TIP3    H258926   1.455   1.177   1.431 -0.6313 -2.5471  2.7120
12479TIP3   OH258927   6.371   0.770  16.615 -0.2157  0.2830 -0.2643
12479TIP3    H158928   6.333   0.743  16.531 -0.7796 -0.5203  0.2329
12479TIP3    H258929   6.407   0.689  16.652  0.2895  0.6856  0.1343
12480TIP3   OH258930   4.419   1.481   5.187 -0.2682 -0.0742 -0.3573
12480TIP3    H158931   4.361   1.452   5.117  0.3434 -1.5130 -0.2856
12480TIP3    H258932   4.407   1.576   5.191 -1.9852 -0.2498 -0.9041
12481TIP3   OH258933   5.829   6.514   6.564 -0.3531 -0.1954 -0.3742
12481TIP3    H158934   5.791   6.507   6.476 -0.1172 -2.1362 -0.3389
12481TIP3    H258935   5.802   6.601   6.594 -1.7570 -0.1179 -1.7510
12482TIP3   OH258936   1.062   2.267   0.343  0.0505 -0.0815 -0.1169
12482TIP3    H158937   0.973   2.286   0.372 -0.1633 -0.0684 -0.7707
12482TIP3    H258938   1.052   2.237   0.253  0.4910 -2.0482  0.4505
12483TIP3   OH258939   0.848   4.491   3.712  0.0966 -0.0005  0.2608
12483TIP3    H158940   0.914   4.553   3.741 -0.0586 -0.1982  1.0592
12483TIP3    H258941   0.858   4.488   3.617  1.1850  0.0162  0.3670
12484TIP3   OH258942   3.147   4.495   1.766 -0.7034  0.6079  0.7704
12484TIP3    H158943   3.210   4.475   1.835 -0.1582 -0.9818 -0.1559
12484TIP3    H258944   3.120   4.585   1.783  1.4404  1.1507  1.4748
12485TIP3   OH258945   5.373   3.265  11.968  0.6187  0.1521  0.3738
12485TIP3    H158946   5.351   3.195  12.030 -0.2890  0.2153  0.1308
12485TIP3    H258947   5.361   3.225  11.882  2.0927 -0.0021  0.2358
12486TIP3   OH258948   3.503   5.963  11.552  0.4400 -0.3934  0.5924
12486TIP3    H158949   3.408   5.971  11.564  0.0010 -1.3409 -1.9531
12486TIP3    H258950   3.525   6.035  11.492  1.0861 -1.1001 -0.0186
12487TIP3   OH258951   0.327   6.102   2.250 -0.5129 -0.2864 -0.3891
12487TIP3    H158952   0.400   6.161   2.233 -1.1753  1.0796  1.3264
12487TIP3    H258953   0.270   6.151   2.310 -0.6253 -3.0132  1.8286
12488TIP3   OH258954   4.181   1.174  16.611 -0.0837  0.0396 -0.2074
12488TIP3    H158955   4.144   1.247  16.661  1.0871  0.1117  0.5820
12488TIP3    H258956   4.187   1.102  16.674 -0.9339 -0.6480 -0.8950
12489TIP3   OH258957   1.739   3.478   0.212 -0.1977 -0.3098 -0.5957
12489TIP3    H158958   1.809   3.414   0.226  0.2048 -0.2295 -2.1376
12489TIP3    H258959   1.676   3.461   0.281  1.4423 -0.2689  0.9501
12490TIP3   OH258960   5.408   1.310  16.231  0.0584 -0.4260 -0.7203
12490TIP3    H158961   5.401   1.301  16.136  1.4654 -3.5700 -0.5750
12490TIP3    H258962   5.502   1.305  16.249 -0.2550 -0.7059  0.9305
12491TIP3   OH258963   3.577   2.052  12.564 -0.1010  0.3418  0.0028
12491TIP3    H158964   3.508   1.987  12.550 -1.2424  0.9641  2.3280
12491TIP3    H258965   3.644   2.005  12.613  1.5491 -0.4808 -2.9570
12492TIP3   OH258966   0.173   4.856  16.182 -0.2677 -0.1575 -0.2609
12492TIP3    H158967   0.212   4.860  16.095  0.8305 -1.5734  0.1397
12492TIP3    H258968   0.222   4.921  16.233 -0.0599 -0.2117 -0.3877
12493TIP3   OH258969   6.264   0.336  16.229  0.2874 -0.0215 -0.6013
12493TIP3    H158970   6.175   0.348  16.261  0.2428  1.2195 -1.1625
12493TIP3    H258971   6.263   0.252  16.184  0.1031 -1.3256  1.7761
12494TIP3   OH258972   0.511   5.451  13.709 -0.1018 -0.0004 -0.1274
12494TIP3    H158973   0.521   5.531  13.658 -2.2143  0.7204  0.4995
12494TIP3    H258974   0.536   5.381  13.650 -0.7301  0.9475 -1.5440
12495TIP3   OH258975   3.171   3.137   3.005  0.4525 -0.2338 -0.3722
12495TIP3    H158976   3.219   3.127   3.087 -1.4009  0.7237  0.8706
12495TIP3    H258977   3.214   3.210   2.960  2.3370 -1.6442 -0.9183
12496TIP3   OH258978   2.942   1.560  13.580 -0.1335  0.4915 -0.6120
12496TIP3    H158979   3.021   1.573  13.528  0.4957 -0.8957 -0.0286
12496TIP3    H258980   2.974   1.527  13.664 -1.3350 -0.1131 -0.3837
12497TIP3   OH258981   1.579   4.353   4.094 -0.1948  0.1447 -0.0063
12497TIP3    H158982   1.520   4.280   4.082  2.2030 -1.8202 -0.3033
12497TIP3    H258983   1.592   4.388   4.005  1.4634 -1.3813 -0.3890
12498TIP3   OH258984   0.424   5.148  11.651 -0.4187  0.8191 -0.3891
12498TIP3    H158985   0.514   5.160  11.621  0.2296  2.5029  2.0534
12498TIP3    H258986   0.391   5.237  11.665 -1.3213  0.1691  1.9242
12499TIP3   OH258987   2.521   5.554   1.338  0.0807  0.3878  0.2097
12499TIP3    H158988   2.469   5.537   1.416  0.9361 -1.7498  0.3263
12499TIP3    H258989   2.609   5.572   1.372  0.3574 -0.1290 -0.2275
12500TIP3   OH258990   4.032   3.613  12.545 -0.1233  0.0229  0.5586
12500TIP3    H158991   4.032   3.691  12.601 -0.3450  0.1286  0.4129
12500TIP3    H258992   3.955   3.624  12.489  0.7723  0.5262 -0.5962
12501TIP3   OH258993   4.298   2.590  11.853  0.7145 -0.1783  0.1671
12501TIP3    H158994   4.391   2.569  11.839  0.5955  1.0826 -3.0016
12501TIP3    H258995   4.254   2.557  11.775 -1.2924  0.5561  0.9652
12502TIP3   OH258996   3.500   1.691   5.880  0.0021 -0.3853  0.2589
12502TIP3    H158997   3.459   1.618   5.833 -0.7624 -0.0061  0.3331
12502TIP3    H258998   3.491   1.668   5.973  0.1333 -0.3966  0.2692
12503TIP3   OH258999   4.270   4.814   5.279  0.1195 -0.0866 -0.0967
12503TIP3    H159000   4.270   4.829   5.374 -0.7392 -1.1438  0.0844
12503TIP3    H259001   4.286   4.720   5.270  0.9084  0.1209 -1.0365
12504TIP3   OH259002   3.187   1.673  13.860  0.3069  0.0526 -0.4881
12504TIP3    H159003   3.258   1.608  13.862 -0.8694 -1.3176 -1.8762
12504TIP3    H259004   3.133   1.651  13.936 -0.7623 -1.4030 -1.6424
12505TIP3   OH259005   2.192   5.296  14.221 -0.5964 -0.0213 -0.5420
12505TIP3    H159006   2.116   5.348  14.193 -1.5753 -1.2012 -0.0882
12505TIP3    H259007   2.245   5.357  14.273 -1.6569  0.5596 -0.1430
12506TIP3   OH259008   3.171   1.562  13.002 -0.2268  0.3634 -0.3423
12506TIP3    H159009   3.131   1.485  12.962  0.5687  1.0544 -2.5270
12506TIP3    H259010   3.172   1.628  12.932 -0.2451  2.1285  1.2824
12507TIP3   OH259011   6.484   3.992   3.813 -0.2703 -0.2312 -0.4075
12507TIP3    H159012   6.403   4.034   3.781 -0.5859  0.8886  1.7900
12507TIP3    H259013   6.546   4.064   3.822  0.9464 -1.0616 -1.8658
12508TIP3   OH259014   0.212   1.638   2.395 -0.3376 -0.3971 -0.0990
12508TIP3    H159015   0.198   1.728   2.368 -0.4409 -0.1346  0.8054
12508TIP3    H259016   0.125   1.608   2.423 -0.5932 -1.2470 -1.7869
12509TIP3   OH259017   4.342   2.574   3.285 -0.0055  0.3329 -0.0666
12509TIP3    H159018   4.289   2.583   3.206 -0.5236  0.8346  0.3350
12509TIP3    H259019   4.411   2.640   3.276  0.2646  0.0179 -0.3518
12510TIP3   OH259020   3.014   4.551  16.724  0.8756  0.0785 -0.0066
12510TIP3    H159021   2.964   4.474  16.699 -0.6943  0.7387  0.9614
12510TIP3    H259022   3.059   4.578  16.644 -0.7947 -0.2127 -1.0827
12511TIP3   OH259023   3.491   0.684   2.967 -0.1351 -0.1814 -0.5589
12511TIP3    H159024   3.561   0.652   2.912  1.4051 -0.7684  1.6666
12511TIP3    H259025   3.456   0.606   3.010 -1.6134  0.2058 -1.0024
12512TIP3   OH259026   2.824   0.132   0.338 -0.0187  0.1101 -0.1164
12512TIP3    H159027   2.760   0.203   0.340 -0.3072 -0.0868 -1.7138
12512TIP3    H259028   2.879   0.152   0.263  2.2571  0.6478  1.6408
12513TIP3   OH259029   2.851   6.593   1.264  0.1883  0.1994  0.4493
12513TIP3    H159030   2.935   6.591   1.217 -1.4655 -0.0361 -2.6751
12513TIP3    H259031   2.819   6.683   1.252 -1.1967 -0.4250 -0.6651
12514TIP3   OH259032   4.705   0.823  16.875 -0.8430 -0.0691 -0.3109
12514TIP3    H159033   4.698   0.916  16.851  0.2813 -0.5943 -2.7828
12514TIP3    H259034   4.729   0.824  16.967  1.0187  2.1559 -0.7616
12515TIP3   OH259035   0.413   3.616   4.029  0.6928 -0.0715  0.4506
12515TIP3    H159036   0.399   3.541   4.087 -1.3332 -0.6825 -0.7739
12515TIP3    H259037   0.332   3.667   4.035  0.5181 -0.0456 -1.6678
12516TIP3   OH259038   2.975   2.571   0.113  0.0579  0.6025 -0.3350
12516TIP3    H159039   3.037   2.633   0.152 -1.1647  0.6250  1.6519
12516TIP3    H259040   2.897   2.577   0.168  0.0660 -3.0232  0.1902
12517TIP3   OH259041   1.103   2.005   3.631 -0.1284  0.3635 -0.0009
12517TIP3    H159042   1.184   2.003   3.580 -0.1873 -0.4224 -0.0586
12517TIP3    H259043   1.035   2.031   3.569 -0.4475 -1.9700 -0.6583
12518TIP3   OH259044   0.085   1.910  15.043  0.3422 -0.2147 -0.4247
12518TIP3    H159045   0.177   1.907  15.068  0.4768  0.4119 -0.8426
12518TIP3    H259046   0.064   1.821  15.016  1.0668 -0.1568 -1.1877
12519TIP3   OH259047   6.039   2.349  13.079  0.3192 -0.4248 -0.0227
12519TIP3    H159048   5.959   2.298  13.067  1.7041 -2.9317  1.1044
12519TIP3    H259049   6.046   2.402  12.999 -0.9822 -2.2399 -1.3805
12520TIP3   OH259050   1.022   1.160  16.002 -0.1732 -0.4801 -0.1706
12520TIP3    H159051   1.011   1.074  16.041  1.2762 -0.8444 -0.5206
12520TIP3    H259052   1.065   1.212  16.071  1.1535 -0.7399 -0.7827
12521TIP3   OH259053   0.446   6.250   1.412  0.5073 -0.2235 -0.2023
12521TIP3    H159054   0.351   6.246   1.401  0.2157  1.5138  1.5068
12521TIP3    H259055   0.471   6.159   1.427 -0.7940 -0.7842 -1.2668
12522TIP3   OH259056   1.360   4.544  15.211 -0.0781  0.2750 -0.1338
12522TIP3    H159057   1.273   4.519  15.180 -0.6809  1.6697  0.4068
12522TIP3    H259058   1.351   4.635  15.238  1.6067  0.4977 -0.2649
12523TIP3   OH259059   4.404   6.565  13.749  0.2801  0.4699  0.3252
12523TIP3    H159060   4.423   6.547  13.841  2.3769 -1.1511 -0.3779
12523TIP3    H259061   4.446   6.649  13.731  0.5533  0.3952  0.6283
12524TIP3   OH259062   5.956   3.833   4.956 -0.1041  0.2264 -0.3071
12524TIP3    H159063   5.986   3.920   4.983 -0.0954  0.0692  0.2024
12524TIP3    H259064   6.036   3.782   4.947 -0.1561  0.0495  0.1933
12525TIP3   OH259065   1.115   5.266  14.420 -0.1781 -0.0499  0.3329
12525TIP3    H159066   1.050   5.335  14.424  0.4501  0.5378  0.5065
12525TIP3    H259067   1.184   5.294  14.480  0.3376 -0.5616 -0.0119
12526TIP3   OH259068   3.862   4.246   3.676 -0.0017 -0.2770  0.1308
12526TIP3    H159069   3.816   4.266   3.757  2.0868 -1.4592  1.6797
12526TIP3    H259070   3.955   4.250   3.700  0.6720  0.1443 -2.3991
12527TIP3   OH259071   3.808   4.150  11.542 -0.0658  0.3596  0.0548
12527TIP3    H159072   3.720   4.113  11.550 -0.9059  2.3034  0.2014
12527TIP3    H259073   3.849   4.101  11.471 -1.7663  0.3440 -0.9368
12528TIP3   OH259074   2.205   0.015  17.233  0.2528 -0.1135 -0.1308
12528TIP3    H159075   2.217   0.088  17.294 -1.8373 -1.1301  1.5514
12528TIP3    H259076   2.176   0.057  17.152 -0.8780  0.9431  0.7957
12529TIP3   OH259077   5.904   2.506  14.023  0.1777 -0.7975 -0.7392
12529TIP3    H159078   5.968   2.572  14.050  1.0716 -2.6387  1.7274
12529TIP3    H259079   5.823   2.532  14.068  0.3812 -1.0531 -0.2215
12530TIP3   OH259080   5.494   2.731   6.008  0.3065  0.3117  0.1933
12530TIP3    H159081   5.463   2.809   5.962 -0.2671 -0.7849 -1.3243
12530TIP3    H259082   5.421   2.704   6.063  0.6605  1.0863  1.0533
12531TIP3   OH259083   2.489   1.482  13.979  0.2479 -0.0038  0.0977
12531TIP3    H159084   2.434   1.410  14.008  1.2792 -0.9541 -0.2316
12531TIP3    H259085   2.482   1.481  13.883  0.8537 -0.1570  0.0506
12532TIP3   OH259086   1.170   6.356   2.225  0.1967 -0.0239  0.0966
12532TIP3    H159087   1.257   6.322   2.204  0.1312 -0.0035 -0.2202
12532TIP3    H259088   1.111   6.285   2.201  0.1295 -0.0635  0.3756
12533TIP3   OH259089   1.699   5.441   2.428  0.4955  0.1448  0.2774
12533TIP3    H159090   1.729   5.455   2.518  1.3947  1.5217 -0.2202
12533TIP3    H259091   1.670   5.528   2.400 -2.1485 -0.7728  0.0824
12534TIP3   OH259092   1.136   6.129   1.495 -0.2913  0.3854 -0.4854
12534TIP3    H159093   1.141   6.208   1.441 -0.5704  1.2203  0.6860
12534TIP3    H259094   1.155   6.160   1.583 -3.2291 -0.3631  0.4334
12535TIP3   OH259095   2.275   0.583  17.027 -0.0805  0.5831 -0.0378
12535TIP3    H159096   2.291   0.660  17.082  1.7894 -0.2304  0.6020
12535TIP3    H259097   2.275   0.510  17.089  0.2851 -0.1499 -0.8982
12536TIP3   OH259098   3.532   3.104   1.094 -0.4610 -0.0503  0.3466
12536TIP3    H159099   3.597   3.158   1.139  0.7033 -0.8249 -0.3714
12536TIP3    H259100   3.484   3.061   1.165 -0.8547  1.2849  0.8967
12537TIP3   OH259101   3.268   4.751  15.553 -0.2469  0.5684 -0.1154
12537TIP3    H159102   3.244   4.834  15.512  0.0825  0.9347  0.4326
12537TIP3    H259103   3.185   4.704  15.563 -0.5932  1.3349  0.6844
12538TIP3   OH259104   0.379   2.445  10.999  0.3112  0.2384  1.0183
12538TIP3    H159105   0.368   2.497  10.919 -0.1995 -2.4168 -0.6953
12538TIP3    H259106   0.442   2.377  10.975  0.5507 -0.2848  3.0474
12539TIP3   OH259107   4.534   1.950  14.742 -0.1868 -0.2669 -0.6434
12539TIP3    H159108   4.582   1.884  14.792 -0.0470  1.4047  1.4887
12539TIP3    H259109   4.459   1.973  14.797 -1.4209 -0.1564 -2.2986
12540TIP3   OH259110   4.214   5.068   0.930 -0.2062  0.5851 -1.0577
12540TIP3    H159111   4.155   5.100   0.998  0.3806 -0.1037 -0.2225
12540TIP3    H259112   4.293   5.043   0.977 -0.2513 -1.0551 -1.8423
12541TIP3   OH259113   6.172   5.444  13.613  0.0694 -0.0378 -0.7234
12541TIP3    H159114   6.260   5.462  13.582  0.0580 -1.2276 -1.5069
12541TIP3    H259115   6.129   5.529  13.617  1.5189  0.6547  0.5394
12542TIP3   OH259116   0.517   0.330  12.617 -0.2463 -0.1090  0.2984
12542TIP3    H159117   0.572   0.256  12.644 -0.4575 -0.3915 -0.0305
12542TIP3    H259118   0.568   0.375  12.550  1.0023  1.5830  2.3367
12543TIP3   OH259119   5.107   1.981  13.027 -0.6291 -0.4938  0.8152
12543TIP3    H159120   5.184   2.027  13.060  0.2251 -1.1233 -0.2918
12543TIP3    H259121   5.093   1.910  13.090 -0.8512  0.1701  1.5138
12544TIP3   OH259122   3.617   5.240  13.447  0.1204 -0.1637  0.5272
12544TIP3    H159123   3.560   5.219  13.521  0.6234 -2.6480  0.2776
12544TIP3    H259124   3.670   5.161  13.435  1.4160  0.9356 -1.2470
12545TIP3   OH259125   3.531   0.621  12.772 -0.2868 -0.2250  0.1454
12545TIP3    H159126   3.438   0.616  12.753 -0.0224  1.0138 -1.5755
12545TIP3    H259127   3.538   0.594  12.864 -2.0538 -2.6141 -0.3534
12546TIP3   OH259128   3.558   0.670  15.091  0.1627 -0.4855 -0.0441
12546TIP3    H159129   3.592   0.734  15.153 -0.6509  0.5699 -0.6808
12546TIP3    H259130   3.614   0.678  15.015  0.3156 -0.8206  0.0325
12547TIP3   OH259131   3.233   0.473   3.331  0.1598 -0.1049 -0.0597
12547TIP3    H159132   3.239   0.397   3.389 -1.2430  0.8638  1.3953
12547TIP3    H259133   3.146   0.510   3.347 -0.9428 -0.7154 -3.9569
12548TIP3   OH259134   1.835   6.752  13.105  0.5618 -0.1156 -0.2040
12548TIP3    H159135   1.830   6.658  13.123 -0.5177 -0.3667 -1.7857
12548TIP3    H259136   1.825   6.760  13.010  1.7044  1.5347 -0.2205
12549TIP3   OH259137   0.359   5.373   3.424 -0.3818 -0.5557  0.4428
12549TIP3    H159138   0.410   5.384   3.344  0.4489  0.2631  1.0723
12549TIP3    H259139   0.276   5.418   3.407 -0.7458 -1.5442 -0.4367
12550TIP3   OH259140   2.259   6.147  13.030  0.0194  0.1628  0.0329
12550TIP3    H159141   2.199   6.098  13.085 -0.1547  1.5916  1.1316
12550TIP3    H259142   2.219   6.144  12.943 -0.6197 -0.5594  0.3443
12551TIP3   OH259143   3.249   1.175   2.895 -0.0873  0.4334  0.3708
12551TIP3    H159144   3.302   1.168   2.816  0.7270  0.0860  0.9437
12551TIP3    H259145   3.270   1.097   2.946 -0.2489  0.8831  1.1449
12552TIP3   OH259146   6.718   4.969   6.611  0.3195 -0.7023 -0.4487
12552TIP3    H159147   6.762   5.051   6.633 -1.6085  0.3054 -0.2283
12552TIP3    H259148   6.789   4.907   6.599  1.7286  0.2326  2.4135
12553TIP3   OH259149   3.063   4.499  15.026  0.0836  0.6908  0.7703
12553TIP3    H159150   3.140   4.443  15.022 -0.0771  0.4691  0.7698
12553TIP3    H259151   3.036   4.511  14.935 -2.2300 -2.4925  0.9669
12554TIP3   OH259152   4.127   2.411   1.430  0.2534  0.1383  0.4900
12554TIP3    H159153   4.222   2.404   1.433  0.1593 -1.1798  0.4705
12554TIP3    H259154   4.095   2.334   1.475 -0.8187  0.2708 -0.0151
12555TIP3   OH259155   4.852   4.914   2.705 -0.3123 -0.3988  0.5454
12555TIP3    H159156   4.830   5.007   2.696  1.9960  0.3335  2.2033
12555TIP3    H259157   4.904   4.894   2.627 -1.4213 -0.4981 -0.1759
12556TIP3   OH259158   0.777   3.930  16.703 -0.3109  0.7749  0.4740
12556TIP3    H159159   0.843   3.910  16.769 -0.3188 -0.8258  0.0165
12556TIP3    H259160   0.755   3.845  16.664 -0.1089  1.7324 -1.7771
12557TIP3   OH259161   6.664   1.427  11.053 -0.2291  0.2323 -0.0008
12557TIP3    H159162   6.691   1.379  10.975  0.8596 -0.5349  0.8330
12557TIP3    H259163   6.746   1.459  11.092 -0.6897  0.0126  1.1962
12558TIP3   OH259164   5.891   0.075   2.652 -0.2414  0.4627  0.2330
12558TIP3    H159165   5.976   0.094   2.693 -0.5094  2.3776 -0.0764
12558TIP3    H259166   5.910   0.076   2.558 -0.5579  0.6310  0.1721
12559TIP3   OH259167   3.652   5.045  14.810  0.3129  0.1243 -0.2105
12559TIP3    H159168   3.568   5.073  14.773 -0.2823  0.1671  1.1437
12559TIP3    H259169   3.638   5.046  14.905  2.0132  0.6493  0.0467
12560TIP3   OH259170   6.601   0.704  15.387 -1.0019  0.3280  0.2201
12560TIP3    H159171   6.625   0.780  15.440 -0.4417  0.0915  0.3099
12560TIP3    H259172   6.625   0.629  15.442 -1.3560  0.0857  0.0450
12561TIP3   OH259173   1.347   3.507  14.219  1.1418  0.1589 -0.4130
12561TIP3    H159174   1.413   3.438  14.216 -0.1018 -1.1228  1.0096
12561TIP3    H259175   1.376   3.565  14.289  1.5053  0.3706 -0.7386
12562TIP3   OH259176   4.599   0.180  12.743  0.2698 -0.2027 -0.0738
12562TIP3    H159177   4.688   0.211  12.761  0.3060  1.1768 -2.4374
12562TIP3    H259178   4.612   0.101  12.692  0.1189 -1.4342  1.7333
12563TIP3   OH259179   6.702   6.036  15.268  0.1994  0.4756  0.0132
12563TIP3    H159180   6.711   6.125  15.301  1.8519  0.7552 -1.1475
12563TIP3    H259181   6.678   5.984  15.345 -1.1947  1.9785  0.6126
12564TIP3   OH259182   2.394   1.008  15.818  0.4497 -0.1571 -0.2675
12564TIP3    H159183   2.377   0.917  15.793 -1.6653  0.5534 -1.5379
12564TIP3    H259184   2.482   1.026  15.785  1.0442 -1.8574  0.3401
12565TIP3   OH259185   0.827   1.827   0.817  0.2652 -0.2336  0.4739
12565TIP3    H159186   0.733   1.840   0.806  0.5290  0.8612 -0.5730
12565TIP3    H259187   0.867   1.874   0.743  1.5186 -2.5986 -0.4066
12566TIP3   OH259188   0.521   6.412   2.479  0.3138  0.2217 -0.2655
12566TIP3    H159189   0.498   6.325   2.512 -0.8295  0.4653 -0.3790
12566TIP3    H259190   0.506   6.406   2.385 -1.4307  1.0105 -0.0710
12567TIP3   OH259191   2.675   1.554  13.546 -0.5443 -0.3550  0.3325
12567TIP3    H159192   2.768   1.550  13.568 -1.0423  0.5912  2.8732
12567TIP3    H259193   2.670   1.524  13.456  2.6985  3.1410 -1.1737
12568TIP3   OH259194   1.428   4.871   4.420 -0.8243 -0.5003  0.3521
12568TIP3    H159195   1.446   4.945   4.363 -2.6152  0.7620  1.4111
12568TIP3    H259196   1.393   4.909   4.501 -2.9784 -2.5463  0.4425
12569TIP3   OH259197   4.910   4.965   6.199 -0.1971 -0.3090  0.0973
12569TIP3    H159198   4.893   4.932   6.111  1.3647  1.8106 -1.0353
12569TIP3    H259199   4.829   5.010   6.224 -0.9829 -1.7358  0.1547
12570TIP3   OH259200   4.845   3.821  13.266 -0.1636  0.4991  0.3315
12570TIP3    H159201   4.927   3.799  13.223 -0.1577 -0.1615  0.6641
12570TIP3    H259202   4.793   3.866  13.199  1.0587  2.3146  0.5652
12571TIP3   OH259203   0.285   5.883   6.065 -0.0163  0.5530 -0.1556
12571TIP3    H159204   0.310   5.970   6.095 -0.2240  0.4621  0.2738
12571TIP3    H259205   0.278   5.831   6.145 -0.5107  0.2995 -0.3654
12572TIP3   OH259206   4.312   3.547   1.010  0.4199  0.1211  0.1149
12572TIP3    H159207   4.310   3.457   0.976  1.4079 -0.0931  0.6213
12572TIP3    H259208   4.311   3.602   0.931 -0.9515 -0.3066 -0.1856
12573TIP3   OH259209   3.076   5.610   1.041  0.3707  0.8061 -0.4099
12573TIP3    H159210   3.168   5.606   1.018  0.0480  0.9229 -1.7500
12573TIP3    H259211   3.047   5.518   1.041  0.3212  0.8227 -0.6543
12574TIP3   OH259212   3.140   5.143   5.072  0.1228 -0.3096  0.2397
12574TIP3    H159213   3.076   5.213   5.074 -1.3581 -1.6359  0.2455
12574TIP3    H259214   3.194   5.157   5.150 -0.7260  0.2991  0.7239
12575TIP3   OH259215   3.655   3.635  11.713 -0.5568  0.1129  0.7441
12575TIP3    H159216   3.673   3.553  11.760 -1.0834  0.2376  1.1658
12575TIP3    H259217   3.716   3.634  11.640 -0.6245 -0.7109  0.6904
12576TIP3   OH259218   6.073   4.992   3.738  0.2617 -0.2154  0.3077
12576TIP3    H159219   6.108   5.035   3.816  1.4362  1.7762 -1.2441
12576TIP3    H259220   5.980   4.981   3.756  0.3391  1.0954  1.6163
12577TIP3   OH259221   3.537   1.392  15.886 -0.2484  0.1164 -0.4508
12577TIP3    H159222   3.504   1.328  15.948  0.7454  0.3491  0.3439
12577TIP3    H259223   3.576   1.341  15.816 -1.1527 -0.1503 -0.7533
12578TIP3   OH259224   0.686   3.619   3.144  0.0936  0.0986  0.4311
12578TIP3    H159225   0.612   3.651   3.194 -0.0771  0.0449  0.2116
12578TIP3    H259226   0.663   3.529   3.121  0.3452 -0.0102  0.5998
12579TIP3   OH259227   5.212   1.407   4.584  0.3587  0.1556 -0.6015
12579TIP3    H159228   5.262   1.381   4.661  0.1172  0.0351 -0.4844
12579TIP3    H259229   5.276   1.413   4.513  0.9821  2.4203  0.0941
12580TIP3   OH259230   4.890   1.909  14.210  0.4261 -0.2148 -1.0692
12580TIP3    H159231   4.889   1.995  14.167  1.5074 -0.1430 -0.9743
12580TIP3    H259232   4.930   1.926  14.295 -0.4799 -0.6040 -0.5580
12581TIP3   OH259233   3.605   1.283  12.190  0.6831 -0.1524  0.2205
12581TIP3    H159234   3.632   1.225  12.119 -0.0543  0.5665 -0.6488
12581TIP3    H259235   3.590   1.224  12.264 -0.9992 -1.2068 -0.9158
12582TIP3   OH259236   5.117   4.213  14.751 -0.1219  0.4080  0.1408
12582TIP3    H159237   5.139   4.269  14.826  0.6612 -2.0197  1.7544
12582TIP3    H259238   5.050   4.153  14.785 -1.5142  0.8302 -1.7862
12583TIP3   OH259239   6.648   3.453   2.402 -0.2309  0.4493 -0.0699
12583TIP3    H159240   6.587   3.435   2.330  1.0324 -0.6860 -0.8810
12583TIP3    H259241   6.626   3.542   2.430 -1.1122  0.7029 -1.5045
12584TIP3   OH259242   4.794   1.308  12.985 -0.4815 -0.0613  0.0264
12584TIP3    H159243   4.823   1.221  13.011 -0.3934 -0.3340 -0.9861
12584TIP3    H259244   4.752   1.295  12.900 -0.9290  0.7991  0.1123
12585TIP3   OH259245   2.742   4.564   2.032 -0.1404  0.2089  0.3349
12585TIP3    H159246   2.697   4.637   2.074 -0.2118  0.7056 -0.5910
12585TIP3    H259247   2.686   4.488   2.048 -0.8855  0.6654 -0.1147
12586TIP3   OH259248   1.938   3.110  13.554  0.3059  0.0361 -0.1752
12586TIP3    H159249   1.907   3.076  13.471  1.2216  0.9777 -0.9168
12586TIP3    H259250   1.874   3.177  13.579  0.7510  0.7047 -0.8037
12587TIP3   OH259251   4.252   3.737   5.046 -0.4276 -0.3491 -0.6435
12587TIP3    H159252   4.345   3.720   5.035 -0.0008  1.2127  0.4029
12587TIP3    H259253   4.229   3.691   5.127  0.0783  1.5070  0.5993
12588TIP3   OH259254   6.791   1.255   1.544 -0.5534  0.1556 -0.0595
12588TIP3    H159255   6.782   1.331   1.486  0.4701  0.2451 -0.1007
12588TIP3    H259256   6.812   1.183   1.485  1.4221  0.4274  0.2763
12589TIP3   OH259257   0.435   1.590   4.548 -0.6048 -0.0619  0.2717
12589TIP3    H159258   0.426   1.562   4.639  0.9137  2.2171  1.1873
12589TIP3    H259259   0.521   1.558   4.522 -1.0176 -0.6687 -0.3659
12590TIP3   OH259260   4.111   4.434  16.297  0.6364  0.2731  0.9071
12590TIP3    H159261   4.079   4.523  16.283 -0.5361 -0.1358  0.9305
12590TIP3    H259262   4.087   4.387  16.218  0.4369 -0.2434  1.2698
12591TIP3   OH259263   0.833   2.858   4.415 -0.1956 -0.1527  0.3428
12591TIP3    H159264   0.737   2.858   4.405 -0.3591  1.9472  1.7049
12591TIP3    H259265   0.862   2.787   4.358 -2.5930 -1.0390  0.1413
12592TIP3   OH259266   1.135   0.667  14.458  0.0765  0.0041  0.3408
12592TIP3    H159267   1.181   0.743  14.492 -0.4676  0.3024  0.4188
12592TIP3    H259268   1.076   0.641  14.528  0.1327 -0.3832  0.2453
12593TIP3   OH259269   4.624   5.278  12.438  0.0202 -0.2311 -0.0075
12593TIP3    H159270   4.701   5.334  12.451 -0.2072  0.0283  0.2158
12593TIP3    H259271   4.640   5.235  12.354  0.2943  0.0057 -0.0765
12594TIP3   OH259272   4.732   1.394  15.160  0.3259 -0.0348  0.4862
12594TIP3    H159273   4.781   1.383  15.242  0.1077  2.4702  0.9868
12594TIP3    H259274   4.648   1.431  15.188 -0.0450  0.1090 -0.8141
12595TIP3   OH259275   1.488   1.377   5.112  0.0210  0.0088  1.0305
12595TIP3    H159276   1.533   1.326   5.179  0.6657 -0.7488  0.0415
12595TIP3    H259277   1.529   1.463   5.117  1.3704 -0.5741  0.3718
12596TIP3   OH259278   5.104   4.798   0.855  0.9336  0.2782  0.4711
12596TIP3    H159279   5.091   4.730   0.789 -2.0348  0.4324  0.8361
12596TIP3    H259280   5.115   4.879   0.805 -0.9790  0.3448  0.1379
12597TIP3   OH259281   5.548   1.327   5.966  0.1069  0.1521 -0.2121
12597TIP3    H159282   5.585   1.274   6.036 -0.4575  1.1540  0.8754
12597TIP3    H259283   5.610   1.399   5.954  0.3893 -0.2157 -1.0137
12598TIP3   OH259284   4.052   4.932   0.342 -0.3460 -0.4835  0.1231
12598TIP3    H159285   3.985   4.870   0.311  0.8507 -0.6465 -2.1761
12598TIP3    H259286   4.129   4.878   0.359 -0.7807 -0.3202  2.9628
12599TIP3   OH259287   3.714   4.030  14.401  0.8458 -0.0639  0.3110
12599TIP3    H159288   3.671   4.108  14.366 -1.9592 -0.7096  2.1654
12599TIP3    H259289   3.770   3.999  14.329 -0.8342  1.5526 -1.7599
12600TIP3   OH259290   2.246   2.988  11.260 -0.1537 -0.5229  0.4320
12600TIP3    H159291   2.296   3.069  11.257 -1.4968  0.3125  0.1510
12600TIP3    H259292   2.158   3.015  11.285 -0.5765 -1.9173  0.5201
12601TIP3   OH259293   5.901   4.813  11.684  0.3565  0.1449 -0.4531
12601TIP3    H159294   5.872   4.873  11.752 -0.3258  0.8827 -1.3768
12601TIP3    H259295   5.984   4.851  11.654 -0.0268  0.5827 -0.9717
12602TIP3   OH259296   2.470   3.303   0.579 -0.2353  0.0721  0.2233
12602TIP3    H159297   2.553   3.257   0.594 -0.3128 -0.1126  0.0940
12602TIP3    H259298   2.440   3.270   0.494  1.0619  2.3704 -1.1880
12603TIP3   OH259299   1.997   2.695   0.560 -0.7421  0.1001  0.3212
12603TIP3    H159300   2.064   2.712   0.494 -0.3382  0.0229  0.7085
12603TIP3    H259301   2.023   2.613   0.601 -0.8234  0.2949  0.7770
12604TIP3   OH259302   6.512   0.498  13.218 -0.1508  0.2049  0.1050
12604TIP3    H159303   6.598   0.535  13.202 -1.1382  1.0240 -3.5684
12604TIP3    H259304   6.450   0.567  13.193 -1.9201 -1.8961 -1.5181
12605TIP3   OH259305   1.253   2.240   6.289  0.2365 -0.0365  0.1810
12605TIP3    H159306   1.293   2.154   6.277 -0.1997 -0.2421  0.2239
12605TIP3    H259307   1.292   2.273   6.370  1.4507  0.3901 -0.5541
12606TIP3   OH259308   2.025   2.312  16.841 -0.5528 -0.2576  0.0642
12606TIP3    H159309   2.064   2.393  16.874 -1.1536  0.2080 -0.3576
12606TIP3    H259310   2.090   2.276  16.781 -0.1485 -0.2572  0.5012
12607TIP3   OH259311   4.373   0.814  13.343 -0.1615  0.2695 -0.3303
12607TIP3    H159312   4.393   0.903  13.315  1.7182  0.4591  1.4898
12607TIP3    H259313   4.414   0.806  13.429  0.7891 -2.7570 -0.9870
12608TIP3   OH259314   5.079   0.454   5.745  0.0924  0.3365 -0.0913
12608TIP3    H159315   5.098   0.548   5.740 -0.0714  0.4168  0.8007
12608TIP3    H259316   5.074   0.435   5.838 -0.1060 -0.5167 -0.2709
12609TIP3   OH259317   6.508   2.869   5.420  0.0448 -0.3903  0.2141
12609TIP3    H159318   6.482   2.907   5.504 -1.0065 -2.2017  0.7399
12609TIP3    H259319   6.568   2.933   5.382  0.7845  0.3027  2.4820
12610TIP3   OH259320   6.003   2.846   5.142  0.0945 -1.0475 -0.1605
12610TIP3    H159321   6.040   2.876   5.225 -0.0233  2.6222 -1.3495
12610TIP3    H259322   5.914   2.819   5.164 -0.6653  1.8605  0.6365
12611TIP3   OH259323   2.994   6.393  16.915 -0.4234 -0.0779  0.5114
12611TIP3    H159324   2.977   6.316  16.862 -0.5960  1.9745 -2.5441
12611TIP3    H259325   3.089   6.404  16.912 -0.6214  1.5309 -1.7083
12612TIP3   OH259326   3.540   3.294   0.666  0.2346  0.0355  0.3060
12612TIP3    H159327   3.593   3.271   0.742  0.6409  1.7717  0.5736
12612TIP3    H259328   3.595   3.355   0.616 -0.5010 -0.1561 -0.7533
12613TIP3   OH259329   1.559   6.186   0.484 -0.3124  0.0600  0.5178
12613TIP3    H159330   1.620   6.190   0.411  0.0293  1.0904  0.8518
12613TIP3    H259331   1.503   6.263   0.473 -1.0541 -0.4618  0.6407
12614TIP3   OH259332   0.431   1.825   2.719  0.5503 -0.3148 -0.1494
12614TIP3    H159333   0.527   1.818   2.721  0.6013  0.5046  0.2918
12614TIP3    H259334   0.410   1.891   2.785 -0.3995 -1.2959  0.5543
12615TIP3   OH259335   5.228   2.625  14.533  0.4816 -0.1806  0.2310
12615TIP3    H159336   5.267   2.668  14.457 -0.2891 -0.6187 -0.4364
12615TIP3    H259337   5.157   2.572  14.495 -0.7053  0.5479  1.3911
12616TIP3   OH259338   6.272   2.699  14.538 -0.1897  0.0055  1.1375
12616TIP3    H159339   6.346   2.747  14.575  1.4071 -1.8709  0.5057
12616TIP3    H259340   6.203   2.707  14.604  1.1076  0.4963  2.4747
12617TIP3   OH259341   6.744   3.790   1.915 -0.2373  0.3479 -0.1628
12617TIP3    H159342   6.675   3.730   1.887 -0.3340  0.6413 -0.5452
12617TIP3    H259343   6.731   3.869   1.863  1.6424 -0.3314 -1.7179
12618TIP3   OH259344   3.178   2.693   1.453 -0.0208 -0.3249 -0.0404
12618TIP3    H159345   3.125   2.759   1.409 -1.7466 -1.3868  0.3694
12618TIP3    H259346   3.192   2.729   1.541  1.4175  0.7290 -0.6857
12619TIP3   OH259347   5.633   0.593   6.925  0.1132 -0.1660  0.1778
12619TIP3    H159348   5.609   0.665   6.867  0.7483  0.4806  0.7088
12619TIP3    H259349   5.725   0.575   6.904  0.8631  1.1949  2.1352
12620TIP3   OH259350   1.150   5.733  12.889 -0.2930  0.4022  0.3799
12620TIP3    H159351   1.125   5.815  12.930 -1.8412  0.3414 -0.3927
12620TIP3    H259352   1.233   5.752  12.846 -0.8547  1.6981 -0.1660
12621TIP3   OH259353   1.353   6.718   4.960 -0.4633 -0.2496 -0.2326
12621TIP3    H159354   1.327   6.796   5.010 -0.6659 -0.4459 -0.0300
12621TIP3    H259355   1.390   6.753   4.879  1.1483  0.1068  0.6418
12622TIP3   OH259356   2.987   0.960  14.925 -0.0428  0.6877 -0.2588
12622TIP3    H159357   2.926   0.984  14.856 -2.8430 -0.1980  1.8215
12622TIP3    H259358   2.995   1.040  14.978  0.4271  0.7259 -0.3843
12623TIP3   OH259359   6.502   6.163   5.113 -0.6930 -0.0814  0.1053
12623TIP3    H159360   6.590   6.190   5.089 -1.2360  0.3882 -1.4272
12623TIP3    H259361   6.451   6.244   5.114 -0.8969 -0.2058  2.0080
12624TIP3   OH259362   5.212   6.391  11.208 -0.0028 -0.0663  0.4046
12624TIP3    H159363   5.229   6.414  11.117 -2.3981  1.1062  0.2276
12624TIP3    H259364   5.250   6.463  11.259 -0.3617  0.2456  0.2344
12625TIP3   OH259365   2.267   2.391  15.456  0.0780 -0.0147 -0.2049
12625TIP3    H159366   2.197   2.334  15.425  0.4578 -0.1477 -0.8334
12625TIP3    H259367   2.336   2.331  15.486 -0.9805  0.0958  2.5631
12626TIP3   OH259368   3.085   0.400  11.620  0.0452  0.2444 -0.3351
12626TIP3    H159369   3.046   0.487  11.616  1.5809  0.9593 -0.1531
12626TIP3    H259370   3.140   0.395  11.542  0.5840 -0.2538  0.0734
12627TIP3   OH259371   6.120   2.577   4.055 -0.4658 -0.6305  0.2253
12627TIP3    H159372   6.206   2.592   4.016 -0.6969 -0.2946 -0.1587
12627TIP3    H259373   6.080   2.509   4.001 -0.4651 -0.7403  0.3631
12628TIP3   OH259374   3.015   4.112   0.695  0.8275 -0.4630 -0.2370
12628TIP3    H159375   2.965   4.043   0.650 -0.9395  0.4086  0.3451
12628TIP3    H259376   3.032   4.075   0.782 -1.9677  0.5991  0.8275
12629TIP3   OH259377   5.319   5.860   1.546 -0.1913 -0.4326  0.3619
12629TIP3    H159378   5.337   5.766   1.549 -0.3777 -0.5059 -0.4562
12629TIP3    H259379   5.232   5.866   1.507  0.8673  0.1558 -2.0321
12630TIP3   OH259380   3.744   6.455   3.264 -0.0695  0.1341  0.0130
12630TIP3    H159381   3.764   6.513   3.337  1.7285 -0.4216 -0.0218
12630TIP3    H259382   3.682   6.391   3.301 -0.7486  1.0525  0.4891
12631TIP3   OH259383   6.215   5.696   0.493 -0.0330  0.0713  0.1639
12631TIP3    H159384   6.131   5.672   0.530 -0.5020  0.3766 -0.6723
12631TIP3    H259385   6.270   5.619   0.504 -0.2782  0.0318  1.1273
12632TIP3   OH259386   5.802   5.063  15.249  0.1806  0.5904 -0.5048
12632TIP3    H159387   5.781   5.053  15.157 -0.0170  0.0672 -0.4044
12632TIP3    H259388   5.879   5.008  15.263  0.2808  0.7590 -0.3823
12633TIP3   OH259389   5.589   1.202  13.697 -0.3154 -0.5769 -0.1426
12633TIP3    H159390   5.504   1.213  13.740  0.6683 -0.1378  1.7686
12633TIP3    H259391   5.621   1.118  13.729  0.3402 -0.3449 -0.1946
12634TIP3   OH259392   2.221   1.177  12.495 -0.3950  0.0409  0.4369
12634TIP3    H159393   2.311   1.201  12.522 -0.1206 -0.3570 -0.1329
12634TIP3    H259394   2.225   1.083  12.479 -0.2812  0.4641 -2.1067
12635TIP3   OH259395   5.670   1.733   2.772  0.0586 -0.3350 -0.5286
12635TIP3    H159396   5.655   1.754   2.680 -0.2772  1.0996 -0.1676
12635TIP3    H259397   5.764   1.714   2.777  0.6779  2.4044 -0.6818
12636TIP3   OH259398   3.059   4.475  16.297 -0.2235 -0.3729 -0.0868
12636TIP3    H159399   3.152   4.453  16.296 -0.6613 -2.3064 -0.4181
12636TIP3    H259400   3.053   4.553  16.353  1.7597  0.6480 -1.2535
12637TIP3   OH259401   3.419   5.365  15.470  0.0067  0.1363  0.2496
12637TIP3    H159402   3.476   5.365  15.547 -1.0414 -0.1603  1.0388
12637TIP3    H259403   3.404   5.458  15.451  1.7721  0.2561 -0.7592
12638TIP3   OH259404   5.334   4.657   2.070 -0.1483  0.1423  0.4706
12638TIP3    H159405   5.404   4.720   2.088 -1.0522  0.8090  1.7313
12638TIP3    H259406   5.326   4.607   2.151 -0.9651 -0.1058  0.2365
12639TIP3   OH259407   3.005   4.087  16.324  0.5201  0.3097  0.1616
12639TIP3    H159408   2.992   4.095  16.418  1.0372 -0.5499  0.3092
12639TIP3    H259409   3.026   4.176  16.295  0.9218  0.4716  0.9434
12640TIP3   OH259410   2.699   2.393  14.225  0.1962 -0.5240 -0.2689
12640TIP3    H159411   2.659   2.419  14.142 -1.3865  1.0519  0.9514
12640TIP3    H259412   2.634   2.337  14.267  0.2831  0.0415  0.6385
12641TIP3   OH259413   3.443   5.702   4.095 -0.0176  0.0974 -0.9072
12641TIP3    H159414   3.477   5.725   4.008 -1.8308 -0.1860 -1.7065
12641TIP3    H259415   3.372   5.765   4.110  0.2726  0.1381  0.3836
12642TIP3   OH259416   4.854   1.229   0.215  0.4512 -0.0668 -0.1901
12642TIP3    H159417   4.891   1.317   0.209  0.3394 -0.1439 -2.3904
12642TIP3    H259418   4.832   1.207   0.125 -0.9398 -1.7476  0.5548
12643TIP3   OH259419   2.387   1.636   6.296  1.1622  0.0273 -0.1588
12643TIP3    H159420   2.419   1.616   6.208 -1.8474  4.3907 -2.4138
12643TIP3    H259421   2.410   1.728   6.309 -0.5750  0.1207  2.6446
12644TIP3   OH259422   3.501   0.776  15.618 -0.1529 -0.5546 -0.5330
12644TIP3    H159423   3.490   0.834  15.542 -3.1207 -0.6365 -0.2095
12644TIP3    H259424   3.472   0.690  15.587  0.5685 -1.0409  0.1260
12645TIP3   OH259425   1.595   5.196   2.064  0.2530 -0.7572 -0.1970
12645TIP3    H159426   1.628   5.134   2.130  1.7821  0.0879 -0.1389
12645TIP3    H259427   1.504   5.213   2.090  0.0899 -2.2958  0.2819
12646TIP3   OH259428   3.179   5.090  11.899 -0.3115 -0.6607  0.0696
12646TIP3    H159429   3.111   5.118  11.960  0.2891 -0.8920  0.8548
12646TIP3    H259430   3.178   5.155  11.829 -0.0780  0.3639  1.0158
12647TIP3   OH259431   1.351   5.885  11.851 -0.4223 -0.3577  0.1628
12647TIP3    H159432   1.266   5.925  11.864 -0.3690 -0.5237  1.0059
12647TIP3    H259433   1.414   5.954  11.873 -0.3283 -0.1829 -0.6124
12648TIP3   OH259434   5.284   4.037   6.155  0.1428  0.6874  0.0882
12648TIP3    H159435   5.304   4.095   6.229  0.4965  0.6719  0.0060
12648TIP3    H259436   5.237   4.093   6.094  0.5381  0.9088 -0.0201
12649TIP3   OH259437   6.063   4.494  15.208 -0.1927  0.1286 -0.0312
12649TIP3    H159438   6.083   4.484  15.115  2.2395  0.1567  0.4699
12649TIP3    H259439   6.146   4.481  15.253 -1.2670  0.4492  2.1363
12650TIP3   OH259440   5.099   0.575  15.702  0.1103 -0.3329 -0.2530
12650TIP3    H159441   5.100   0.637  15.629 -0.5455  0.9044  0.7648
12650TIP3    H259442   5.043   0.616  15.767  1.1224 -1.1764  1.1693
12651TIP3   OH259443   6.468   3.121   3.102 -0.0737 -0.4636 -0.2867
12651TIP3    H159444   6.551   3.090   3.138 -0.1205  0.5720  0.7117
12651TIP3    H259445   6.486   3.210   3.074 -0.7574 -0.3642 -0.4079
12652TIP3   OH259446   6.431   4.323  15.055  0.5791  0.8771 -0.2318
12652TIP3    H159447   6.365   4.373  15.007 -0.3002 -1.3331 -1.4080
12652TIP3    H259448   6.380   4.267  15.114  1.4484 -0.0074 -0.3123
12653TIP3   OH259449   4.057   4.945  16.555  0.9808  0.4459  0.0245
12653TIP3    H159450   3.995   4.902  16.497  0.3452 -1.2011  1.8518
12653TIP3    H259451   4.067   5.033  16.520 -1.1476  0.2127 -1.2150
12654TIP3   OH259452   4.248   0.590  16.106 -0.0484 -0.3099  0.1752
12654TIP3    H159453   4.205   0.672  16.129  0.4577  0.4362 -1.4223
12654TIP3    H259454   4.207   0.525  16.162 -0.6492  0.9936  1.2795
12655TIP3   OH259455   0.853   6.813   5.516  0.0174  0.3137  1.0758
12655TIP3    H159456   0.837   6.868   5.593  1.2125 -0.8385  2.1719
12655TIP3    H259457   0.766   6.796   5.480 -0.5774  0.6316  2.3487
12656TIP3   OH259458   0.426   0.242   2.377  0.2007 -0.6303 -0.2522
12656TIP3    H159459   0.343   0.212   2.413 -0.6360  1.5875 -0.2630
12656TIP3    H259460   0.481   0.259   2.453 -0.3917  0.7392 -0.1097
12657TIP3   OH259461   0.373   2.769   3.858 -0.5078  0.0877 -0.3786
12657TIP3    H159462   0.378   2.816   3.775 -0.1018  0.1839 -0.2991
12657TIP3    H259463   0.284   2.733   3.860 -0.9389  1.1403 -0.2748
12658TIP3   OH259464   0.961   5.182   3.426  0.1049 -0.0096 -0.6195
12658TIP3    H159465   0.951   5.224   3.511  0.2202 -1.6445  0.2191
12658TIP3    H259466   1.056   5.179   3.412  0.1284 -0.6746 -0.3255
12659TIP3   OH259467   2.520   1.006  12.856  0.0866 -0.2290  0.1037
12659TIP3    H159468   2.440   0.966  12.891 -0.1207 -0.4257 -0.5769
12659TIP3    H259469   2.590   0.973  12.912 -0.3806  0.4037  1.0683
12660TIP3   OH259470   3.835   2.648   3.755  0.4153 -0.2289  0.7636
12660TIP3    H159471   3.927   2.659   3.780  0.7121  0.6569 -0.6953
12660TIP3    H259472   3.786   2.700   3.819  0.8271 -1.5557  2.1964
12661TIP3   OH259473   1.023   6.579  12.060  0.0502  0.3666 -0.3037
12661TIP3    H159474   1.015   6.578  12.155 -1.2160 -2.8866 -0.3843
12661TIP3    H259475   0.972   6.655  12.032 -2.1586 -0.4136  1.4556
12662TIP3   OH259476   4.949   1.301  11.059  0.2739 -0.6194  0.0992
12662TIP3    H159477   4.972   1.272  10.971 -1.1328 -0.0236 -0.4693
12662TIP3    H259478   4.974   1.393  11.062  0.4254 -0.6669  0.3706
12663TIP3   OH259479   4.275   1.851  12.705  0.0882  0.4754  0.0663
12663TIP3    H159480   4.331   1.881  12.633  0.4710 -1.4514 -0.4501
12663TIP3    H259481   4.267   1.928  12.762  1.0798  1.5533 -1.2135
12664TIP3   OH259482   0.949   5.099   2.478 -0.1203  0.0082 -0.0896
12664TIP3    H159483   0.924   5.038   2.408  1.4714  1.4607 -1.9909
12664TIP3    H259484   0.937   5.186   2.439  1.0962  0.8387  1.3569
12665TIP3   OH259485   0.820   0.802   0.732  0.2769 -0.1800  0.4927
12665TIP3    H159486   0.902   0.813   0.683  0.5391 -2.0415  0.5055
12665TIP3    H259487   0.780   0.723   0.696 -0.5799 -0.3674  1.8171
12666TIP3   OH259488   1.362   4.267   3.086  0.1974 -0.1429 -0.4066
12666TIP3    H159489   1.417   4.342   3.063 -0.0153 -0.3961 -1.7662
12666TIP3    H259490   1.381   4.251   3.178  1.1697  0.8038 -0.4332
12667TIP3   OH259491   1.482   0.950  14.515  0.1580  0.1667 -0.2216
12667TIP3    H159492   1.571   0.924  14.536 -0.1457 -0.4143  0.3538
12667TIP3    H259493   1.489   0.994  14.430  0.8725 -0.5600 -0.5390
12668TIP3   OH259494   4.509   3.300  15.916 -0.1400  0.7082 -0.5785
12668TIP3    H159495   4.553   3.370  15.867 -0.8312  0.5095 -1.4947
12668TIP3    H259496   4.477   3.343  15.995  0.1964  1.2378 -0.7271
12669TIP3   OH259497   3.102   0.267  17.006  0.3074  0.4147 -0.2112
12669TIP3    H159498   3.023   0.214  16.998 -0.3141  1.4797 -1.4879
12669TIP3    H259499   3.172   0.212  16.971  0.0044 -0.2733  0.2672
12670TIP3   OH259500   3.401   3.263  15.212  0.6066 -0.7890  0.4282
12670TIP3    H159501   3.438   3.343  15.251  0.7480 -1.7154  2.2463
12670TIP3    H259502   3.476   3.222  15.168  0.3294  0.5429 -1.3526
12671TIP3   OH259503   1.268   1.170  17.199  0.1593  0.1180  0.1779
12671TIP3    H159504   1.346   1.124  17.170  0.7759  1.0893  0.2750
12671TIP3    H259505   1.263   1.151  17.293 -0.0424 -0.4058  0.0632
12672TIP3   OH259506   0.132   0.826   4.663  0.3964  0.0018  0.0184
12672TIP3    H159507   0.145   0.877   4.583 -0.3903  1.2962  0.7034
12672TIP3    H259508   0.107   0.739   4.632 -0.0931  0.5502 -1.1436
12673TIP3   OH259509   0.051   6.378  15.973  0.1244  0.3515  0.2905
12673TIP3    H159510   0.129   6.324  15.987  0.9065  1.9529  2.2821
12673TIP3    H259511   0.042   6.429  16.054 -1.3746  2.2210 -1.0172
12674TIP3   OH259512   3.216   0.880   1.133  0.7452  0.7016  0.1033
12674TIP3    H159513   3.275   0.804   1.126  2.2982  1.9842 -0.9100
12674TIP3    H259514   3.145   0.860   1.073  1.3477  0.2266 -0.4608
12675TIP3   OH259515   6.463   1.003  14.053  0.2915  0.4861  0.2692
12675TIP3    H159516   6.386   1.055  14.075 -0.1819 -0.3236  0.5488
12675TIP3    H259517   6.528   1.027  14.119 -0.4596 -0.4462  1.3712
12676TIP3   OH259518   1.639   5.986   4.924  0.3578 -0.0732  0.0277
12676TIP3    H159519   1.660   6.068   4.880  0.6055 -0.4943 -0.6517
12676TIP3    H259520   1.660   5.918   4.859  0.3528 -0.6781  0.6536
12677TIP3   OH259521   5.289   1.481   2.364  0.1439 -0.6535 -0.7130
12677TIP3    H159522   5.342   1.405   2.340 -0.5394 -0.7310 -2.0036
12677TIP3    H259523   5.334   1.555   2.323  0.1205 -0.5187 -0.4944
12678TIP3   OH259524   4.670   5.740   1.553 -0.0611 -0.4728 -0.0548
12678TIP3    H159525   4.597   5.718   1.494  1.4108 -0.5920 -1.8596
12678TIP3    H259526   4.719   5.659   1.562 -0.5878 -0.6154  1.8496
12679TIP3   OH259527   0.848   3.896  15.033  0.8879  0.7901 -0.2973
12679TIP3    H159528   0.914   3.827  15.035 -0.0533 -0.1143  0.0590
12679TIP3    H259529   0.860   3.942  15.116  1.5260  1.0673 -0.5395
12680TIP3   OH259530   3.154   4.928  12.789 -0.0499 -0.5882 -0.0543
12680TIP3    H159531   3.106   5.001  12.750 -0.0712 -1.1428 -1.0589
12680TIP3    H259532   3.215   4.970  12.850 -2.0559  0.1211  1.5612
12681TIP3   OH259533   3.978   5.440  17.254  0.0153 -0.2666  0.2087
12681TIP3    H159534   3.970   5.493  17.174 -2.3875 -1.4658 -0.3747
12681TIP3    H259535   4.006   5.354  17.223 -0.3383 -0.5644  0.7065
12682TIP3   OH259536   4.040   4.935  16.154 -0.1457  0.3196 -0.1184
12682TIP3    H159537   4.010   5.012  16.201  1.3390  1.1694 -0.5380
12682TIP3    H259538   3.989   4.863  16.192 -0.8358  1.3518  0.9617
12683TIP3   OH259539   3.155   5.873  16.535  0.1292  0.0550 -0.8236
12683TIP3    H159540   3.113   5.787  16.531 -1.2559  0.6151  1.0962
12683TIP3    H259541   3.086   5.935  16.513 -0.1468  0.9937  2.4571
12684TIP3   OH259542   1.396   4.126  14.345 -0.0852 -0.0456  0.1701
12684TIP3    H159543   1.360   4.122  14.256  1.1889 -1.2213 -0.3051
12684TIP3    H259544   1.383   4.217  14.372 -2.7953 -0.2706 -0.2360
12685TIP3   OH259545   1.049   3.700  15.000  0.0757 -0.1524 -0.5253
12685TIP3    H159546   1.131   3.651  15.002  0.5720  0.6359 -0.9958
12685TIP3    H259547   1.062   3.766  14.931 -0.6040  0.5824  0.0328
12686TIP3   OH259548   2.639   2.064  14.495  0.2767 -0.1680 -0.2056
12686TIP3    H159549   2.564   2.048  14.438 -0.1732 -0.6123  0.5035
12686TIP3    H259550   2.624   2.152  14.530  0.1960 -0.1664 -0.2438
12687TIP3   OH259551   5.964   0.259   5.371  0.3965  0.0207 -0.0299
12687TIP3    H159552   6.024   0.268   5.297  0.1047 -0.0664 -0.2798
12687TIP3    H259553   5.900   0.194   5.342  0.7335 -0.5997  0.6028
12688TIP3   OH259554   0.040   6.298  16.485 -0.1469  1.1523 -0.7516
12688TIP3    H159555  -0.034   6.338  16.531 -0.6319  0.7782 -1.1917
12688TIP3    H259556   0.038   6.206  16.511 -0.7329  0.8273 -1.8993
12689TIP3   OH259557   0.121   2.141   3.860  0.4008 -0.0239  0.1961
12689TIP3    H159558   0.059   2.113   3.927 -0.3685  2.0634  0.4115
12689TIP3    H259559   0.205   2.148   3.905  0.3607 -0.8697  0.3945
12690TIP3   OH259560   3.548   0.070   3.196  0.1667 -0.0644  0.2517
12690TIP3    H159561   3.503   0.123   3.130 -0.2951  1.1398  1.4874
12690TIP3    H259562   3.519  -0.019   3.179 -1.4676  0.4875  0.0120
12691TIP3   OH259563   1.698   5.438   3.691  0.1554 -0.2995  0.2384
12691TIP3    H159564   1.648   5.505   3.737  0.4023 -0.6324  0.9968
12691TIP3    H259565   1.677   5.452   3.598 -1.2331 -0.3641  0.5426
12692TIP3   OH259566   3.191   6.392   4.969  0.3678  0.3177 -0.1377
12692TIP3    H159567   3.257   6.436   5.023  0.6185 -1.7962  1.3511
12692TIP3    H259568   3.232   6.310   4.944 -1.1380 -0.3565 -0.4517
12693TIP3   OH259569   2.315   2.143   0.406 -0.1504  0.8805 -0.1605
12693TIP3    H159570   2.403   2.107   0.418  0.2340  1.8814  0.0581
12693TIP3    H259571   2.279   2.148   0.494 -1.0188 -0.9779 -0.3902
12694TIP3   OH259572   2.128   2.277   5.225  0.2994  0.1469 -0.5333
12694TIP3    H159573   2.216   2.306   5.250  0.2221  1.1184 -1.3425
12694TIP3    H259574   2.140   2.189   5.191  1.3899  1.2284 -3.1343
12695TIP3   OH259575   0.407   2.730   1.652 -0.2739 -0.3651 -0.0943
12695TIP3    H159576   0.450   2.720   1.567  0.2420 -1.7656  0.3187
12695TIP3    H259577   0.329   2.675   1.645 -2.4731  2.7569 -1.1135
12696TIP3   OH259578   3.760   1.461   1.454  0.8580  0.1976 -0.2214
12696TIP3    H159579   3.809   1.524   1.507 -0.4736  2.2357 -1.3255
12696TIP3    H259580   3.801   1.464   1.368  0.3390  0.1200 -0.4773
12697TIP3   OH259581   2.783   1.681   3.109 -0.1182  0.5201  0.4068
12697TIP3    H159582   2.840   1.645   3.041 -0.7485 -0.4689  0.3989
12697TIP3    H259583   2.745   1.605   3.152 -2.2122  1.1623 -0.2332
12698TIP3   OH259584   4.790   0.618  14.781  0.3552 -0.4221  0.7401
12698TIP3    H159585   4.828   0.685  14.838  3.7099 -0.1574 -1.6109
12698TIP3    H259586   4.858   0.551  14.774  0.4183 -0.0639 -3.4677
12699TIP3   OH259587   0.629   0.947  13.069 -0.3062  0.1624  0.8410
12699TIP3    H159588   0.536   0.922  13.072  0.0644 -1.1630  1.5081
12699TIP3    H259589   0.675   0.870  13.102  1.0026  1.0239  1.0208
12700TIP3   OH259590   5.489   6.744   4.232  0.5085  0.0173 -0.1033
12700TIP3    H159591   5.465   6.826   4.275  1.7816  0.2787  0.1231
12700TIP3    H259592   5.428   6.737   4.158 -0.1282  0.7598  0.3474
12701TIP3   OH259593   2.702   2.404  16.492 -0.0959  0.1650 -0.3760
12701TIP3    H159594   2.700   2.312  16.517  1.4449  0.2802  0.1975
12701TIP3    H259595   2.714   2.403  16.397  2.4868 -0.2398 -0.0860
12702TIP3   OH259596   4.122   3.898   2.475  0.0578  0.1059  0.6750
12702TIP3    H159597   4.112   3.872   2.567 -0.9531  1.0531  0.8469
12702TIP3    H259598   4.216   3.902   2.461  0.2303 -2.2710  1.0274
12703TIP3   OH259599   1.392   3.423   3.871 -0.5039 -0.2993 -0.5084
12703TIP3    H159600   1.392   3.373   3.790  1.2742 -0.2587 -0.5563
12703TIP3    H259601   1.355   3.364   3.936  0.6545 -1.3303 -0.7756
12704TIP3   OH259602   2.660   6.271   4.264 -0.1982  0.0584 -0.1320
12704TIP3    H159603   2.711   6.339   4.310 -0.1533 -0.5760  0.7710
12704TIP3    H259604   2.625   6.216   4.334 -1.1777 -0.1924 -0.8089
12705TIP3   OH259605   5.988   1.767   2.024 -0.6687  0.2814  0.4900
12705TIP3    H159606   5.896   1.743   2.020  0.0755 -2.5728 -0.3095
12705TIP3    H259607   6.005   1.809   1.940 -1.1092  0.3312  0.4228
12706TIP3   OH259608   0.663   6.388  13.089 -0.1215  0.3338  0.3408
12706TIP3    H159609   0.620   6.398  13.174 -2.0208  1.0791 -0.6865
12706TIP3    H259610   0.744   6.438  13.097 -0.9192  1.4906  1.2879
12707TIP3   OH259611   5.161   6.786   6.183 -0.1346  0.2580  0.2824
12707TIP3    H159612   5.191   6.833   6.105  1.8545  0.2486  1.0159
12707TIP3    H259613   5.138   6.856   6.245  1.2936  0.3052  0.7925
12708TIP3   OH259614   0.427   5.264   3.713  0.1997  0.3220 -0.2241
12708TIP3    H159615   0.352   5.229   3.665 -0.7096  0.7633  0.8417
12708TIP3    H259616   0.415   5.233   3.803  1.1266  0.6624  0.0272
12709TIP3   OH259617   1.618   1.764   4.284  0.2216  0.4469 -0.2954
12709TIP3    H159618   1.621   1.694   4.219  1.9602  0.4138 -0.2072
12709TIP3    H259619   1.557   1.828   4.248 -1.4915 -1.1378 -0.3225
12710TIP3   OH259620   4.070   4.116   1.120 -0.9125  0.0983  0.0869
12710TIP3    H159621   4.002   4.053   1.143 -0.5978 -0.8498 -1.5387
12710TIP3    H259622   4.036   4.161   1.043  0.1416 -0.1224 -0.5093
12711TIP3   OH259623   1.575   3.856  11.143 -0.3014  0.6522 -0.8783
12711TIP3    H159624   1.556   3.899  11.060 -1.6292  0.5727 -0.6233
12711TIP3    H259625   1.661   3.815  11.129 -0.7245  0.2305 -2.3760
12712TIP3   OH259626   0.989   3.416   6.885 -0.3166 -0.4130  0.1898
12712TIP3    H159627   0.936   3.347   6.925  1.6178 -1.8852  0.2951
12712TIP3    H259628   1.025   3.375   6.806  0.6702  0.5237  0.1399
12713TIP3   OH259629   1.250   0.235  13.422  0.3213 -0.5519  0.4661
12713TIP3    H159630   1.194   0.285  13.481  0.1552  0.1590 -0.2967
12713TIP3    H259631   1.193   0.212  13.349  1.2125  0.7944 -0.6555
12714TIP3   OH259632   4.031   0.072  16.311 -0.3698  0.2233 -0.2615
12714TIP3    H159633   4.076   0.124  16.376  0.4010 -1.4234  0.5621
12714TIP3    H259634   3.942   0.063  16.344  0.1695 -1.0878  0.8832
12715TIP3   OH259635   5.841   0.794  13.991 -0.8573 -0.2364 -0.1992
12715TIP3    H159636   5.930   0.802  13.956  0.1062 -2.1931  1.6946
12715TIP3    H259637   5.844   0.842  14.074 -2.4298  2.2328 -1.5042
12716TIP3   OH259638   5.957   1.958  14.378 -0.1549 -0.5282 -0.1477
12716TIP3    H159639   5.922   1.950  14.289  1.1877  0.6545 -0.7975
12716TIP3    H259640   5.996   2.045  14.381  1.2829 -1.1861  1.0614
12717TIP3   OH259641   3.447   0.643  14.221  0.4369  0.6382  0.1820
12717TIP3    H159642   3.496   0.562  14.234 -0.5812  0.0644  0.5271
12717TIP3    H259643   3.469   0.669  14.131  0.2540 -0.3826 -0.1707
12718TIP3   OH259644   5.355   4.181  15.281 -0.4145 -0.9098 -0.3492
12718TIP3    H159645   5.350   4.266  15.236  1.1632 -0.2503  0.6825
12718TIP3    H259646   5.264   4.152  15.286 -0.9083  0.3871 -1.3578
12719TIP3   OH259647   5.740   0.745  14.526 -0.0571 -0.5465 -0.4147
12719TIP3    H159648   5.747   0.661  14.571 -1.3504 -0.1415  0.5776
12719TIP3    H259649   5.695   0.802  14.588 -0.5104  0.4621 -1.6448
12720TIP3   OH259650   1.300   5.179  12.606 -0.1136  0.4237 -0.1278
12720TIP3    H159651   1.331   5.250  12.661 -0.6474  0.4608  0.1210
12720TIP3    H259652   1.234   5.219  12.549 -1.3571 -0.1384  0.8893
12721TIP3   OH259653   5.086   2.852  13.945 -0.3276 -0.3046  0.4411
12721TIP3    H159654   5.181   2.842  13.940 -0.1272  1.3364  0.6980
12721TIP3    H259655   5.053   2.804  13.870  0.9889  2.7405 -2.2093
12722TIP3   OH259656   3.621   5.078   5.859  0.0852 -0.1552  0.5821
12722TIP3    H159657   3.713   5.079   5.885 -0.2474  1.4532  1.8036
12722TIP3    H259658   3.595   5.171   5.859 -1.2715 -0.5236 -0.6730
12723TIP3   OH259659   2.654   0.311   2.992 -0.0596  0.0698  0.8814
12723TIP3    H159660   2.671   0.242   3.057 -0.3745 -0.8129  0.0342
12723TIP3    H259661   2.721   0.378   3.010  0.6897 -0.7695  1.2605
12724TIP3   OH259662   1.108   1.304  15.330 -0.0227  0.1351 -0.3813
12724TIP3    H159663   1.176   1.284  15.394  0.5375  0.0825 -0.9847
12724TIP3    H259664   1.149   1.366  15.269  0.0220 -1.1386 -1.6862
12725TIP3   OH259665   6.708   1.238   3.965  0.5361 -0.1033 -0.2216
12725TIP3    H159666   6.755   1.319   3.945 -1.1070  0.5918 -1.4319
12725TIP3    H259667   6.706   1.191   3.881 -1.3998  0.1661 -0.3569
12726TIP3   OH259668   2.135   3.222   0.003  0.6448  0.6430  0.3500
12726TIP3    H159669   2.163   3.183   0.085 -1.3999 -0.2265  0.6929
12726TIP3    H259670   2.181   3.305  -0.003  1.5995  0.2313  1.8480
12727TIP3   OH259671   4.406   6.008   2.804  0.1589 -0.5866 -0.3872
12727TIP3    H159672   4.414   6.069   2.877 -0.1163 -0.3465 -0.5602
12727TIP3    H259673   4.319   6.024   2.768  0.6364 -0.0952 -1.3245
12728TIP3   OH259674   2.751   1.240   3.876  0.0663  0.2235  0.5745
12728TIP3    H159675   2.672   1.288   3.904 -1.2473 -1.1388 -0.6928
12728TIP3    H259676   2.812   1.252   3.949 -1.3255  1.2514  1.6307
12729TIP3   OH259677   4.881   3.304   3.877 -0.5474  0.6453 -0.6345
12729TIP3    H159678   4.852   3.296   3.786 -2.0960 -0.1757 -0.0813
12729TIP3    H259679   4.836   3.234   3.923  0.4479  0.8738  0.7290
12730TIP3   OH259680   0.633   1.744   3.535 -0.4698  0.2269 -0.7459
12730TIP3    H159681   0.702   1.711   3.478 -1.7165 -2.0181 -1.0105
12730TIP3    H259682   0.680   1.789   3.605  1.2309 -0.4690 -1.4024
12731TIP3   OH259683   3.646   0.066   2.670 -0.3700  0.0580 -0.0497
12731TIP3    H159684   3.715   0.007   2.701 -2.4039 -1.9650  0.7603
12731TIP3    H259685   3.654   0.065   2.575  1.9153  1.3410  0.1117
12732TIP3   OH259686   1.625   2.969  12.336  0.0481 -0.0778  0.3622
12732TIP3    H159687   1.540   2.926  12.340 -0.0519  0.1618  0.8693
12732TIP3    H259688   1.655   2.972  12.427  0.6634 -0.2912  0.1708
12733TIP3   OH259689   0.581   0.170   5.142 -0.6518 -0.0946 -0.4939
12733TIP3    H159690   0.626   0.090   5.169 -1.0119  0.1808  0.9154
12733TIP3    H259691   0.649   0.222   5.099  0.0019 -0.3527  0.2220
12734TIP3   OH259692   3.986   4.654   3.159  0.2208 -0.4205 -0.3276
12734TIP3    H159693   4.055   4.720   3.152 -0.0771 -0.3455 -3.1733
12734TIP3    H259694   4.032   4.570   3.158  0.4452 -0.3185  0.8717
12735TIP3   OH259695   1.214   4.519  14.896 -0.0846  0.3080  0.2956
12735TIP3    H159696   1.300   4.526  14.853 -0.5067  0.0306 -0.5977
12735TIP3    H259697   1.212   4.430  14.931 -0.3919 -0.0111 -0.5212
12736TIP3   OH259698   3.423   3.242   0.097 -0.1490 -0.0596  0.1781
12736TIP3    H159699   3.348   3.263   0.152  0.5836 -0.0543  1.2133
12736TIP3    H259700   3.427   3.312   0.033 -2.1583 -1.0781 -1.1223
12737TIP3   OH259701   5.595   3.768  12.650  0.1171 -0.3010 -0.4410
12737TIP3    H159702   5.553   3.689  12.618  1.4927 -2.0108  1.8297
12737TIP3    H259703   5.687   3.745  12.658  0.3743  1.1677  1.2904
12738TIP3   OH259704   1.011   5.952   2.653 -0.3146  0.7506  0.9030
12738TIP3    H159705   0.940   5.914   2.601  0.6691 -1.4089  1.0986
12738TIP3    H259706   1.078   5.976   2.589 -0.3732  0.8734  0.8893
12739TIP3   OH259707   3.461   4.946   0.876 -0.1359  0.5448 -0.0200
12739TIP3    H159708   3.461   5.034   0.914 -0.2693  0.2823  0.5904
12739TIP3    H259709   3.438   4.960   0.784 -1.3847  1.0329  0.3577
12740TIP3   OH259710   1.144   5.859   0.537 -0.2877  0.1830 -0.2015
12740TIP3    H159711   1.142   5.818   0.624 -0.1644 -1.0246 -0.7678
12740TIP3    H259712   1.167   5.789   0.477 -0.5348  0.9800 -1.2493
12741TIP3   OH259713   2.843   3.790   1.699  0.3887 -0.6449 -0.6234
12741TIP3    H159714   2.874   3.700   1.691  1.8534 -0.0559 -1.9176
12741TIP3    H259715   2.890   3.825   1.775  1.2704 -0.4085 -1.2719
12742TIP3   OH259716   1.784   1.413  13.666 -0.4780  0.3981 -0.8482
12742TIP3    H159717   1.765   1.368  13.749  0.0598 -0.0338 -0.9541
12742TIP3    H259718   1.747   1.355  13.599  0.2017  0.1079 -0.9833
12743TIP3   OH259719   3.697   3.417  11.856  0.1102 -0.2206 -0.2368
12743TIP3    H159720   3.774   3.375  11.895  0.6142  0.4283 -0.5221
12743TIP3    H259721   3.676   3.361  11.780  0.1496 -0.5336 -0.0188
12744TIP3   OH259722   1.872   2.458   4.984 -0.0320  0.2856 -0.4010
12744TIP3    H159723   1.882   2.473   5.078 -0.7591  0.5194 -0.3583
12744TIP3    H259724   1.937   2.391   4.964  0.9185  1.0681  0.0439
12745TIP3   OH259725   1.833   4.833  11.621 -0.1821  0.0110  0.6446
12745TIP3    H159726   1.839   4.891  11.545 -2.5125  0.7139  0.9644
12745TIP3    H259727   1.796   4.888  11.690 -1.5206 -1.6073  1.2410
12746TIP3   OH259728   3.122   5.636   1.770  0.1452  0.2141 -0.0683
12746TIP3    H159729   3.056   5.697   1.738  1.1869  1.7440  0.6108
12746TIP3    H259730   3.131   5.656   1.863  1.6127  0.1009 -0.1634
12747TIP3   OH259731   2.378   4.504   2.243 -0.0699  0.5061 -0.2689
12747TIP3    H159732   2.463   4.504   2.286  1.0919  1.3287 -2.5001
12747TIP3    H259733   2.341   4.590   2.261  0.1203  0.6034 -0.3470
12748TIP3   OH259734   6.269   0.450   0.523  0.1127  0.1270  0.2165
12748TIP3    H159735   6.300   0.525   0.574 -0.4595  1.1219 -0.8780
12748TIP3    H259736   6.343   0.428   0.466 -0.4670  1.2158 -0.9648
12749TIP3   OH259737   0.563   1.751  15.254  0.6710  0.1770  0.7826
12749TIP3    H159738   0.495   1.795  15.202  0.0546 -1.1219  0.4859
12749TIP3    H259739   0.634   1.735  15.191  0.5301 -0.0558  0.6815
12750TIP3   OH259740   3.078   4.763   1.771 -0.1407  0.2504 -0.4151
12750TIP3    H159741   3.131   4.840   1.754 -0.1028  0.3143 -0.0108
12750TIP3    H259742   3.023   4.787   1.846  0.6868 -0.5011  0.4549
12751TIP3   OH259743   2.969   1.626  11.829 -0.2093 -0.1415 -0.5885
12751TIP3    H159744   3.064   1.638  11.834 -0.4129  1.1268  0.7599
12751TIP3    H259745   2.957   1.534  11.805  1.3484 -0.5064 -0.0101
12752TIP3   OH259746   0.778   6.446   5.320  0.1759  0.0905  0.1120
12752TIP3    H159747   0.710   6.513   5.316  0.5375  0.4193 -1.0489
12752TIP3    H259748   0.838   6.469   5.248  0.4213 -1.3514 -0.1747
12753TIP3   OH259749   2.857   1.977   4.873  0.3143 -0.1354 -0.2271
12753TIP3    H159750   2.798   1.986   4.798  0.6214  0.2912 -0.4201
12753TIP3    H259751   2.885   1.885   4.870  1.3410  0.1828 -1.4218
12754TIP3   OH259752   1.762   3.355   5.854  0.3858 -0.2316 -0.7982
12754TIP3    H159753   1.829   3.364   5.787  0.5483 -0.2299 -0.6344
12754TIP3    H259754   1.799   3.396   5.932 -0.4378  1.2069 -1.1456
12755TIP3   OH259755   1.447   5.624  13.588 -0.9255  0.0821 -0.0815
12755TIP3    H159756   1.481   5.535  13.591  0.4327  0.5393 -1.1159
12755TIP3    H259757   1.364   5.617  13.540 -0.6920 -0.5826 -0.3947
12756TIP3   OH259758   0.481   3.563  16.752  0.1411  0.0264 -0.1608
12756TIP3    H159759   0.392   3.547  16.781 -0.5699  0.1405 -2.2231
12756TIP3    H259760   0.536   3.514  16.813 -1.2851  0.3082  1.3866
12757TIP3   OH259761   1.680   4.473  16.825 -0.0707 -0.3965 -0.3023
12757TIP3    H159762   1.678   4.438  16.736 -0.6043 -0.8201 -0.1297
12757TIP3    H259763   1.655   4.399  16.881  0.2524 -0.1334  0.2000
12758TIP3   OH259764   0.809   0.288   1.989  0.5394 -0.1395  0.0300
12758TIP3    H159765   0.852   0.237   1.920 -0.2425  1.0479 -1.3637
12758TIP3    H259766   0.842   0.377   1.977  2.7822 -0.4662  3.1671
12759TIP3   OH259767   4.074   2.662  12.192 -0.3753 -0.4490  0.0467
12759TIP3    H159768   4.048   2.670  12.100 -1.4872 -2.4367  0.1509
12759TIP3    H259769   3.991   2.646  12.238  0.2018  0.3007  1.3649
12760TIP3   OH259770   2.539   5.867  12.475  0.0491  0.3376 -0.4813
12760TIP3    H159771   2.625   5.843  12.440  0.0290 -0.2974 -0.1014
12760TIP3    H259772   2.498   5.784  12.499 -0.2465  0.7074  0.3234
12761TIP3   OH259773   3.661   4.023   2.591 -0.2770 -0.1135  0.6879
12761TIP3    H159774   3.572   4.026   2.556  0.5234  0.8540 -1.3348
12761TIP3    H259775   3.684   4.115   2.603  0.3675 -0.3708  1.4351
12762TIP3   OH259776   4.169   5.267   1.880  0.0942 -0.3575  0.2479
12762TIP3    H159777   4.115   5.295   1.806  1.0396  2.0763  0.4508
12762TIP3    H259778   4.108   5.221   1.938 -1.3696  0.7276 -0.4008
12763TIP3   OH259779   5.244   1.033   3.773 -0.2031  0.5255 -0.2043
12763TIP3    H159780   5.340   1.026   3.769 -0.1513  0.7344  0.5349
12763TIP3    H259781   5.227   1.127   3.767 -0.1934  0.7508  2.5188
12764TIP3   OH259782   5.517   6.283   3.464  0.3396 -0.4892  0.3252
12764TIP3    H159783   5.561   6.360   3.428  0.7116 -1.4165 -1.2283
12764TIP3    H259784   5.429   6.286   3.428  0.7629 -1.5113 -0.8068
12765TIP3   OH259785   3.576   6.292  13.517 -0.2155  0.0853  0.5836
12765TIP3    H159786   3.494   6.292  13.468 -0.0121 -0.2994  0.2380
12765TIP3    H259787   3.581   6.205  13.556  1.1760 -0.7225 -1.3309
12766TIP3   OH259788   0.213   1.164  16.790  0.0044 -0.2714 -0.0429
12766TIP3    H159789   0.208   1.229  16.720  2.6882  0.2167  0.1390
12766TIP3    H259790   0.148   1.098  16.767 -1.2400  1.3837 -1.3890
12767TIP3   OH259791   4.960   3.560  11.609  0.4485  0.0715 -0.0139
12767TIP3    H159792   5.056   3.564  11.604  0.5296 -1.1251  0.4533
12767TIP3    H259793   4.942   3.525  11.696 -0.4534  1.2844  0.3031
12768TIP3   OH259794   3.674   2.692   5.194 -0.1816 -0.0738  0.6811
12768TIP3    H159795   3.715   2.640   5.263 -0.9848  0.6275  1.7037
12768TIP3    H259796   3.607   2.743   5.239 -2.0326 -1.0202 -0.9242
12769TIP3   OH259797   0.018   2.708  13.318 -0.1530  0.0452  0.4627
12769TIP3    H159798  -0.020   2.785  13.274  0.1847 -0.6840 -1.1440
12769TIP3    H259799   0.110   2.708  13.291 -0.4031 -1.5398 -0.4529
12770TIP3   OH259800   5.156   5.148   6.054 -0.2256  0.0234  0.3788
12770TIP3    H159801   5.249   5.162   6.042 -0.3167  0.6616  0.3841
12770TIP3    H259802   5.150   5.080   6.121  0.2404 -0.4743 -0.0918
12771TIP3   OH259803   0.864   5.090   0.614  0.3768  0.5882 -0.4697
12771TIP3    H159804   0.850   5.012   0.560  2.0514 -0.2367  0.2666
12771TIP3    H259805   0.950   5.122   0.588 -0.4096  2.3739 -0.9541
12772TIP3   OH259806   4.936   1.872  11.872 -0.4243  0.5740  1.3040
12772TIP3    H159807   4.913   1.936  11.805  2.5170 -0.3863 -0.7011
12772TIP3    H259808   5.023   1.897  11.901 -0.2528 -1.0631  2.2769
12773TIP3   OH259809   6.051   3.484  12.539  0.0903 -0.3687  0.4091
12773TIP3    H159810   5.982   3.434  12.582  1.2360 -0.8136  1.7373
12773TIP3    H259811   6.045   3.459  12.447 -1.1432 -0.8358  0.6107
12774TIP3   OH259812   0.214   5.430  14.958  0.1735  0.8621  0.4335
12774TIP3    H159813   0.124   5.414  14.988  0.2999  2.0116  1.4567
12774TIP3    H259814   0.269   5.400  15.030  0.6550 -0.4877 -0.4696
12775TIP3   OH259815   6.129   0.414  14.133 -0.2362  0.2340 -0.0495
12775TIP3    H159816   6.205   0.370  14.170 -1.2555 -0.8377  0.8110
12775TIP3    H259817   6.104   0.360  14.059 -0.4425  0.3210 -0.0436
12776TIP3   OH259818   4.620   3.485  11.860 -0.2060 -0.0444 -0.8388
12776TIP3    H159819   4.680   3.555  11.886 -1.2518  0.7602 -0.5605
12776TIP3    H259820   4.624   3.483  11.765  1.3313 -0.9523 -0.7720
12777TIP3   OH259821   4.888   6.728  11.750 -0.9393 -0.2606 -0.0482
12777TIP3    H159822   4.884   6.823  11.753  0.0983 -0.2136  0.0399
12777TIP3    H259823   4.937   6.703  11.828 -1.7750 -0.9057  0.2758
12778TIP3   OH259824   6.146   1.063  12.150 -0.4398 -0.5476  0.2775
12778TIP3    H159825   6.134   0.968  12.146 -0.4379 -0.5307 -0.1770
12778TIP3    H259826   6.082   1.098  12.089  1.6671 -0.4502 -1.9427
12779TIP3   OH259827   4.202   0.336  14.424 -0.1567 -0.5914  0.2809
12779TIP3    H159828   4.235   0.364  14.510 -0.3626  1.3206 -0.2465
12779TIP3    H259829   4.109   0.319  14.438 -0.3335  0.3571  0.3043
12780TIP3   OH259830   2.886   2.633  14.831 -0.2061 -0.3324  0.1671
12780TIP3    H159831   2.818   2.685  14.875 -1.7561 -1.6087 -0.6599
12780TIP3    H259832   2.857   2.543  14.842  1.6170 -0.9258  0.1934
12781TIP3   OH259833   3.400   5.816  16.206 -0.4581  0.5462  0.6919
12781TIP3    H159834   3.464   5.762  16.158  1.2326  0.7801  2.5946
12781TIP3    H259835   3.317   5.801  16.161  0.6511 -0.9703 -0.9176
12782TIP3   OH259836   4.129   3.915  12.473 -0.2175  0.1782  0.2415
12782TIP3    H159837   4.129   4.006  12.504 -1.5851  0.4640 -0.5445
12782TIP3    H259838   4.051   3.876  12.513  1.2542 -1.1382  1.8941
12783TIP3   OH259839   2.105   2.877  14.918  0.6859 -0.0790  0.9960
12783TIP3    H159840   2.133   2.895  14.828 -1.9930 -2.3265 -0.3845
12783TIP3    H259841   2.169   2.815  14.952  0.7497 -0.5590  0.0072
12784TIP3   OH259842   0.931   6.553   0.950  0.0577  0.2776 -0.2863
12784TIP3    H159843   0.872   6.626   0.929  0.1063  0.9617  1.8043
12784TIP3    H259844   1.018   6.586   0.929 -0.0206  0.4374 -0.3644
12785TIP3   OH259845   1.478   4.658   2.843 -0.1108  0.0200 -0.3117
12785TIP3    H159846   1.546   4.603   2.883 -0.4439  0.7243  1.2613
12785TIP3    H259847   1.421   4.596   2.798  0.3219 -0.7995  0.2452
12786TIP3   OH259848   2.594   1.295   2.701 -0.0367 -0.3707 -0.2053
12786TIP3    H159849   2.544   1.273   2.623 -2.6974  1.1361  1.0185
12786TIP3    H259850   2.623   1.385   2.687 -0.3927 -0.1446  0.4714
12787TIP3   OH259851   4.338   6.677   5.967  0.4231 -0.7627  0.0961
12787TIP3    H159852   4.258   6.629   5.989 -0.4773  1.6328  2.2485
12787TIP3    H259853   4.317   6.721   5.885 -0.6317  0.2028  0.8760
12788TIP3   OH259854   3.865   1.406  11.466  0.0600  0.0312  0.2782
12788TIP3    H159855   3.909   1.389  11.382 -3.8323 -0.6761 -1.7466
12788TIP3    H259856   3.910   1.348  11.528  2.4600 -0.0919 -1.4812
12789TIP3   OH259857   6.558   2.153   5.091 -0.1606 -0.0145  0.2102
12789TIP3    H159858   6.579   2.105   5.171  2.1860  0.7956  0.1052
12789TIP3    H259859   6.641   2.161   5.045 -0.6359  3.3869 -0.1936
12790TIP3   OH259860   5.816   2.522   0.988 -0.2191 -0.0348 -0.3582
12790TIP3    H159861   5.824   2.428   1.004 -0.2623  0.2891  1.6665
12790TIP3    H259862   5.906   2.554   0.989 -0.2388  0.0299 -0.5832
12791TIP3   OH259863   4.182   3.685  15.599 -0.0577  0.6215 -0.6229
12791TIP3    H159864   4.152   3.628  15.528 -0.6182 -1.1573  0.9981
12791TIP3    H259865   4.267   3.649  15.625 -0.8621 -0.1205  1.0679
12792TIP3   OH259866   6.169   3.921  12.468  0.0147 -0.3147 -0.1967
12792TIP3    H159867   6.255   3.892  12.436 -0.6190 -3.2361  0.6395
12792TIP3    H259868   6.106   3.868  12.420 -1.1223 -1.7303  2.7195
12793TIP3   OH259869   4.890   1.760   1.144 -0.0982 -0.4494 -0.1954
12793TIP3    H159870   4.947   1.776   1.069 -2.4677  0.4856 -1.8531
12793TIP3    H259871   4.948   1.766   1.220  2.3045 -1.2432 -1.9222
12794TIP3   OH259872   2.203   1.719  16.162 -0.0547  0.4586 -0.0608
12794TIP3    H159873   2.123   1.729  16.212 -1.5428 -2.2151 -1.7345
12794TIP3    H259874   2.240   1.636  16.192  0.7162  0.4053 -1.1054
12795TIP3   OH259875   2.034   4.996  12.348 -0.4051  0.0341  0.2281
12795TIP3    H159876   2.115   5.011  12.398 -0.4136  1.8864 -0.3009
12795TIP3    H259877   2.040   5.055  12.273 -1.6430 -0.7898 -0.5399
12796TIP3   OH259878   1.507   2.251   0.251  0.0810  0.5165  0.4379
12796TIP3    H159879   1.493   2.319   0.317 -0.1082 -0.3461  1.2858
12796TIP3    H259880   1.579   2.285   0.197 -2.7595  3.3540 -1.7687
12797TIP3   OH259881   2.581   3.030   3.370 -0.1475 -0.4460 -0.1214
12797TIP3    H159882   2.668   3.062   3.350  0.6186 -2.2286  0.2272
12797TIP3    H259883   2.522   3.099   3.340  1.4323  1.4295  0.9694
12798TIP3   OH259884   3.935   5.767   2.282  0.0224 -0.3266  0.0807
12798TIP3    H159885   3.990   5.689   2.278  0.2603 -0.0761 -1.6233
12798TIP3    H259886   3.898   5.776   2.194 -1.3135  0.5385  0.7121
12799TIP3   OH259887   5.875   6.088  15.701  0.1417 -0.0025 -0.2209
12799TIP3    H159888   5.826   6.021  15.653  0.3964  0.1852 -0.7537
12799TIP3    H259889   5.897   6.154  15.634  0.1141  0.4850  0.2432
12800TIP3   OH259890   2.959   2.807  12.538  0.4864  0.6679 -0.2168
12800TIP3    H159891   2.939   2.715  12.521 -0.9023  1.0671 -0.9112
12800TIP3    H259892   3.023   2.831  12.471 -0.6634  0.7169 -1.3214
12801TIP3   OH259893   3.728   0.838  12.389 -0.5528  0.2788  0.1341
12801TIP3    H159894   3.786   0.772  12.351  0.9208  2.3582 -1.3623
12801TIP3    H259895   3.745   0.834  12.483  1.4454  0.2955 -0.1985
12802TIP3   OH259896   5.374   6.254   3.793  0.3009  0.4975 -0.4071
12802TIP3    H159897   5.437   6.193   3.755 -0.0922  0.7761 -1.5202
12802TIP3    H259898   5.317   6.279   3.720 -0.1666  1.4115  0.2553
12803TIP3   OH259899   2.328   4.235  11.764 -0.6013 -0.4936 -0.4753
12803TIP3    H159900   2.421   4.216  11.763 -0.7224 -1.2348  1.7481
12803TIP3    H259901   2.304   4.238  11.671  0.7100 -4.7385 -1.0562
12804TIP3   OH259902   6.523   4.322   5.433  0.4595  0.3139  0.3516
12804TIP3    H159903   6.485   4.250   5.484  1.2403  0.3388  0.9688
12804TIP3    H259904   6.447   4.364   5.392  0.0010 -0.8774 -0.0413
12805TIP3   OH259905   2.006   4.646  13.089 -0.1827  0.3228 -0.4025
12805TIP3    H159906   2.013   4.742  13.087 -0.1060  0.3055 -3.0226
12805TIP3    H259907   2.096   4.616  13.099 -0.3712  0.5168  2.1441
12806TIP3   OH259908   0.990   1.102   2.369  0.2939 -0.0709 -0.1102
12806TIP3    H159909   0.987   1.161   2.293 -0.9165  0.4694  0.3343
12806TIP3    H259910   0.976   1.015   2.331  0.9212  0.0478 -0.6392
12807TIP3   OH259911   0.929   0.968   5.111 -0.0917  0.1975  0.3000
12807TIP3    H159912   0.840   0.942   5.087  0.2964 -1.6030  0.7672
12807TIP3    H259913   0.925   0.985   5.205  0.2160 -0.6251  0.4679
12808TIP3   OH259914   1.036   5.342   2.337 -0.3990  0.2459  0.2759
12808TIP3    H159915   1.098   5.411   2.312  1.1670 -0.5990  1.7129
12808TIP3    H259916   0.954   5.389   2.353 -0.7698  1.1328 -3.6677
12809TIP3   OH259917   3.812   4.739   5.176 -0.3740  0.2121  0.0492
12809TIP3    H159918   3.834   4.823   5.135  0.8768  0.2720  0.8268
12809TIP3    H259919   3.759   4.694   5.110 -0.3849  1.2766 -0.6900
12810TIP3   OH259920   2.478   6.538   0.376  0.2809 -0.3454  0.6201
12810TIP3    H159921   2.441   6.494   0.452 -1.1616  0.3468  0.3341
12810TIP3    H259922   2.567   6.504   0.369  0.8928  0.6028  3.4003
12811TIP3   OH259923   6.681   2.395  12.181 -0.1068  0.2858  0.8141
12811TIP3    H159924   6.663   2.487  12.162 -0.7439 -0.2000 -1.0126
12811TIP3    H259925   6.671   2.350  12.097  0.2667 -1.4468  1.6669
12812TIP3   OH259926   6.424   2.063  15.203  0.1379  0.2691 -0.8933
12812TIP3    H159927   6.417   2.144  15.254  1.3761  1.9923 -3.3209
12812TIP3    H259928   6.511   2.030  15.224 -0.3247 -0.3767  0.0135
12813TIP3   OH259929   6.483   3.113  13.235  0.0244  0.3412 -0.0267
12813TIP3    H159930   6.523   3.176  13.295  0.3710  0.2253 -0.1342
12813TIP3    H259931   6.423   3.165  13.182 -2.8614 -0.1017  2.6913
12814TIP3   OH259932   5.504   0.258  14.741 -0.7960 -0.0699  0.7407
12814TIP3    H159933   5.555   0.338  14.724  0.0469 -0.5890  0.7743
12814TIP3    H259934   5.435   0.260  14.676 -0.2971  0.2838  0.2114
12815TIP3   OH259935   2.944   0.034  11.904  0.7945 -0.2572  0.1644
12815TIP3    H159936   2.912   0.081  11.827  2.1796  0.0198 -0.2514
12815TIP3    H259937   3.037   0.021  11.888  1.1766  0.1056  1.9689
12816TIP3   OH259938   0.977   1.397  11.688 -0.2925 -0.2138  0.6208
12816TIP3    H159939   0.934   1.368  11.607  0.1675 -0.1305  0.3470
12816TIP3    H259940   0.904   1.420  11.746 -0.6265 -0.2423  0.2220
12817TIP3   OH259941   0.815   1.239  13.120  0.0516  0.0181  0.0613
12817TIP3    H159942   0.741   1.217  13.177  0.5532 -1.4323  0.1630
12817TIP3    H259943   0.801   1.188  13.041  1.6290 -1.3071  0.5974
12818TIP3   OH259944   2.039   3.780  15.751 -0.6044  0.1899  0.1696
12818TIP3    H159945   2.088   3.862  15.752 -0.3373  0.0546  2.8243
12818TIP3    H259946   2.106   3.712  15.744 -0.7036  0.1312 -0.2333
12819TIP3   OH259947   6.483   3.122   3.898  0.3123  0.3528  0.5432
12819TIP3    H159948   6.429   3.117   3.977 -1.6062  1.2291 -0.6796
12819TIP3    H259949   6.462   3.207   3.860  0.7631 -0.2983 -1.2122
12820TIP3   OH259950   3.937   6.039   2.321 -0.6727  0.2194  0.3167
12820TIP3    H159951   3.915   6.062   2.231  1.4395  0.3202 -0.2032
12820TIP3    H259952   3.931   5.943   2.324 -0.9147  0.2301  0.1248
12821TIP3   OH259953   5.356   5.721   0.963 -0.0739  0.3184 -0.2092
12821TIP3    H159954   5.309   5.703   1.045  0.5673 -0.1991  0.0489
12821TIP3    H259955   5.320   5.805   0.934  0.8189  1.3060  1.4361
12822TIP3   OH259956   5.245   5.995  13.497  0.0873 -0.1257  0.4795
12822TIP3    H159957   5.181   6.003  13.426  0.2016  0.6678  0.4693
12822TIP3    H259958   5.195   6.017  13.577  0.0419 -0.6997  0.6168
12823TIP3   OH259959   0.587   6.044  11.264 -0.2496  0.6262 -0.0929
12823TIP3    H159960   0.554   6.043  11.174 -0.8666  0.4551  0.1336
12823TIP3    H259961   0.631   5.960  11.274  1.1110  1.2578 -0.7107
12824TIP3   OH259962   0.950   4.423   1.791  0.1168 -0.3091 -0.6772
12824TIP3    H159963   1.031   4.415   1.841  0.7054  1.5823 -1.2672
12824TIP3    H259964   0.909   4.503   1.825 -0.4630 -0.1085 -1.8172
12825TIP3   OH259965   6.778   3.234  16.602  0.0202 -0.2989 -0.0916
12825TIP3    H159966   6.694   3.187  16.604 -0.1830 -0.0195 -1.4282
12825TIP3    H259967   6.803   3.233  16.509  0.2290  1.8195 -0.0666
12826TIP3   OH259968   6.170   0.391   4.844  0.4357  0.2871 -0.6264
12826TIP3    H159969   6.113   0.366   4.771 -0.6585 -1.4078  0.7742
12826TIP3    H259970   6.238   0.446   4.804  1.2980 -2.6446 -3.3719
12827TIP3   OH259971   3.720   6.582  12.543 -0.3509  0.5453 -0.4191
12827TIP3    H159972   3.727   6.673  12.513 -1.4715  0.7155 -0.1837
12827TIP3    H259973   3.788   6.536  12.495  0.2791  1.5306 -0.4813
12828TIP3   OH259974   3.253   3.906   3.181  0.4540  0.3806 -0.3358
12828TIP3    H159975   3.276   3.920   3.089 -0.4870  0.9140 -0.4901
12828TIP3    H259976   3.281   3.986   3.225 -1.5683  1.2695 -0.6151
12829TIP3   OH259977   1.473   4.479  14.783  0.0326 -0.1299  0.3021
12829TIP3    H159978   1.559   4.502  14.816  1.0083 -3.0191 -0.0771
12829TIP3    H259979   1.457   4.540  14.711  2.4466 -0.5732 -0.6318
12830TIP3   OH259980   2.151   3.391  13.477 -0.0851  0.0695 -0.3369
12830TIP3    H159981   2.141   3.364  13.568  2.9673  1.1656  0.3774
12830TIP3    H259982   2.162   3.486  13.481 -1.1166  0.2883 -1.9794
12831TIP3   OH259983   6.422   0.142   3.974  0.4362 -0.6990 -0.2145
12831TIP3    H159984   6.486   0.091   3.923  1.2725  1.4897 -1.4095
12831TIP3    H259985   6.337   0.115   3.940  0.8171 -1.9332 -0.2186
12832TIP3   OH259986   2.109   0.015  12.320  0.8876 -0.3412  0.0690
12832TIP3    H159987   2.141  -0.040  12.391 -1.9143 -2.4735 -0.2090
12832TIP3    H259988   2.097  -0.045  12.247 -0.2870  1.0351 -0.9016
12833TIP3   OH259989   4.651   2.265   5.671 -0.3708 -0.0351 -0.1337
12833TIP3    H159990   4.698   2.283   5.753 -0.2046 -1.4575  0.0900
12833TIP3    H259991   4.597   2.189   5.690 -0.0684 -0.5937 -1.4602
12834TIP3   OH259992   1.914   3.041  12.472  0.8607  0.0298  0.8346
12834TIP3    H159993   1.938   2.982  12.401  1.4340 -0.8542  1.7547
12834TIP3    H259994   1.874   3.116  12.428  1.0352 -0.5924 -0.4059
12835TIP3   OH259995   1.552   5.627  12.519 -0.1691  0.0737  0.2536
12835TIP3    H159996   1.611   5.651  12.448 -2.0872 -1.4851 -1.9923
12835TIP3    H259997   1.571   5.534  12.535 -1.1940 -0.1427  0.2679
12836TIP3   OH259998   2.492   3.339  12.804 -0.2842  0.1951 -0.2205
12836TIP3    H159999   2.448   3.314  12.722  1.9514 -0.4530 -1.2576
12836TIP3    H260000   2.532   3.258  12.835 -0.3718  0.6422  1.0639
12837TIP3   OH260001   1.365   0.924  12.096 -0.1000  0.2932  0.2949
12837TIP3    H160002   1.296   0.869  12.134  0.3174 -1.1508 -0.9884
12837TIP3    H260003   1.325   1.011  12.091 -2.6392 -0.9230 -2.3833
12838TIP3   OH260004   3.303   4.522  11.925  0.2020  0.3372  0.3770
12838TIP3    H160005   3.387   4.483  11.902 -0.4150  0.2462 -1.7904
12838TIP3    H260006   3.321   4.616  11.929  0.2312  0.3884 -0.8806
12839TIP3   OH260007   4.149   3.863   2.092  0.3985  0.5086  0.4299
12839TIP3    H160008   4.136   3.917   2.014 -1.5669 -2.7083 -1.5683
12839TIP3    H260009   4.222   3.805   2.069 -0.0475 -0.3120  1.0499
12840TIP3   OH260010   1.777   3.169   1.915 -0.3467 -0.0152  0.7467
12840TIP3    H160011   1.764   3.082   1.954  0.9342 -0.6840 -0.2583
12840TIP3    H260012   1.840   3.154   1.844 -2.3467  1.2258 -1.3725
12841TIP3   OH260013   1.485   3.452   4.626  0.0439  0.7549 -0.6110
12841TIP3    H160014   1.531   3.409   4.554  0.2182  2.9984 -1.8871
12841TIP3    H260015   1.484   3.387   4.696  1.7406 -0.7151 -1.8996
12842TIP3   OH260016   5.212   2.982   2.749 -0.2966 -0.1294  0.0620
12842TIP3    H160017   5.142   2.925   2.780 -1.5339  0.8569 -0.8944
12842TIP3    H260018   5.222   3.047   2.819 -1.8904  1.0540 -0.7748
12843TIP3   OH260019   3.074   2.359  10.693 -0.2087 -0.0359  0.2623
12843TIP3    H160020   3.094   2.267  10.678  1.0390  0.5106 -1.5130
12843TIP3    H260021   3.157   2.399  10.718 -0.1788  1.0897 -1.4892
12844TIP3   OH260022   5.181   3.937  15.903 -0.0506  0.2731 -0.4458
12844TIP3    H160023   5.174   4.027  15.874 -0.6553  0.9391  1.6839
12844TIP3    H260024   5.269   3.931  15.941 -0.7802  0.5940  1.3656
12845TIP3   OH260025   4.986   4.797   4.489  0.6983  0.6376  0.2899
12845TIP3    H160026   4.991   4.795   4.584 -0.9189  0.8036  0.3939
12845TIP3    H260027   5.023   4.714   4.461  1.5886  0.7763  1.0370
12846TIP3   OH260028   5.514   4.086   3.612 -0.1425 -0.3091 -0.1602
12846TIP3    H160029   5.608   4.107   3.612  0.2078 -1.8038 -0.2207
12846TIP3    H260030   5.510   3.997   3.575 -1.4118 -0.9687  1.5093
12847TIP3   OH260031   4.578   6.030   4.748  0.1585  0.1921  0.5023
12847TIP3    H160032   4.547   5.989   4.668 -1.7761  0.3671  1.1204
12847TIP3    H260033   4.673   6.035   4.739  0.1681 -1.9975 -0.7113
12848TIP3   OH260034   1.546   3.197  12.616 -0.4478  0.4136  0.5065
12848TIP3    H160035   1.630   3.228  12.651  0.6027 -1.4646 -0.2531
12848TIP3    H260036   1.553   3.211  12.521  0.1216 -2.2384  0.1318
12849TIP3   OH260037   6.811   5.916   5.132 -0.2715  0.0562  0.0519
12849TIP3    H160038   6.793   5.906   5.226 -2.5902  2.6960 -0.0394
12849TIP3    H260039   6.746   5.981   5.102  1.7854  0.8287 -2.9392
12850TIP3   OH260040   0.695   0.418  16.071 -0.1063  0.3359  0.1493
12850TIP3    H160041   0.753   0.490  16.048  0.5270 -0.7240 -1.6118
12850TIP3    H260042   0.664   0.440  16.159  1.6950  1.7139  0.4680
12851TIP3   OH260043   0.634   2.161   0.317  0.3177  0.1604 -0.2688
12851TIP3    H160044   0.601   2.108   0.389  0.8195  2.0350  1.4008
12851TIP3    H260045   0.595   2.247   0.331  2.9254  1.4179 -0.3846
12852TIP3   OH260046   6.346   4.420  11.848  0.2749  0.6455  0.1332
12852TIP3    H160047   6.323   4.513  11.850  1.5592  0.9638  0.2130
12852TIP3    H260048   6.273   4.376  11.892  0.2108  1.7323  1.1141
12853TIP3   OH260049   4.458   3.857  14.118  0.3205 -0.6609  0.2044
12853TIP3    H160050   4.467   3.762  14.117  1.8558 -0.5264  0.1051
12853TIP3    H260051   4.512   3.885  14.191  0.6876  0.2067 -0.3884
12854TIP3   OH260052   2.404   4.466   3.906 -0.3448  0.4765  0.1283
12854TIP3    H160053   2.439   4.460   3.817 -0.0553 -1.2537  0.3338
12854TIP3    H260054   2.443   4.391   3.952 -0.1346  1.6066  1.8404
12855TIP3   OH260055   3.983   0.190  14.943  0.6864  0.0653  0.4325
12855TIP3    H160056   3.973   0.284  14.927  0.1952  0.1242  1.0241
12855TIP3    H260057   4.045   0.160  14.877 -0.0568  0.5867 -0.5190
12856TIP3   OH260058   1.754   2.637  15.128  0.2197  0.2848 -0.0870
12856TIP3    H160059   1.671   2.592  15.144 -0.0654  0.0778 -2.0820
12856TIP3    H260060   1.819   2.567  15.121  0.5027  0.4247  1.0397
12857TIP3   OH260061   5.286   0.761   4.494 -0.2302 -0.1508 -0.5487
12857TIP3    H160062   5.245   0.767   4.408 -1.2452 -0.0976 -0.0781
12857TIP3    H260063   5.378   0.744   4.476 -0.7275 -1.9218 -1.6433
12858TIP3   OH260064   5.417   3.084   4.810  0.0659  0.1836  0.4469
12858TIP3    H160065   5.387   3.006   4.855 -1.5558  0.6226  0.1684
12858TIP3    H260066   5.485   3.053   4.750 -2.2009 -1.4365 -1.4129
12859TIP3   OH260067   4.635   1.721   3.677 -0.3597  0.7417  0.1031
12859TIP3    H160068   4.700   1.768   3.730 -0.8462  1.4137  0.1105
12859TIP3    H260069   4.685   1.651   3.636  0.3130  1.0594  0.3588
12860TIP3   OH260070   0.816   4.676  16.714 -0.2026  0.3607  0.2201
12860TIP3    H160071   0.873   4.730  16.768 -0.5214  0.8967  0.0313
12860TIP3    H260072   0.871   4.648  16.641  0.4862 -1.1345  1.2917
12861TIP3   OH260073   5.955   3.427   4.318 -0.3204  0.2049 -0.0284
12861TIP3    H160074   5.886   3.404   4.256  0.3915  0.3684 -0.8817
12861TIP3    H260075   5.976   3.344   4.362 -0.9816  0.1356  0.1648
12862TIP3   OH260076   2.757   6.303  12.888 -0.0136 -0.5908 -0.5207
12862TIP3    H160077   2.716   6.290  12.973  1.0050 -2.1298 -0.2365
12862TIP3    H260078   2.691   6.273  12.825 -0.2307 -0.7861 -0.2012
12863TIP3   OH260079   5.752   6.815   0.463  0.0785 -0.3439  0.5995
12863TIP3    H160080   5.762   6.786   0.372 -1.6033 -0.8212  0.5399
12863TIP3    H260081   5.824   6.876   0.477  0.8117 -0.8622 -0.8111
12864TIP3   OH260082   0.189   4.270   1.837  0.0578  0.7204 -0.4300
12864TIP3    H160083   0.203   4.199   1.900 -1.4247  1.1496  0.4109
12864TIP3    H260084   0.243   4.341   1.869  2.6665 -0.4735 -2.0727
12865TIP3   OH260085   3.326   2.913  11.844  0.1107  0.3921  0.9419
12865TIP3    H160086   3.291   2.902  11.756 -0.2143 -1.5859  1.2904
12865TIP3    H260087   3.420   2.927  11.832  0.4787 -2.3462  0.3748
12866TIP3   OH260088   5.283   5.063   1.815  0.0631  0.0396  0.1808
12866TIP3    H160089   5.314   4.973   1.809  1.0517  0.3916 -0.1017
12866TIP3    H260090   5.362   5.114   1.832 -0.1936  1.0849 -1.6621
12867TIP3   OH260091   5.154   3.367  11.518  0.5463 -0.1116  0.2446
12867TIP3    H160092   5.187   3.431  11.454  1.9571  0.9678  2.0160
12867TIP3    H260093   5.090   3.315  11.468  2.4056 -0.0258 -2.3564
12868TIP3   OH260094   0.196   1.008   1.613  0.7070 -0.1856 -0.7614
12868TIP3    H160095   0.108   1.034   1.643  0.9161 -0.5108  0.1502
12868TIP3    H260096   0.185   0.991   1.520 -0.5853 -1.8363 -0.3384
12869TIP3   OH260097   0.281   0.318  15.540  0.4400  0.7290  0.4427
12869TIP3    H160098   0.224   0.379  15.586  0.4775  0.6499  0.5937
12869TIP3    H260099   0.296   0.359  15.455 -4.3805 -1.8060 -1.8526
12870TIP3   OH260100   0.736   2.309  15.958  0.4160 -0.8091  0.4044
12870TIP3    H160101   0.719   2.246  15.887  0.7118 -2.4862  1.8109
12870TIP3    H260102   0.730   2.257  16.038  1.5890  0.7745  1.5369
12871TIP3   OH260103   1.528   5.561   5.353  0.1069  0.1022  0.2252
12871TIP3    H160104   1.524   5.506   5.432 -2.4744 -1.1038 -0.6950
12871TIP3    H260105   1.464   5.631   5.369 -0.5052 -0.2033 -0.8111
12872TIP3   OH260106   2.590   2.114  15.832 -0.0179 -0.5847 -0.3041
12872TIP3    H160107   2.534   2.191  15.818 -0.1705 -0.6283  0.0717
12872TIP3    H260108   2.679   2.148  15.826 -0.0838 -0.3013  0.2871
12873TIP3   OH260109   4.734   5.445  16.592 -0.0557 -0.8478 -0.6386
12873TIP3    H160110   4.698   5.441  16.680  1.0336 -0.1098 -0.1352
12873TIP3    H260111   4.754   5.354  16.569  1.9544 -0.8384  0.8850
12874TIP3   OH260112   5.512   4.344  11.868 -0.0864  0.2640 -0.1120
12874TIP3    H160113   5.522   4.271  11.808  1.9629 -1.2840  2.0000
12874TIP3    H260114   5.449   4.314  11.933  2.5907 -0.7011  2.1690
12875TIP3   OH260115   3.449   4.059   1.945 -0.1949  0.2894  0.2314
12875TIP3    H160116   3.474   4.005   1.870  1.7907  1.9243 -0.3476
12875TIP3    H260117   3.379   4.009   1.989  1.5400 -2.7352 -0.2603
12876TIP3   OH260118   2.754   4.409  11.403 -0.1244 -0.2082 -0.0130
12876TIP3    H160119   2.813   4.441  11.472 -1.5928 -0.2100  1.2684
12876TIP3    H260120   2.731   4.487  11.353 -2.8187  0.6648  2.4344
12877TIP3   OH260121   4.105   6.289   1.661  0.3876 -0.5599  0.1547
12877TIP3    H160122   4.108   6.304   1.756  0.0214  0.3476  0.0259
12877TIP3    H260123   4.187   6.328   1.629  0.0671 -0.0157 -0.0127
12878TIP3   OH260124   3.748   0.591   2.020 -0.5909  0.5112 -0.0661
12878TIP3    H160125   3.727   0.600   2.113 -0.5086 -2.0931  0.2459
12878TIP3    H260126   3.673   0.542   1.984 -0.1589  0.6588 -1.1566
12879TIP3   OH260127   3.316   3.825  13.795  0.0878  0.2414 -0.0099
12879TIP3    H160128   3.228   3.817  13.831 -0.2748 -2.6908 -1.3782
12879TIP3    H260129   3.373   3.784  13.860  0.0614 -0.4906 -0.4417
12880TIP3   OH260130   6.676   6.509   1.973  0.7064 -0.0886  0.6415
12880TIP3    H160131   6.732   6.572   1.927 -0.9403 -0.5732 -2.1652
12880TIP3    H260132   6.695   6.425   1.931  0.5282 -0.9130  2.1637
12881TIP3   OH260133   4.761   4.975  14.934 -0.1172  0.5559  0.3172
12881TIP3    H160134   4.818   5.000  14.862  1.8181 -2.2416  0.8255
12881TIP3    H260135   4.672   4.994  14.902  0.6825 -0.8369 -2.8797
12882TIP3   OH260136   6.413   6.813   4.318  0.1234  0.1208 -0.1488
12882TIP3    H160137   6.420   6.781   4.408 -1.0708  0.0415 -0.0842
12882TIP3    H260138   6.378   6.901   4.327 -0.1277  0.0608 -0.5525
12883TIP3   OH260139   4.578   1.062   0.263  0.8398 -0.2936 -0.1079
12883TIP3    H160140   4.611   1.150   0.284  0.9780 -0.3548 -0.0667
12883TIP3    H260141   4.487   1.063   0.291  1.2938 -0.6992  1.4436
12884TIP3   OH260142   1.297   1.548   0.292 -0.0319 -0.1532  0.1655
12884TIP3    H160143   1.279   1.501   0.211 -0.4148  0.9388 -0.3912
12884TIP3    H260144   1.391   1.568   0.287 -0.6066  2.3335 -1.3234
12885TIP3   OH260145   0.378   1.494  15.518  0.4594 -0.2469  0.1635
12885TIP3    H160146   0.398   1.458  15.431 -0.8775  0.1739 -0.3171
12885TIP3    H260147   0.424   1.578  15.520  2.9823 -1.5944  1.0097
12886TIP3   OH260148   5.310   5.900  16.014  0.3695 -0.2188  0.4817
12886TIP3    H160149   5.405   5.895  16.003  0.5138 -0.8300  1.9044
12886TIP3    H260150   5.284   5.812  16.043 -0.8062 -0.4241 -1.0809
12887TIP3   OH260151   6.392   4.530  16.321  0.2249  0.3636  0.1396
12887TIP3    H160152   6.392   4.623  16.345  0.0259  0.0616  1.3464
12887TIP3    H260153   6.444   4.488  16.389  0.8843 -0.3238 -0.7804
12888TIP3   OH260154   4.420   1.779   5.706 -0.4112 -0.3334 -0.6136
12888TIP3    H160155   4.494   1.723   5.684  0.8505  0.6070  1.1076
12888TIP3    H260156   4.451   1.868   5.690 -2.1091 -0.0239 -2.5072
12889TIP3   OH260157   2.460   4.398   6.063  0.3848  0.2417  0.1497
12889TIP3    H160158   2.524   4.332   6.037 -1.2749 -1.5889  0.5648
12889TIP3    H260159   2.494   4.433   6.146  0.8383 -0.7198  0.3748
12890TIP3   OH260160   3.300   3.764   2.330 -0.3760 -0.3707  0.3283
12890TIP3    H160161   3.391   3.781   2.305 -0.9598  1.0409 -0.9354
12890TIP3    H260162   3.290   3.670   2.321  0.3792 -0.2904 -1.6210
12891TIP3   OH260163   5.813   4.655   4.777  0.2632 -0.1753  0.0772
12891TIP3    H160164   5.827   4.565   4.808  2.0977 -0.9674 -2.8699
12891TIP3    H260165   5.735   4.650   4.723  0.8972 -0.2138 -0.8473
12892TIP3   OH260166   3.741   0.513   1.406  0.2346 -0.4249  0.0173
12892TIP3    H160167   3.775   0.426   1.426 -1.4621 -0.5755  2.5615
12892TIP3    H260168   3.817   0.571   1.415  1.1339 -1.4906 -0.5808
12893TIP3   OH260169   2.039   5.298  15.748 -0.3254 -0.1467 -0.7081
12893TIP3    H160170   2.022   5.211  15.784  1.5087 -0.5449 -0.7725
12893TIP3    H260171   2.042   5.286  15.654 -0.9862  0.1635 -0.7734
12894TIP3   OH260172   5.047   1.898  15.449 -0.2851 -0.0558  0.4617
12894TIP3    H160173   5.046   1.986  15.410 -0.3365 -0.5335 -0.6513
12894TIP3    H260174   4.977   1.851  15.404 -0.5461 -0.5439  1.3662
12895TIP3   OH260175   2.880   3.337  15.548 -0.2363  0.3698 -0.0292
12895TIP3    H160176   2.849   3.384  15.471  0.2427  0.4938 -0.1474
12895TIP3    H260177   2.971   3.315  15.528  0.3199  1.6209  1.0862
12896TIP3   OH260178   4.665   3.636  15.324 -0.7760  0.1880 -0.0601
12896TIP3    H160179   4.705   3.694  15.260 -3.2139 -1.2598 -3.0218
12896TIP3    H260180   4.668   3.549  15.284 -1.5185 -0.9269  2.1946
12897TIP3   OH260181   5.541   4.507   4.690 -0.2441  0.3294 -0.0355
12897TIP3    H160182   5.552   4.436   4.627 -0.3542  1.2808 -1.1516
12897TIP3    H260183   5.556   4.466   4.775  1.9299 -0.5673 -0.7977
12898TIP3   OH260184   0.933   6.380  13.230  0.0646 -0.2535  0.0658
12898TIP3    H160185   0.993   6.325  13.280 -0.8277 -2.0510 -0.7771
12898TIP3    H260186   0.965   6.374  13.140 -0.3751  0.1838 -0.1211
12899TIP3   OH260187   4.263   4.324   1.689  0.2555  0.1046 -0.5103
12899TIP3    H160188   4.290   4.237   1.660  1.0552  0.2751 -0.2891
12899TIP3    H260189   4.329   4.383   1.652  1.7790  0.2488  2.3345
12900TIP3   OH260190   6.588   4.563   0.654  0.7190 -0.9038 -0.5388
12900TIP3    H160191   6.632   4.575   0.571  1.2900 -1.4363 -0.3134
12900TIP3    H260192   6.559   4.471   0.654  1.4515 -1.1413  0.1990
12901TIP3   OH260193   5.685   0.645   3.047 -0.2596 -0.6118 -0.2982
12901TIP3    H160194   5.752   0.712   3.057  0.3422 -1.3991  1.0692
12901TIP3    H260195   5.719   0.588   2.977  0.1038 -0.5364 -0.1867
12902TIP3   OH260196   6.292   4.585   3.822  0.3229  0.0057 -0.0129
12902TIP3    H160197   6.362   4.640   3.788  1.5970 -1.4281  0.2624
12902TIP3    H260198   6.262   4.535   3.746  1.4732 -1.3796  0.4365
12903TIP3   OH260199   4.411   2.144  13.686 -0.1998 -0.4325  0.0990
12903TIP3    H160200   4.456   2.114  13.765  0.6979 -2.1658 -1.0205
12903TIP3    H260201   4.444   2.086  13.617 -2.3179 -0.1135 -1.2087
12904TIP3   OH260202   1.356   0.503  12.558 -0.0340 -0.7574 -0.0998
12904TIP3    H160203   1.378   0.539  12.472 -0.2018 -2.6154 -0.9456
12904TIP3    H260204   1.384   0.570  12.620 -0.5149  0.8998 -1.6275
12905TIP3   OH260205   0.753   3.161  16.420 -0.3729 -0.0132  0.4099
12905TIP3    H160206   0.756   3.150  16.325  0.1665 -0.2489  0.4522
12905TIP3    H260207   0.769   3.073  16.454  0.2928  0.2293  0.7277
12906TIP3   OH260208   4.294   5.147  16.449 -0.0824  0.0086  0.1766
12906TIP3    H160209   4.352   5.198  16.505  0.7121 -1.3671  0.6505
12906TIP3    H260210   4.330   5.158  16.360 -0.1271  0.5497  0.2267
12907TIP3   OH260211   1.933   4.767   2.867 -0.2457 -0.0910  0.0455
12907TIP3    H160212   1.894   4.823   2.798  0.9417  0.3802 -0.2501
12907TIP3    H260213   1.941   4.681   2.826  0.2126  0.1240 -0.3180
12908TIP3   OH260214   4.937   0.898   0.811  0.6967  0.3396 -0.3186
12908TIP3    H160215   4.880   0.824   0.790  1.3268  0.0730 -1.1092
12908TIP3    H260216   4.975   0.924   0.727 -1.8403  3.5013 -0.5520
12909TIP3   OH260217   0.371   6.035   3.460  0.2519 -0.2809  0.2487
12909TIP3    H160218   0.283   6.074   3.461  0.4482  0.1689  1.1557
12909TIP3    H260219   0.387   6.014   3.368 -0.4422  0.4784 -0.0584
12910TIP3   OH260220   2.567   3.427  13.197  0.0141  0.2260 -0.0787
12910TIP3    H160221   2.586   3.442  13.104 -0.2736 -1.9890 -0.5251
12910TIP3    H260222   2.471   3.429  13.203  0.0209  0.0483  0.1113
12911TIP3   OH260223   4.007   3.690  17.245 -0.8297  0.5760  0.1515
12911TIP3    H160224   4.037   3.629  17.312 -0.9047 -0.2348 -0.5396
12911TIP3    H260225   3.915   3.705  17.265 -0.7344  0.6864  0.4987
12912TIP3   OH260226   6.364   6.697   0.049  0.0027  0.5850 -0.2018
12912TIP3    H160227   6.348   6.605   0.070 -0.4928  0.6670 -0.2136
12912TIP3    H260228   6.292   6.744   0.092 -1.2661  0.7252 -2.4552
12913TIP3   OH260229   5.609   6.491  15.147 -0.2582  0.1962  0.3200
12913TIP3    H160230   5.657   6.535  15.077  0.1845 -0.6625  0.0881
12913TIP3    H260231   5.518   6.520  15.135 -0.1019  0.4370 -0.3027
12914TIP3   OH260232   0.261   6.285   3.603 -0.3931 -0.5280 -0.0375
12914TIP3    H160233   0.355   6.283   3.583 -0.4437 -0.6479 -0.2658
12914TIP3    H260234   0.252   6.228   3.679  0.0980  1.5824  1.6258
12915TIP3   OH260235   1.363   2.408   5.290  0.5068  0.1596  0.2479
12915TIP3    H160236   1.380   2.315   5.274 -0.0033 -0.0566  0.9171
12915TIP3    H260237   1.449   2.448   5.300  0.7246 -0.2516  0.0001
12916TIP3   OH260238   0.156   4.773   6.375  0.3513 -0.3040 -0.3134
12916TIP3    H160239   0.213   4.706   6.414 -1.5162 -1.0786  1.1706
12916TIP3    H260240   0.156   4.845   6.438  2.4093  1.1838 -1.9403
12917TIP3   OH260241   4.020   1.236  12.312 -0.2924  0.3544 -0.2651
12917TIP3    H160242   4.066   1.204  12.234  0.4633 -1.1198  0.7584
12917TIP3    H260243   4.089   1.275  12.366 -0.0457 -2.3935  1.5459
12918TIP3   OH260244   5.366   0.409   1.475 -0.0027 -0.0706  0.2939
12918TIP3    H160245   5.460   0.397   1.468  0.2493  2.2563 -0.9576
12918TIP3    H260246   5.356   0.497   1.511 -1.7054 -0.9327  2.0582
12919TIP3   OH260247   4.232   0.531  16.549  0.0369  0.0020  0.1850
12919TIP3    H160248   4.189   0.604  16.504  0.4792 -0.7899 -1.5271
12919TIP3    H260249   4.165   0.463  16.554  0.0553  0.0078  0.5531
12920TIP3   OH260250   5.315   1.719   5.807 -0.2581  0.3675  0.1502
12920TIP3    H160251   5.263   1.785   5.853  1.3070  0.4836  1.8059
12920TIP3    H260252   5.342   1.657   5.875 -0.2439 -1.0316 -1.0855
12921TIP3   OH260253   3.289   6.235  11.786 -0.5179  0.1251  0.2456
12921TIP3    H160254   3.228   6.283  11.729 -2.7899 -1.0775  1.5976
12921TIP3    H260255   3.250   6.242  11.873  2.2178  0.7917  1.4524
12922TIP3   OH260256   2.983   3.008  16.068  0.3322  0.2582  0.4492
12922TIP3    H160257   2.975   3.069  15.995 -0.2663  0.7522  0.9291
12922TIP3    H260258   2.966   3.061  16.146 -1.7013 -0.8306  0.7729
12923TIP3   OH260259   6.283   5.349   1.175  0.3040  0.0116  0.5367
12923TIP3    H160260   6.227   5.275   1.153 -0.8482  0.9675  0.1876
12923TIP3    H260261   6.268   5.363   1.268 -1.0679  1.1020  0.1627
12924TIP3   OH260262   2.121   4.826  12.788 -0.0279  0.0575 -0.3655
12924TIP3    H160263   2.067   4.746  12.788  1.1716 -0.7649 -0.1588
12924TIP3    H260264   2.089   4.876  12.863 -0.0783 -0.7141  0.1292
12925TIP3   OH260265   5.243   6.615  15.640  0.0387 -0.5866  0.1417
12925TIP3    H160266   5.235   6.710  15.653  1.5663 -0.6979  2.1293
12925TIP3    H260267   5.219   6.602  15.549 -2.6457  1.4047  0.4951
12926TIP3   OH260268   5.372   3.913  10.969 -0.3789  0.2472 -0.3394
12926TIP3    H160269   5.361   3.820  10.950  2.2949 -0.1450 -0.1182
12926TIP3    H260270   5.376   3.917  11.065  2.0187  0.2636 -0.4265
12927TIP3   OH260271   4.286   2.877  16.998  0.7564 -0.7021 -0.4000
12927TIP3    H160272   4.272   2.931  17.075 -0.1425  0.0791 -1.1006
12927TIP3    H260273   4.367   2.910  16.959  0.7302 -0.5054 -0.2877
12928TIP3   OH260274   3.683   1.864   5.457  0.0009 -0.6799 -0.5712
12928TIP3    H160275   3.761   1.875   5.403 -0.4803  0.6376 -1.0132
12928TIP3    H260276   3.611   1.852   5.395 -0.4093 -0.1266 -0.2128
12929TIP3   OH260277   3.678   0.425  15.549  0.5479 -0.8177 -0.4300
12929TIP3    H160278   3.736   0.355  15.519  1.3421 -1.0721  1.6059
12929TIP3    H260279   3.613   0.380  15.604 -0.4457 -0.2751 -1.1389
12930TIP3   OH260280   6.345   5.798   2.779  0.0250 -0.0351 -0.0695
12930TIP3    H160281   6.422   5.813   2.835 -0.1293  1.5538 -0.2624
12930TIP3    H260282   6.362   5.850   2.701 -1.4907  0.7254  0.1050
12931TIP3   OH260283   2.652   3.626   5.016 -0.3773  0.1086 -0.0055
12931TIP3    H160284   2.639   3.720   5.008  1.0091  0.4522  1.4228
12931TIP3    H260285   2.597   3.600   5.090 -2.0226 -0.5013 -1.4280
12932TIP3   OH260286   0.937   1.268   1.471 -0.7132 -0.1652 -0.3984
12932TIP3    H160287   0.848   1.261   1.434 -0.8304  0.1095 -0.1710
12932TIP3    H260288   0.994   1.237   1.400 -1.0676 -1.5444 -0.0993
12933TIP3   OH260289   2.212   6.574  16.252  0.2519  0.6234  0.4822
12933TIP3    H160290   2.301   6.554  16.281  0.4930  3.2770  1.7365
12933TIP3    H260291   2.164   6.593  16.333 -1.2121  0.1983 -0.2642
12934TIP3   OH260292   4.811   0.191   6.238 -0.1751 -0.4103  0.1764
12934TIP3    H160293   4.754   0.268   6.245  0.1320  0.0484 -2.0603
12934TIP3    H260294   4.761   0.129   6.184  0.2893 -1.1310  0.5669
12935TIP3   OH260295   0.928   2.620   4.190 -0.0517 -0.2525 -0.1047
12935TIP3    H160296   1.008   2.672   4.198 -0.2095 -0.0167 -0.0514
12935TIP3    H260297   0.870   2.675   4.138  0.2627 -0.9403 -1.1989
12936TIP3   OH260298   1.185   2.274  11.269  0.2135 -0.0788  0.0708
12936TIP3    H160299   1.135   2.347  11.305  0.3242  0.1345 -0.2111
12936TIP3    H260300   1.120   2.205  11.256 -0.0550  0.2846 -0.5357
12937TIP3   OH260301   2.391   0.384   0.820 -0.6135  0.2109 -0.1357
12937TIP3    H160302   2.407   0.363   0.912 -0.7686  0.0849 -0.1372
12937TIP3    H260303   2.378   0.479   0.819 -0.8150  0.1833  0.0002
12938TIP3   OH260304   5.396   4.890  15.567 -0.6217 -0.4929  0.6057
12938TIP3    H160305   5.457   4.868  15.638  2.1136 -2.1931 -2.1642
12938TIP3    H260306   5.436   4.964  15.522 -1.8069 -0.1064  0.1722
12939TIP3   OH260307   6.342   5.615  17.282  0.1750 -0.5967  0.0905
12939TIP3    H160308   6.423   5.658  17.307  0.6623 -1.9975  0.9217
12939TIP3    H260309   6.283   5.629  17.356  0.4723 -1.7249  0.5439
12940TIP3   OH260310   0.293   3.042  11.987 -0.4114  0.2392  0.1715
12940TIP3    H160311   0.335   2.958  12.006 -0.4023 -0.3733 -2.3681
12940TIP3    H260312   0.271   3.037  11.894 -1.3722  2.6399  0.2407
12941TIP3   OH260313   6.016   4.954   3.081 -0.3925 -0.3050 -0.2258
12941TIP3    H160314   6.064   4.872   3.095  0.9395  0.8606  2.4872
12941TIP3    H260315   5.924   4.932   3.095 -0.2486 -1.7739 -1.6086
12942TIP3   OH260316   3.753   2.795  13.154  0.3839  0.1817  0.6518
12942TIP3    H160317   3.795   2.774  13.237  0.3679 -0.9652  0.3788
12942TIP3    H260318   3.713   2.881  13.168  2.0485  0.8889  1.2006
12943TIP3   OH260319   0.977   2.244   2.610  0.2482 -0.4130 -0.3415
12943TIP3    H160320   1.017   2.175   2.664  0.3228 -0.0615  0.0521
12943TIP3    H260321   0.885   2.218   2.603  0.2636 -0.5278 -0.1428
12944TIP3   OH260322   5.993   4.822   5.853 -0.1919 -0.1701  0.0387
12944TIP3    H160323   5.973   4.838   5.945 -2.4882 -0.3399 -0.4036
12944TIP3    H260324   5.966   4.732   5.837  0.1904 -0.1433 -0.7861
12945TIP3   OH260325   0.567   4.893  11.682 -0.3274 -0.0526  0.0726
12945TIP3    H160326   0.609   4.899  11.596 -2.0066  1.5782 -0.6978
12945TIP3    H260327   0.524   4.978  11.692  0.2900 -0.0427  2.7776
12946TIP3   OH260328   0.805   0.094  12.190 -0.4029 -0.4663 -0.2470
12946TIP3    H160329   0.791   0.183  12.224 -1.0944 -0.1222 -1.3720
12946TIP3    H260330   0.740   0.040  12.236  1.0280 -0.6888  1.5495
12947TIP3   OH260331   2.774   6.264   4.583 -0.6662  0.2346  0.1178
12947TIP3    H160332   2.863   6.262   4.548 -1.1388 -2.0097 -1.0318
12947TIP3    H260333   2.779   6.324   4.658  2.1707 -1.1225  1.0862
12948TIP3   OH260334   0.944   0.559  11.921  0.6442 -0.2910 -0.4102
12948TIP3    H160335   0.904   0.578  11.836  1.4921 -0.2401 -0.8024
12948TIP3    H260336   0.889   0.606  11.985  0.6699  0.5904 -1.0289
12949TIP3   OH260337   1.798   6.325   1.509  0.5316 -0.2796  0.2285
12949TIP3    H160338   1.777   6.250   1.453 -0.7679  1.1566 -1.2324
12949TIP3    H260339   1.768   6.299   1.596 -0.7751 -1.0635 -0.4490
12950TIP3   OH260340   5.732   6.802   1.638 -0.1654  0.3894  0.0023
12950TIP3    H160341   5.693   6.819   1.553  2.4276  2.2222 -0.8839
12950TIP3    H260342   5.684   6.726   1.672 -2.9521  1.2203 -1.9191
12951TIP3   OH260343   6.493   5.016  14.906  0.4085  0.7176  0.4183
12951TIP3    H160344   6.453   4.934  14.878 -0.1310  0.9237  0.5856
12951TIP3    H260345   6.567   5.029  14.846 -0.7440  1.1681 -0.9273
12952TIP3   OH260346   4.405   3.110   3.993 -0.5070 -0.1885 -0.6471
12952TIP3    H160347   4.406   3.205   3.999 -1.3553 -0.1365 -1.3399
12952TIP3    H260348   4.408   3.081   4.084 -0.9463  0.4997 -0.4116
12953TIP3   OH260349   3.862   3.134   2.691 -0.0139 -0.2669  0.3062
12953TIP3    H160350   3.872   3.189   2.613  0.6346  1.6731  1.7303
12953TIP3    H260351   3.913   3.055   2.671  1.3467  0.8356 -0.6536
12954TIP3   OH260352   6.383   0.583  15.255  0.2731  0.0172 -0.2267
12954TIP3    H160353   6.397   0.542  15.169  0.5217  0.3229 -0.3343
12954TIP3    H260354   6.439   0.535  15.315 -1.0540 -1.2007  0.0636
12955TIP3   OH260355   4.628   5.718  12.517 -0.1934  0.1888  0.4469
12955TIP3    H160356   4.684   5.675  12.452 -0.6473  0.9364 -0.4570
12955TIP3    H260357   4.563   5.765  12.465 -1.7279 -0.7420  1.4832
12956TIP3   OH260358   0.791   5.238  14.343  0.1672  0.1361  0.0114
12956TIP3    H160359   0.751   5.278  14.420 -0.6738 -0.7551  0.0508
12956TIP3    H260360   0.720   5.233  14.279  0.8087  0.6875 -0.7552
12957TIP3   OH260361   3.701   2.867  11.976  0.4171 -0.2378  0.0829
12957TIP3    H160362   3.793   2.841  11.968  0.5605  0.3894 -0.3067
12957TIP3    H260363   3.669   2.818  12.052  0.5365 -2.0008 -0.9690
12958TIP3   OH260364   1.337   2.344  11.055 -0.3374 -0.6145  0.5456
12958TIP3    H160365   1.274   2.347  10.983 -0.1717 -0.0886  0.4189
12958TIP3    H260366   1.286   2.321  11.132 -0.5556 -0.9431  0.3025
12959TIP3   OH260367   1.143   2.719   5.893  0.1986 -0.0083  0.7954
12959TIP3    H160368   1.199   2.792   5.919  0.9304 -0.3283  0.1475
12959TIP3    H260369   1.151   2.656   5.964  1.2936 -0.3976  0.3280
12960TIP3   OH260370   3.859   2.403  13.057  0.3459 -0.6652 -0.7106
12960TIP3    H160371   3.840   2.309  13.055  0.5991 -0.7047 -1.3076
12960TIP3    H260372   3.870   2.427  12.965 -0.4696  0.1016 -0.6102
12961TIP3   OH260373   6.506   1.570  15.383 -0.1281 -0.2427 -0.3783
12961TIP3    H160374   6.441   1.587  15.451 -1.7035  1.5117 -2.2451
12961TIP3    H260375   6.580   1.627  15.404 -0.2005 -0.4293  0.3930
12962TIP3   OH260376   2.624   4.634  12.275 -0.3514  0.3481 -0.3541
12962TIP3    H160377   2.608   4.725  12.248 -0.7386  0.0526 -1.1573
12962TIP3    H260378   2.667   4.641  12.360  0.9900  1.3270 -1.0894
12963TIP3   OH260379   6.564   3.554   5.352  0.6768  0.0092  0.2908
12963TIP3    H160380   6.536   3.586   5.266 -1.2562 -1.0354  0.4997
12963TIP3    H260381   6.543   3.625   5.412  0.2606 -0.0063  0.1651
12964TIP3   OH260382   2.637   5.484  14.340  0.6608  0.3667  0.3285
12964TIP3    H160383   2.607   5.398  14.310  1.3561  0.4238 -0.5173
12964TIP3    H260384   2.557   5.538  14.340 -0.0872 -0.6793  2.3728
12965TIP3   OH260385   2.589   3.269  16.785  0.3556  0.2293  0.0532
12965TIP3    H160386   2.500   3.290  16.810 -0.4485 -2.6995 -0.1191
12965TIP3    H260387   2.600   3.309  16.699 -0.6263  1.0335  0.2998
12966TIP3   OH260388   5.727   1.775  17.267  0.0778 -0.1111  1.3004
12966TIP3    H160389   5.647   1.767  17.214  0.5136  3.1786  0.0425
12966TIP3    H260390   5.745   1.686  17.296 -3.7416 -1.0271  1.1501
12967TIP3   OH260391   0.159   4.628  15.733 -0.4736  0.5881 -0.1323
12967TIP3    H160392   0.093   4.594  15.793 -1.3151  2.7461  0.2008
12967TIP3    H260393   0.149   4.575  15.654 -1.3048 -0.3560  0.5902
12968TIP3   OH260394   2.907   4.721  13.512  0.2178  0.6181 -0.2268
12968TIP3    H160395   2.847   4.650  13.490 -0.7400  1.3119  0.1200
12968TIP3    H260396   2.968   4.682  13.574  0.0522 -0.0608 -0.4815
12969TIP3   OH260397   3.389   1.365   6.322 -0.0848 -0.0483  0.4763
12969TIP3    H160398   3.380   1.303   6.395  2.6972 -0.3962  0.5889
12969TIP3    H260399   3.436   1.439   6.359 -0.2335  0.5692 -0.5459
12970TIP3   OH260400   1.655   0.046   3.097 -1.4223  0.1456 -0.1259
12970TIP3    H160401   1.606   0.044   3.179 -1.6097 -1.0078 -0.2474
12970TIP3    H260402   1.589   0.030   3.029 -0.9278 -1.2612 -0.3036
12971TIP3   OH260403   1.899   4.843  16.036 -0.1317  0.1040 -0.5913
12971TIP3    H160404   1.915   4.750  16.020 -1.4408 -0.0837 -0.9106
12971TIP3    H260405   1.963   4.868  16.103  1.3215 -0.6119 -1.6855
12972TIP3   OH260406   2.232   2.157  12.739  0.3368  0.1820  0.5268
12972TIP3    H160407   2.247   2.251  12.731 -2.7393  0.6860 -0.0611
12972TIP3    H260408   2.178   2.148  12.817 -1.2076 -0.8468 -0.6290
12973TIP3   OH260409   6.808   6.356   0.435 -0.1219  0.3896  0.1810
12973TIP3    H160410   6.791   6.354   0.340 -2.7982 -0.2222  0.6368
12973TIP3    H260411   6.838   6.268   0.455  0.7684  0.6126 -0.1405
12974TIP3   OH260412   4.313   0.418   3.641 -0.2992 -0.3065  0.2237
12974TIP3    H160413   4.275   0.437   3.727  1.0357 -0.2192  0.8108
12974TIP3    H260414   4.407   0.417   3.657  0.0439  1.3655 -1.5606
12975TIP3   OH260415   1.432   1.477   4.288 -0.0531  0.6844 -0.2345
12975TIP3    H160416   1.373   1.526   4.345  0.2688  1.9366 -0.9538
12975TIP3    H260417   1.422   1.519   4.202  2.2143  1.2170 -0.2701
12976TIP3   OH260418   3.884   2.171   2.239 -0.8632 -0.6705 -0.4220
12976TIP3    H160419   3.863   2.183   2.332  0.0748 -1.5520 -0.0912
12976TIP3    H260420   3.910   2.079   2.231  0.2717 -0.2889 -1.3199
12977TIP3   OH260421   3.263   4.782   6.664 -0.0137 -0.0343  0.1145
12977TIP3    H160422   3.312   4.720   6.609  1.3898 -0.3167  1.6118
12977TIP3    H260423   3.269   4.744   6.752 -1.5790  0.7864  0.5924
12978TIP3   OH260424   4.438   6.771   0.701  0.2622  0.2867 -0.4882
12978TIP3    H160425   4.507   6.796   0.640 -0.0485 -0.0898 -1.0009
12978TIP3    H260426   4.461   6.814   0.783  0.6431  0.8619 -0.8960
12979TIP3   OH260427   5.074   1.481   5.123  0.0428  0.7567 -0.3722
12979TIP3    H160428   5.124   1.410   5.162  0.5094  1.0923 -0.3477
12979TIP3    H260429   4.984   1.467   5.152 -0.0861 -0.4922 -1.3381
12980TIP3   OH260430   0.838   4.558   0.447 -0.0887 -0.0344 -0.5768
12980TIP3    H160431   0.829   4.538   0.353 -1.9039 -1.5038 -0.1119
12980TIP3    H260432   0.895   4.489   0.481 -0.4110 -0.1958 -0.3653
12981TIP3   OH260433   1.434   2.912  15.522 -0.2533  0.2018 -0.3777
12981TIP3    H160434   1.404   2.999  15.548 -0.7726  0.0154 -0.3572
12981TIP3    H260435   1.529   2.916  15.532 -0.3424  0.5220  0.3423
12982TIP3   OH260436   1.761   1.675   1.409  0.3528 -0.4677  0.0970
12982TIP3    H160437   1.841   1.659   1.459  1.3181  1.2712 -0.8566
12982TIP3    H260438   1.739   1.767   1.426  0.1737 -0.1174 -1.9234
12983TIP3   OH260439   5.104   6.244   2.203 -0.0548 -0.1784  0.5223
12983TIP3    H160440   5.149   6.237   2.119  0.4540 -1.2301  0.8808
12983TIP3    H260441   5.061   6.329   2.199  1.1079  0.3966 -0.2447
12984TIP3   OH260442   0.445   0.545   1.008  0.0202 -0.2426 -0.1129
12984TIP3    H160443   0.367   0.541   0.951  0.2906 -0.5960 -0.4615
12984TIP3    H260444   0.473   0.454   1.015  0.3524 -0.1225  0.0838
12985TIP3   OH260445   2.135   1.532   1.002 -0.0696 -0.3846  0.2479
12985TIP3    H160446   2.150   1.614   0.955 -1.9340 -0.6444 -0.8212
12985TIP3    H260447   2.223   1.501   1.024  0.6730  1.8704  0.6503
12986TIP3   OH260448   5.280   1.742  16.873 -0.2576  0.3276  0.3512
12986TIP3    H160449   5.263   1.650  16.853 -1.0151  0.5512 -0.0987
12986TIP3    H260450   5.375   1.748  16.881 -0.1337 -0.3198 -0.5206
12987TIP3   OH260451   5.760   4.198   3.665 -0.1601  0.5090 -0.0971
12987TIP3    H160452   5.836   4.176   3.719  0.3911  0.6452 -0.8115
12987TIP3    H260453   5.795   4.250   3.592 -0.7879 -0.3206 -1.0060
12988TIP3   OH260454   5.118   4.696  11.505  0.1643  0.1162  0.1759
12988TIP3    H160455   5.078   4.765  11.558 -0.4044  0.4507 -0.6710
12988TIP3    H260456   5.204   4.731  11.481 -0.0623  0.4756 -0.1217
12989TIP3   OH260457   0.731   4.427   5.477  0.0551 -0.5570  0.2552
12989TIP3    H160458   0.809   4.382   5.510  1.8158  1.8843 -0.4828
12989TIP3    H260459   0.675   4.437   5.555  2.2597  1.2632  1.6720
12990TIP3   OH260460   5.985   3.750  13.432  0.2947  0.0610  0.4032
12990TIP3    H160461   5.919   3.735  13.500  0.1858 -0.6025  0.1613
12990TIP3    H260462   5.945   3.815  13.375 -0.0436 -0.1377  0.4081
12991TIP3   OH260463   2.267   0.681   2.973  0.3372 -0.0114  0.2868
12991TIP3    H160464   2.343   0.626   2.954  1.5185  1.9317 -0.8911
12991TIP3    H260465   2.301   0.750   3.030 -0.6536  0.5848  0.1763
12992TIP3   OH260466   0.169   2.065   5.326 -0.3347 -0.2857  0.4959
12992TIP3    H160467   0.250   2.108   5.299 -0.3274  0.6716  2.0009
12992TIP3    H260468   0.137   2.021   5.247  0.6394  0.9257 -0.5818
12993TIP3   OH260469   3.171   6.389   5.435 -0.7605  0.0201  0.3311
12993TIP3    H160470   3.266   6.398   5.424 -0.4601 -4.4104 -1.6276
12993TIP3    H260471   3.154   6.423   5.523  3.0464 -1.4528  1.7494
12994TIP3   OH260472   1.314   0.506   2.765  0.1208  0.1115 -0.2911
12994TIP3    H160473   1.254   0.510   2.840 -0.1099  1.3580 -0.5342
12994TIP3    H260474   1.261   0.536   2.691  1.1222  1.4551 -0.4642
12995TIP3   OH260475   4.788   0.126   4.964 -0.1147 -0.4689  0.1774
12995TIP3    H160476   4.799   0.219   4.944 -0.7426 -0.0861  1.4745
12995TIP3    H260477   4.783   0.083   4.879 -0.3660  0.7600 -0.4437
12996TIP3   OH260478   0.787   2.237   3.157  0.2186 -0.0606  0.7357
12996TIP3    H160479   0.778   2.297   3.231 -0.6677  1.2563 -0.3852
12996TIP3    H260480   0.697   2.208   3.139  0.2234  0.7658 -0.7087
12997TIP3   OH260481   3.156   4.370   0.508 -0.5101  0.1976 -0.5050
12997TIP3    H160482   3.144   4.279   0.536  0.2381  0.5628  1.0493
12997TIP3    H260483   3.176   4.364   0.415 -1.4973 -1.1598 -0.6405
12998TIP3   OH260484   5.232   6.050   6.101 -0.4144 -0.2746  0.3879
12998TIP3    H160485   5.266   6.128   6.146  1.6721  0.3173 -2.0742
12998TIP3    H260486   5.301   5.985   6.110 -0.5839 -0.6185 -0.7120
12999TIP3   OH260487   4.751   3.188  15.640  0.0331 -0.3281 -0.4812
12999TIP3    H160488   4.760   3.186  15.545  4.1359 -2.2549 -0.1542
12999TIP3    H260489   4.705   3.107  15.662 -1.2825  0.3152 -0.8226
13000TIP3   OH260490   5.194   2.691   1.066 -0.4296 -0.4989  0.1352
13000TIP3    H160491   5.244   2.718   0.989  0.3667  1.1396  1.1901
13000TIP3    H260492   5.113   2.741   1.060 -1.0352 -1.5442 -0.4502
13001TIP3   OH260493   0.211   5.395   2.045 -0.2846 -0.4769 -0.0352
13001TIP3    H160494   0.295   5.373   2.006  0.1017  1.6272 -0.4556
13001TIP3    H260495   0.154   5.413   1.970 -0.1646  1.3687  0.2950
13002TIP3   OH260496   4.794   0.829  14.585  0.1578 -0.7880  0.1063
13002TIP3    H160497   4.791   0.743  14.626 -1.4162 -0.2639  1.1224
13002TIP3    H260498   4.877   0.829  14.536  2.0421 -1.4356  3.1865
13003TIP3   OH260499   6.157   4.908   1.224 -0.3603 -0.3490 -0.1824
13003TIP3    H160500   6.233   4.858   1.194  0.1181  1.8740 -2.8398
13003TIP3    H260501   6.098   4.841   1.259  2.5846 -2.1604  1.5393
13004TIP3   OH260502   0.959   4.353   5.938 -0.6520  0.1180  0.2272
13004TIP3    H160503   0.878   4.377   5.893  1.2918  2.7952 -2.0233
13004TIP3    H260504   0.932   4.340   6.029 -3.6762  0.5296 -0.5437
13005TIP3   OH260505   0.085   2.941   4.398 -0.1336  0.5271 -0.5602
13005TIP3    H160506   0.051   2.971   4.482  0.1208  0.4468 -0.4289
13005TIP3    H260507   0.010   2.898   4.356 -0.6442  1.7730 -0.9625
13006TIP3   OH260508   3.711   2.278   2.437 -0.0690 -0.2148 -0.0993
13006TIP3    H160509   3.728   2.371   2.424  0.5972 -0.5437 -1.5706
13006TIP3    H260510   3.676   2.273   2.526 -0.7791  1.5227 -0.2612
13007TIP3   OH260511   4.925   6.334   6.012 -0.1497 -0.4298  0.0749
13007TIP3    H160512   4.929   6.395   6.086  0.8722 -0.0222 -0.3015
13007TIP3    H260513   4.844   6.284   6.026  0.5269 -1.0413  2.0094
13008TIP3   OH260514   4.887   5.643  15.595 -0.7493 -0.6254 -0.4515
13008TIP3    H160515   4.805   5.638  15.546 -1.9125 -0.8493  1.4519
13008TIP3    H260516   4.903   5.553  15.625 -0.6737 -0.2906  0.5390
13009TIP3   OH260517   6.067   4.015  11.808  0.5717 -0.2928  0.0257
13009TIP3    H160518   6.072   3.939  11.749  1.4325  0.0018 -0.2880
13009TIP3    H260519   6.023   3.981  11.886  0.0347 -0.8601 -0.5199
13010TIP3   OH260520   4.603   6.195  15.730  0.3565 -1.1099 -0.5305
13010TIP3    H160521   4.634   6.104  15.727 -2.3836 -2.0533 -2.9251
13010TIP3    H260522   4.631   6.232  15.646 -0.7175 -0.5125 -0.6290
13011TIP3   OH260523   5.932   0.497   5.786  0.6078  0.4058 -0.0798
13011TIP3    H160524   5.868   0.549   5.737  3.1323  1.8320 -2.0356
13011TIP3    H260525   5.905   0.505   5.877 -1.4357  1.7880 -0.7726
13012TIP3   OH260526   4.205   2.058   4.070  0.1396  0.0764  0.4528
13012TIP3    H160527   4.123   2.042   4.023 -0.7638 -0.0718  2.0687
13012TIP3    H260528   4.228   1.973   4.108  1.2795  0.0142 -0.3424
13013TIP3   OH260529   2.439   5.470  14.056  0.6434 -0.0948 -0.0428
13013TIP3    H160530   2.481   5.385  14.067 -0.4952 -0.4788  1.6618
13013TIP3    H260531   2.356   5.450  14.012  1.1947  0.3683 -1.3024
13014TIP3   OH260532   4.336   1.121  13.383  0.2290  0.0540 -0.1567
13014TIP3    H160533   4.253   1.113  13.430 -0.2199 -1.6343 -1.1914
13014TIP3    H260534   4.402   1.125  13.453 -0.4303 -2.4283  0.6905
13015TIP3   OH260535   1.501   3.990   2.918 -0.2414 -0.5498  0.2147
13015TIP3    H160536   1.548   4.038   2.986  0.4364 -1.6538  0.5368
13015TIP3    H260537   1.412   3.982   2.952  0.0174 -0.8303  0.8366
13016TIP3   OH260538   1.227   3.603   0.694 -0.3384 -0.6892  0.2330
13016TIP3    H160539   1.273   3.616   0.611 -0.8574  0.0696  0.0635
13016TIP3    H260540   1.172   3.526   0.680 -0.0048 -0.8952  0.0574
13017TIP3   OH260541   4.518   6.189   6.220 -0.2369  0.4458 -0.1798
13017TIP3    H160542   4.564   6.257   6.270  0.4323  0.4618 -0.8075
13017TIP3    H260543   4.426   6.213   6.226  0.0068  1.5319 -0.5788
13018TIP3   OH260544   6.706   3.673  11.058 -0.1256 -0.3543 -0.3984
13018TIP3    H160545   6.757   3.711  10.987  0.0021  0.7418  0.2703
13018TIP3    H260546   6.617   3.707  11.044 -0.4083 -1.2614 -0.8392
13019TIP3   OH260547   3.876   1.618   5.017  0.2107 -0.0239  0.2674
13019TIP3    H160548   3.813   1.682   4.985  0.4096 -0.2209 -0.5426
13019TIP3    H260549   3.906   1.573   4.938  2.3887  0.9889  0.4903
13020TIP3   OH260550   6.670   6.240   3.906 -0.4945  0.0351  0.1569
13020TIP3    H160551   6.676   6.202   3.994  0.8696  0.8928  0.4656
13020TIP3    H260552   6.615   6.180   3.857  1.6095 -2.3563  0.6267
13021TIP3   OH260553   5.318   5.906   4.418 -0.4152  0.1105 -0.2386
13021TIP3    H160554   5.394   5.896   4.475 -0.0684 -1.6186 -0.9771
13021TIP3    H260555   5.343   5.976   4.358  0.2908  0.0826  0.0167
13022TIP3   OH260556   4.885   5.828  14.920  0.0681 -0.0446  0.1084
13022TIP3    H160557   4.802   5.853  14.962  2.0587  3.7515  2.0367
13022TIP3    H260558   4.897   5.893  14.851  1.1632 -0.9322 -0.5454
13023TIP3   OH260559   6.784   5.481  11.990  0.4570  0.1427  0.3159
13023TIP3    H160560   6.823   5.568  11.985  1.3919 -0.2506  0.5635
13023TIP3    H260561   6.692   5.497  12.011 -0.0936  1.1876 -2.6779
13024TIP3   OH260562   3.847   5.868  12.538 -0.0864 -0.9523 -0.5683
13024TIP3    H160563   3.834   5.868  12.443 -0.1408 -1.0317 -0.5605
13024TIP3    H260564   3.942   5.871  12.549 -0.0908 -0.5431 -0.6221
13025TIP3   OH260565   2.663   6.288   6.183 -0.1483 -0.5139 -0.7503
13025TIP3    H160566   2.704   6.229   6.246 -0.6576 -0.8535 -0.7376
13025TIP3    H260567   2.733   6.350   6.159 -0.7895  1.5953  2.5286
13026TIP3   OH260568   2.092   2.736   5.833  0.0398 -0.2773 -0.1285
13026TIP3    H160569   2.063   2.816   5.789  1.4550 -0.4572 -1.4525
13026TIP3    H260570   2.179   2.719   5.796  0.0536 -2.0309  0.6654
13027TIP3   OH260571   1.803   2.569  16.190 -0.1580  0.4608 -0.4983
13027TIP3    H160572   1.763   2.615  16.116  1.3404 -0.9214 -2.2075
13027TIP3    H260573   1.896   2.588  16.183  0.2710 -1.4225 -0.2447
13028TIP3   OH260574   6.659   1.753   3.080 -0.2242  0.0264  0.0285
13028TIP3    H160575   6.609   1.806   3.142 -1.3403 -2.1367  0.9940
13028TIP3    H260576   6.596   1.725   3.014  0.2883 -0.4071 -0.2895
13029TIP3   OH260577   2.443   2.219  10.951 -0.4469 -0.0192  0.0257
13029TIP3    H160578   2.424   2.226  10.857 -4.8164 -2.2308  0.6217
13029TIP3    H260579   2.500   2.142  10.958 -0.5293 -0.1579 -0.7663
13030TIP3   OH260580   0.926   3.375  12.662  0.1610 -0.1699  0.4510
13030TIP3    H160581   0.849   3.425  12.690  0.0537  0.5028 -0.9947
13030TIP3    H260582   0.892   3.289  12.638 -0.4583  0.6986 -1.9423
13031TIP3   OH260583   2.540   4.768   6.028 -0.3446  0.0067 -0.1425
13031TIP3    H160584   2.459   4.778   6.079 -0.1085  0.1658  0.2070
13031TIP3    H260585   2.544   4.847   5.974 -0.4825 -0.0568 -0.2475
13032TIP3   OH260586   4.348   3.064  11.421 -0.0696 -0.6356  0.3143
13032TIP3    H160587   4.332   3.091  11.331  0.7797  0.0891  0.3746
13032TIP3    H260588   4.291   2.988  11.434 -2.4951  1.0937  0.1425
13033TIP3   OH260589   2.744   3.424   2.890  0.7116 -0.1503 -0.0152
13033TIP3    H160590   2.715   3.356   2.828 -1.4696  0.4223  0.3270
13033TIP3    H260591   2.791   3.487   2.837 -1.0716  0.2920 -1.1081
13034TIP3   OH260592   5.587   0.169  13.159 -0.1288 -0.6986  0.5136
13034TIP3    H160593   5.601   0.098  13.096 -0.8259 -0.2994 -0.0986
13034TIP3    H260594   5.639   0.242  13.125 -0.1464 -0.6265  0.6412
13035TIP3   OH260595   4.073   4.126  14.867  0.0182 -0.5629 -0.1530
13035TIP3    H160596   4.076   4.041  14.910 -1.4970 -0.6776 -0.2412
13035TIP3    H260597   4.122   4.113  14.785  1.0408 -0.9318  0.5129
13036TIP3   OH260598   0.719   0.444   3.316 -0.0082  0.2271 -0.0394
13036TIP3    H160599   0.814   0.456   3.319  0.2552 -1.7388 -0.0993
13036TIP3    H260600   0.699   0.433   3.223 -0.0914 -0.7920  0.0897
13037TIP3   OH260601   4.659   3.415  13.981 -0.1633 -0.9569 -0.0472
13037TIP3    H160602   4.719   3.484  14.009  0.0104 -1.3733  0.6210
13037TIP3    H260603   4.695   3.384  13.898 -0.2735 -0.2084 -0.3736
13038TIP3   OH260604   2.539   0.738   3.898 -0.4553  0.5136 -0.2918
13038TIP3    H160605   2.545   0.665   3.837  0.7505 -0.8746  1.4504
13038TIP3    H260606   2.625   0.779   3.895 -1.1977  2.0571 -1.4454
13039TIP3   OH260607   0.219   5.084  13.424 -0.0991 -0.2135  0.3024
13039TIP3    H160608   0.208   5.023  13.497 -0.7587 -0.3301  0.1052
13039TIP3    H260609   0.260   5.161  13.464  2.1015 -1.3406  0.2866
13040TIP3   OH260610   0.319   2.782  15.109 -0.0954 -0.4506 -0.1027
13040TIP3    H160611   0.387   2.843  15.136 -0.2994  0.0805 -0.7695
13040TIP3    H260612   0.358   2.695  15.121  0.3436 -0.1766  0.4488
13041TIP3   OH260613   0.214   4.266  14.227  0.0525 -0.1905  0.0946
13041TIP3    H160614   0.190   4.207  14.298  1.3720  1.1509  1.6674
13041TIP3    H260615   0.151   4.338  14.234  1.2299  0.7601  0.9528
13042TIP3   OH260616   6.348   1.976   5.750 -0.5682 -0.1073 -0.5075
13042TIP3    H160617   6.375   1.947   5.837  3.0946  2.9290 -0.5086
13042TIP3    H260618   6.334   2.070   5.759 -1.2643  0.0456 -2.9412
13043TIP3   OH260619   4.200   2.327   4.523 -0.2655  0.0961 -0.6649
13043TIP3    H160620   4.240   2.308   4.438 -0.6167 -0.9859 -0.5959
13043TIP3    H260621   4.261   2.289   4.587 -0.6378 -0.2206 -0.4961
13044TIP3   OH260622   6.268   0.052   3.129 -0.1655 -0.0457 -0.1316
13044TIP3    H160623   6.280   0.118   3.197  0.2321  0.0876 -0.3303
13044TIP3    H260624   6.239  -0.026   3.175 -1.6697  0.5664  0.0036
13045TIP3   OH260625   5.959   3.105  13.051 -0.2714 -0.2850 -0.2586
13045TIP3    H160626   6.012   3.175  13.013  0.5461 -1.0513 -0.5555
13045TIP3    H260627   5.881   3.102  12.995 -0.1422  0.1386 -0.4656
13046TIP3   OH260628   1.367   0.472  15.396  0.6811  0.1444 -0.1340
13046TIP3    H160629   1.325   0.549  15.435 -0.2864 -0.1844 -0.4985
13046TIP3    H260630   1.415   0.431  15.468 -0.8032 -0.2699  0.6450
13047TIP3   OH260631   5.558   4.983   4.431  0.1754  0.0658 -0.0199
13047TIP3    H160632   5.614   4.940   4.496 -0.5473 -1.8107 -0.5871
13047TIP3    H260633   5.492   5.029   4.483  0.9618  0.4909  0.6077
13048TIP3   OH260634   0.784   3.105   5.520  0.2718  0.3790 -0.2859
13048TIP3    H160635   0.866   3.154   5.532 -0.4110  1.6945 -0.9270
13048TIP3    H260636   0.736   3.154   5.454 -0.5763 -0.9952 -0.7183
13049TIP3   OH260637   4.865   5.587   5.899  0.3071 -0.1003 -0.8194
13049TIP3    H160638   4.779   5.585   5.941  0.8353 -2.2213  0.2210
13049TIP3    H260639   4.893   5.496   5.897  2.6785  0.5949 -0.8879
13050TIP3   OH260640   6.134   3.728   6.157  0.0930 -0.1197 -0.0445
13050TIP3    H160641   6.149   3.770   6.242 -0.5767  1.3599 -0.6414
13050TIP3    H260642   6.047   3.688   6.164  0.0622 -0.0492 -0.0206
13051TIP3   OH260643   3.552   4.897   0.177  0.2242 -0.3817  0.5099
13051TIP3    H160644   3.578   4.821   0.124  1.9037 -0.1390  0.9745
13051TIP3    H260645   3.456   4.896   0.175  0.2518 -0.7580 -2.0057
13052TIP3   OH260646   4.233   3.356   4.577 -0.2456  0.4563 -0.1956
13052TIP3    H160647   4.211   3.283   4.519  0.5445  0.7815 -0.9057
13052TIP3    H260648   4.281   3.417   4.522 -1.4726  1.8380  0.2249
13053TIP3   OH260649   4.164   2.658   2.153 -0.6870  0.1239  0.0944
13053TIP3    H160650   4.073   2.683   2.140 -0.7097  1.1893  2.1784
13053TIP3    H260651   4.194   2.712   2.226  0.9764 -1.7393  0.8384
13054TIP3   OH260652   1.263   3.292   5.336 -0.2732  0.2364  0.2634
13054TIP3    H160653   1.264   3.264   5.428  0.7643  1.4603  0.6527
13054TIP3    H260654   1.347   3.336   5.324 -0.8003  0.9174 -1.0160
13055TIP3   OH260655   2.916   5.488   0.687 -0.1794 -0.1836  0.1593
13055TIP3    H160656   2.823   5.508   0.694 -0.1773 -0.2629  0.3873
13055TIP3    H260657   2.937   5.506   0.595 -0.2856  0.4116  0.2485
13056TIP3   OH260658   0.984   0.579   4.546 -0.2395 -0.1332  0.4837
13056TIP3    H160659   0.926   0.529   4.602 -3.6543  2.0343 -0.9556
13056TIP3    H260660   1.047   0.619   4.606 -2.5380  0.4564  2.5592
13057TIP3   OH260661   5.358   5.361  15.225 -0.2382 -0.4439 -0.1566
13057TIP3    H160662   5.368   5.395  15.314 -0.9589  0.0804 -0.2760
13057TIP3    H260663   5.279   5.306  15.229 -1.1475  0.7882 -0.8269
13058TIP3   OH260664   2.379   5.440   4.344 -0.3186  0.2434 -0.0581
13058TIP3    H160665   2.288   5.469   4.336 -0.5220 -0.1383  0.7710
13058TIP3    H260666   2.426   5.491   4.278 -1.1011  0.5764 -0.3725
13059TIP3   OH260667   0.131   1.440   4.217  0.5838  0.6446 -0.0048
13059TIP3    H160668   0.118   1.530   4.187  0.3243  0.0766 -1.6533
13059TIP3    H260669   0.185   1.399   4.149  0.1184 -0.6270  0.3695
13060TIP3   OH260670   1.649   1.571  10.836  0.4365  0.6918 -0.3256
13060TIP3    H160671   1.615   1.497  10.785  1.6343  1.1666 -1.8559
13060TIP3    H260672   1.635   1.647  10.780 -0.6859  1.6479  1.1982
13061TIP3   OH260673   3.152   4.579   0.099  0.2460  0.2265  0.3597
13061TIP3    H160674   3.185   4.497   0.136 -1.8833  0.0351  1.9540
13061TIP3    H260675   3.101   4.618   0.170 -1.4733  1.3329 -1.4493
13062TIP3   OH260676   1.092   4.692  10.719  0.3746 -0.0047 -0.1903
13062TIP3    H160677   1.180   4.663  10.697  0.3668 -0.0350 -0.1816
13062TIP3    H260678   1.103   4.748  10.796  0.3645 -0.1643 -0.0723
13063TIP3   OH260679   3.434   0.664  13.944  0.3617 -0.0392  0.4212
13063TIP3    H160680   3.391   0.748  13.926 -0.3433 -0.7805 -1.5225
13063TIP3    H260681   3.512   0.666  13.888  1.8828  0.4985  2.5113
13064TIP3   OH260682   0.398   5.275  13.244  0.2454  0.4633  0.1895
13064TIP3    H160683   0.374   5.311  13.330  1.4224 -0.9313  1.1273
13064TIP3    H260684   0.315   5.259  13.200 -0.4052  0.3070  1.4515
13065TIP3   OH260685   4.007   4.080  12.944 -0.4851  0.3559  0.4097
13065TIP3    H160686   3.929   4.133  12.928 -0.1403  0.6020 -0.5283
13065TIP3    H260687   4.003   4.057  13.036 -0.7334  1.8756  0.7878
13066TIP3   OH260688   6.250   4.848   4.551 -0.3530 -0.1394 -0.8639
13066TIP3    H160689   6.256   4.916   4.484 -3.0263  1.4683  0.4064
13066TIP3    H260690   6.169   4.801   4.530 -0.4126 -0.5995  0.3366
13067TIP3   OH260691   3.987   2.115  12.823  0.3555  0.1410  0.6608
13067TIP3    H160692   4.017   2.122  12.732  1.1866 -0.7506  0.8611
13067TIP3    H260693   3.938   2.033  12.826  2.3197 -1.0380  1.5542
13068TIP3   OH260694   4.311   2.485  11.574  0.1516 -0.3095  0.4216
13068TIP3    H160695   4.280   2.395  11.568 -0.9375  0.0321  0.7395
13068TIP3    H260696   4.405   2.480  11.557 -0.3634 -1.1568 -2.3767
13069TIP3   OH260697   6.594   3.418   7.054  0.1324 -0.2382 -0.0718
13069TIP3    H160698   6.660   3.363   7.012  1.2047  0.9452  0.0406
13069TIP3    H260699   6.525   3.428   6.988  0.2850 -1.0735 -0.3611
13070TIP3   OH260700   0.361   6.156   5.344  0.3182 -0.8876 -0.2314
13070TIP3    H160701   0.347   6.227   5.281 -0.3455 -1.1266 -0.3550
13070TIP3    H260702   0.394   6.200   5.422  0.2043 -0.4732 -0.4149
13071TIP3   OH260703   4.891   6.548  14.161  1.1120  0.2358 -0.2423
13071TIP3    H160704   4.835   6.473  14.144 -0.6466  1.4100  0.2404
13071TIP3    H260705   4.867   6.612  14.094  0.7932  1.3178  0.8804
13072TIP3   OH260706   5.620   3.379   1.621 -0.8372  0.0231  0.4472
13072TIP3    H160707   5.597   3.445   1.555 -0.2097 -0.9557 -0.7615
13072TIP3    H260708   5.565   3.401   1.696 -1.5891  1.1398 -0.4078
13073TIP3   OH260709   3.825   1.419   2.893  0.1695  0.2134 -0.3563
13073TIP3    H160710   3.763   1.458   2.831 -2.0386 -0.2231  1.5139
13073TIP3    H260711   3.800   1.327   2.898  0.6492  0.1358  0.7725
13074TIP3   OH260712   2.287   1.544   3.776  0.0468 -0.0139 -0.4054
13074TIP3    H160713   2.353   1.599   3.734  1.4430 -0.2679  1.4141
13074TIP3    H260714   2.215   1.604   3.797  0.4116  0.5836 -0.8625
13075TIP3   OH260715   1.459   0.610  14.182 -0.4311  0.1585 -0.8308
13075TIP3    H160716   1.432   0.572  14.099 -1.2140 -0.0328 -0.4948
13075TIP3    H260717   1.403   0.567  14.247 -0.9073  1.4309 -0.3775
13076TIP3   OH260718   3.614   2.876  15.643 -0.4046 -0.6494 -0.2253
13076TIP3    H160719   3.536   2.931  15.649 -0.8751 -1.4376  1.2482
13076TIP3    H260720   3.588   2.794  15.686  0.9592 -1.2239 -0.4940
13077TIP3   OH260721   1.492   6.014   2.051 -0.5727 -0.2224  0.7394
13077TIP3    H160722   1.504   6.081   1.985 -0.0814 -1.1510 -0.1283
13077TIP3    H260723   1.579   6.002   2.090 -0.9597  0.6733  1.9116
13078TIP3   OH260724   0.807   4.031   3.173 -0.6320  0.3891  0.1772
13078TIP3    H160725   0.801   4.113   3.221 -0.9729 -0.9431  2.5030
13078TIP3    H260726   0.889   4.038   3.123 -0.7665  2.2027  0.1712
13079TIP3   OH260727   5.864   5.768   1.937  0.1057 -0.1173  0.5015
13079TIP3    H160728   5.866   5.833   1.867 -2.1547  0.7396  1.1809
13079TIP3    H260729   5.884   5.685   1.894 -0.9973  0.4345 -1.1191
13080TIP3   OH260730   1.699   2.243   2.929 -0.4742  0.7512 -0.2820
13080TIP3    H160731   1.731   2.298   2.857 -2.1016 -0.4558 -1.9875
13080TIP3    H260732   1.624   2.197   2.892  0.8785 -2.7125  1.0298
13081TIP3   OH260733   0.497   3.514  16.426  0.6243 -0.1238 -0.5249
13081TIP3    H160734   0.537   3.472  16.502 -0.9436 -1.1370 -0.2177
13081TIP3    H260735   0.403   3.515  16.447  0.4008  1.5058 -1.5214
13082TIP3   OH260736   5.717   0.700   0.081  0.1765 -0.0628 -0.4703
13082TIP3    H160737   5.812   0.690   0.076  0.4913  2.1259  0.3449
13082TIP3    H260738   5.704   0.794   0.092 -1.9996 -0.5631  1.5209
13083TIP3   OH260739   5.172   4.126  17.005 -0.6059  0.4374 -0.0751
13083TIP3    H160740   5.081   4.156  17.000 -0.3332  1.6810  1.8222
13083TIP3    H260741   5.184   4.072  16.927 -3.2838 -0.6140  0.1685
13084TIP3   OH260742   4.688   1.275  14.887 -0.0951 -0.0332  0.2714
13084TIP3    H160743   4.628   1.306  14.955 -0.6875  0.3214 -0.4041
13084TIP3    H260744   4.665   1.326  14.810  0.2734 -0.7536 -0.3186
13085TIP3   OH260745   6.790   2.670  13.029  0.6237 -0.4940  0.4269
13085TIP3    H160746   6.879   2.671  13.064  1.0129 -0.9401 -0.5231
13085TIP3    H260747   6.748   2.748  13.064  1.3647 -0.3441  0.9594
13086TIP3   OH260748   4.205   1.118   1.814  0.2151 -0.1347  0.3705
13086TIP3    H160749   4.131   1.070   1.852  0.2781  0.7885  1.6777
13086TIP3    H260750   4.257   1.050   1.770 -0.8218 -0.9495  0.3722
13087TIP3   OH260751   5.528   5.241   2.375  0.6811 -0.6695  0.0775
13087TIP3    H160752   5.594   5.261   2.308 -0.6126  0.0972 -0.9835
13087TIP3    H260753   5.445   5.265   2.334 -0.5596 -4.2298  0.3479
13088TIP3   OH260754   5.985   6.749  15.920 -0.1637  0.2106  0.6146
13088TIP3    H160755   6.033   6.668  15.932  1.9399  1.3354 -0.0101
13088TIP3    H260756   6.018   6.808  15.988 -0.6691  0.9974  0.1928
13089TIP3   OH260757   4.740   0.519  13.139 -0.3387  0.8362 -0.3307
13089TIP3    H160758   4.762   0.450  13.076  1.4748 -0.8449  2.0792
13089TIP3    H260759   4.794   0.594  13.112  0.1408  0.2598 -1.0032
13090TIP3   OH260760   6.451   6.411  16.050  0.0035 -0.2578  0.0024
13090TIP3    H160761   6.534   6.366  16.033  0.5312  0.6822  0.0480
13090TIP3    H260762   6.463   6.498  16.011 -0.4123  0.3970  1.3167
13091TIP3   OH260763   4.295   0.970  17.290  0.3306  0.1475  1.1660
13091TIP3    H160764   4.367   1.033  17.291  0.4099  0.0536  1.4611
13091TIP3    H260765   4.271   0.962  17.197  0.9235 -0.0712  1.0289
13092TIP3   OH260766   6.727   0.304  15.809 -0.2539 -0.2886 -0.1770
13092TIP3    H160767   6.821   0.303  15.830  0.0094  0.8428 -1.2120
13092TIP3    H260768   6.707   0.397  15.795 -1.2516 -0.6461 -1.1774
13093TIP3   OH260769   3.684   2.048   3.765 -0.4089  0.5457  0.1291
13093TIP3    H160770   3.681   2.137   3.728 -0.3438  0.2814 -0.5148
13093TIP3    H260771   3.773   2.041   3.801 -0.0769  0.3867 -0.7114
13094TIP3   OH260772   1.861   0.382   3.684 -0.0615 -0.0504 -0.4695
13094TIP3    H160773   1.955   0.397   3.675 -0.4235  1.4224 -2.1498
13094TIP3    H260774   1.841   0.315   3.619 -0.0015 -1.1972  0.6760
13095TIP3   OH260775   0.578   3.015  15.585 -0.4246  0.0391  1.1644
13095TIP3    H160776   0.574   3.025  15.490 -1.6699  0.3366  1.2493
13095TIP3    H260777   0.623   2.931  15.598 -2.8520 -1.4650  0.2585
13096TIP3   OH260778   1.607   5.012  17.016  0.5200 -0.0736  0.5560
13096TIP3    H160779   1.651   5.012  16.931 -0.1127 -2.4781  0.2027
13096TIP3    H260780   1.515   5.029  16.995  0.3173 -0.9539  0.7272
13097TIP3   OH260781   5.504   2.951  16.005  0.6117 -0.6326 -0.1011
13097TIP3    H160782   5.528   2.992  16.088 -1.1148  0.1032  0.0596
13097TIP3    H260783   5.471   3.023  15.951 -0.5788 -1.4735 -0.5320
13098TIP3   OH260784   1.188   3.208   5.749 -0.1920 -0.3132  0.7973
13098TIP3    H160785   1.120   3.227   5.685  0.4019  1.1879  0.5964
13098TIP3    H260786   1.269   3.237   5.707  0.0720  1.7999  2.6467
13099TIP3   OH260787   4.975   1.366  15.021  0.5615  0.0279  0.4371
13099TIP3    H160788   4.994   1.457  14.997  0.1418 -0.0746 -0.2920
13099TIP3    H260789   4.884   1.366  15.050  0.1138 -0.4143 -0.9279
13100TIP3   OH260790   4.090   2.173  15.274  0.1809 -0.4040 -0.0586
13100TIP3    H160791   4.152   2.215  15.214 -0.1477 -0.3559 -0.3666
13100TIP3    H260792   4.131   2.181  15.361  1.2572 -1.6178 -0.4433
13101TIP3   OH260793   4.634   0.296  17.264  0.2555  0.6990 -0.7011
13101TIP3    H160794   4.626   0.201  17.261 -0.1517  0.6984  0.1733
13101TIP3    H260795   4.682   0.319  17.184 -0.2104 -0.1751 -1.2371
13102TIP3   OH260796   5.554   5.342   4.116 -0.0057  0.3814  0.1486
13102TIP3    H160797   5.534   5.338   4.210  0.2526 -0.2252  0.1821
13102TIP3    H260798   5.649   5.329   4.112 -0.3211 -1.9888 -0.3486
13103TIP3   OH260799   0.792   4.183   5.040  0.0087  0.2220 -0.2277
13103TIP3    H160800   0.806   4.110   4.979 -1.0016  0.8887 -1.2714
13103TIP3    H260801   0.723   4.235   5.000  0.6672  1.7241  0.5489
13104TIP3   OH260802   5.161   6.405   3.606  0.2336  0.4401 -0.5929
13104TIP3    H160803   5.211   6.435   3.530  0.5037 -0.6294 -0.8339
13104TIP3    H260804   5.095   6.346   3.570 -0.9140  1.4470 -0.2218
13105TIP3   OH260805   4.383   3.029  16.620 -0.1824 -0.3601  0.3337
13105TIP3    H160806   4.400   3.022  16.526 -0.3790  0.9586  0.1870
13105TIP3    H260807   4.308   2.971  16.635  0.6056 -1.4984 -0.0948
13106TIP3   OH260808   2.816   0.648   3.668  0.0067 -0.1674 -0.4318
13106TIP3    H160809   2.869   0.723   3.642 -0.4334 -0.3046 -1.7545
13106TIP3    H260810   2.880   0.582   3.694  0.4618  0.0282 -1.0321
13107TIP3   OH260811   0.253   4.946  13.655 -0.3703 -0.1118  0.1872
13107TIP3    H160812   0.201   5.018  13.690 -1.1296  0.2893 -1.7390
13107TIP3    H260813   0.232   4.872  13.711  0.9249  1.2739  2.6261
13108TIP3   OH260814   5.753   2.826  13.691  0.0527  0.2046 -0.1817
13108TIP3    H160815   5.782   2.870  13.771 -2.0088 -0.3830  0.9204
13108TIP3    H260816   5.835   2.802  13.646  1.2201  2.5818  0.5900
13109TIP3   OH260817   3.755   2.259   2.956  0.4135  0.0118 -0.3843
13109TIP3    H160818   3.672   2.212   2.966  0.0423  0.2043 -2.2710
13109TIP3    H260819   3.760   2.278   2.862  2.7618 -0.2939 -0.3492
13110TIP3   OH260820   2.291   2.963  15.546 -0.1417  0.3090  0.0559
13110TIP3    H160821   2.364   3.017  15.577 -0.3974  0.0880  1.0768
13110TIP3    H260822   2.213   3.013  15.570 -0.3275  0.4443 -0.8388
13111TIP3   OH260823   6.430   0.964   6.554 -0.5300 -0.3906  0.0754
13111TIP3    H160824   6.341   0.951   6.521 -0.4797 -1.4256  0.3202
13111TIP3    H260825   6.434   0.910   6.634  0.0205  0.3829  0.5779
13112TIP3   OH260826   5.055   5.802  12.612 -0.0192  0.3883  0.3901
13112TIP3    H160827   5.070   5.715  12.575  0.4574  0.5952  0.0931
13112TIP3    H260828   5.103   5.803  12.694 -1.4796 -0.2439  1.2780
13113TIP3   OH260829   2.241   1.705   4.871 -0.1595 -0.3029 -0.0146
13113TIP3    H160830   2.244   1.660   4.956  2.6335  1.0177  0.6703
13113TIP3    H260831   2.299   1.654   4.815  1.3701  1.1907  0.1597
13114TIP3   OH260832   1.917   5.993  11.796  0.2305  0.1512 -0.1856
13114TIP3    H160833   1.985   6.024  11.855  0.3119 -1.5625  0.6331
13114TIP3    H260834   1.866   5.930  11.848  0.6178 -1.7702 -2.0630
13115TIP3   OH260835   2.348   0.664   2.617 -0.3419 -0.2808  0.0560
13115TIP3    H160836   2.378   0.575   2.634 -1.4346 -0.6014  0.3648
13115TIP3    H260837   2.261   0.653   2.578 -0.3644  0.6432 -0.1806
13116TIP3   OH260838   6.817   4.668  16.095  0.0942  0.1622 -0.2893
13116TIP3    H160839   6.738   4.719  16.115 -0.5225 -0.1497 -1.8191
13116TIP3    H260840   6.889   4.726  16.119 -0.6070  1.0274 -0.2215
13117TIP3   OH260841   1.859   0.941  10.742 -0.7516 -0.2064 -0.0401
13117TIP3    H160842   1.786   0.889  10.710 -1.8814  0.5862  1.1633
13117TIP3    H260843   1.901   0.976  10.664 -0.5536 -2.1485 -0.8085
13118TIP3   OH260844   2.931   6.173   5.709  0.3813  0.1432 -0.7307
13118TIP3    H160845   3.027   6.182   5.712  0.2639  1.9773 -2.0186
13118TIP3    H260846   2.917   6.091   5.661  1.3002 -0.6657  0.3447
13119TIP3   OH260847   6.730   2.552  16.314  0.3396  0.5317  0.0179
13119TIP3    H160848   6.656   2.596  16.358  1.8760  3.2454 -0.0008
13119TIP3    H260849   6.703   2.546  16.223 -0.1426  0.9019  0.1317
13120TIP3   OH260850   4.309   2.888  15.540 -0.1450  0.3990  0.3827
13120TIP3    H160851   4.272   2.825  15.601  1.4513 -0.0352  0.9194
13120TIP3    H260852   4.403   2.874  15.544  0.3070  3.2160  0.9811
13121TIP3   OH260853   3.025   0.720  16.445 -0.3830 -0.1367 -0.0332
13121TIP3    H160854   3.080   0.643  16.459 -0.2089 -0.2167 -1.1305
13121TIP3    H260855   2.946   0.703  16.496  0.4821 -0.1410  1.3458
13122TIP3   OH260856   4.201   5.658  16.757  0.1414 -0.7195 -0.1610
13122TIP3    H160857   4.251   5.663  16.839  0.6063 -2.0385 -0.3552
13122TIP3    H260858   4.131   5.595  16.775  1.5379 -2.7189 -1.4225
13123TIP3   OH260859   1.263   0.979  16.111 -0.0116  0.4712 -0.1817
13123TIP3    H160860   1.286   1.032  16.188 -0.6580  0.6402 -0.1020
13123TIP3    H260861   1.188   0.927  16.140  0.3853 -0.2207 -0.3790
13124TIP3   OH260862   5.529   3.813  16.915  0.0160 -0.4660 -0.1109
13124TIP3    H160863   5.450   3.762  16.932  1.2298 -1.4398  2.9909
13124TIP3    H260864   5.510   3.899  16.951  1.1503 -1.3906  2.8874
13125TIP3   OH260865   4.435   6.778   5.452  0.1766 -0.0538  0.3182
13125TIP3    H160866   4.443   6.713   5.522 -0.3074 -1.7142 -1.1379
13125TIP3    H260867   4.523   6.785   5.415 -0.0133 -0.7647 -0.2833
13126TIP3   OH260868   5.953   3.500   5.962 -0.2647  0.2096  0.2185
13126TIP3    H160869   5.876   3.449   5.935 -0.1942  0.7887 -1.0998
13126TIP3    H260870   5.919   3.563   6.025 -0.4398 -1.1150  1.4950
13127TIP3   OH260871   3.399   1.836  12.654 -0.2023 -0.0175  0.5756
13127TIP3    H160872   3.459   1.844  12.728 -0.0365 -0.4099  0.4857
13127TIP3    H260873   3.335   1.906  12.668  2.1683  2.5900 -1.1020
13128TIP3   OH260874   4.070   2.225   5.484 -0.2845  0.5938 -0.7666
13128TIP3    H160875   4.030   2.301   5.526  0.1507  0.7130 -0.5582
13128TIP3    H260876   4.022   2.150   5.520  1.0536  0.5928  1.1037
13129TIP3   OH260877   0.477   0.704  15.007 -0.0840 -0.2333 -0.3394
13129TIP3    H160878   0.422   0.676  14.934 -2.0229 -0.3658  1.1603
13129TIP3    H260879   0.417   0.713  15.081  1.8890 -0.2871  1.3011
13130TIP3   OH260880   6.306   2.266  14.192 -0.3871 -0.6123  0.1880
13130TIP3    H160881   6.320   2.171  14.192  0.4882 -0.4865  0.5124
13130TIP3    H260882   6.229   2.279  14.137  0.6439 -1.3387 -1.4612
13131TIP3   OH260883   4.144   0.387  11.282  0.1664 -0.4174  0.8478
13131TIP3    H160884   4.183   0.299  11.284  1.5865  0.2118  1.8255
13131TIP3    H260885   4.096   0.390  11.200  1.4700 -1.5355  0.0199
13132TIP3   OH260886   0.546   2.545  10.655 -0.0410 -0.1694  0.3259
13132TIP3    H160887   0.461   2.551  10.698 -1.0286 -0.4952 -1.5618
13132TIP3    H260888   0.548   2.618  10.594  1.1849  0.0429  0.5935
13133TIP3   OH260889   1.321   2.063  12.829 -0.1802  0.1816 -0.2686
13133TIP3    H160890   1.309   2.012  12.749  0.2360  1.2545 -1.0309
13133TIP3    H260891   1.388   2.128  12.806 -0.8943  1.2415  0.5974
13134TIP3   OH260892   4.427   6.434  12.472 -0.2086 -0.0977 -0.2508
13134TIP3    H160893   4.474   6.364  12.426  0.6917  0.0198  0.5011
13134TIP3    H260894   4.431   6.509  12.412 -1.3235 -0.7301 -1.1345
13135TIP3   OH260895   3.633   2.991  12.686  0.1369 -0.6059  0.0547
13135TIP3    H160896   3.699   3.059  12.704  1.1435 -1.5257 -0.1063
13135TIP3    H260897   3.550   3.032  12.709  0.6890  0.8377 -0.4564
13136TIP3   OH260898   0.347   2.969   2.490 -0.2473  0.3473  0.0947
13136TIP3    H160899   0.396   3.009   2.562  1.1647  1.2963 -1.3565
13136TIP3    H260900   0.291   2.903   2.533  0.0926  1.3178  2.1101
13137TIP3   OH260901   2.869   0.359   1.347 -0.1685 -0.3642 -0.3177
13137TIP3    H160902   2.818   0.408   1.282  1.6242 -0.7635 -2.1011
13137TIP3    H260903   2.849   0.402   1.430 -3.5680 -0.6948 -0.9064
13138TIP3   OH260904   1.510   1.368  14.038  0.0418 -0.5706  0.2582
13138TIP3    H160905   1.523   1.462  14.027 -0.2431 -0.3957  1.3575
13138TIP3    H260906   1.434   1.347  13.983 -0.4865  0.0154  0.7599
13139TIP3   OH260907   4.431   4.426  14.393 -0.1358  0.1102  0.1336
13139TIP3    H160908   4.427   4.371  14.315  0.8623 -1.0557  0.8871
13139TIP3    H260909   4.502   4.489  14.375 -0.7071  0.6078 -0.3814
13140TIP3   OH260910   4.672   3.670  14.610  0.3847  0.4715  0.1188
13140TIP3    H160911   4.596   3.620  14.581  0.9523 -1.0352  1.1488
13140TIP3    H260912   4.744   3.639  14.555  0.8367 -0.1838  1.0741
13141TIP3   OH260913   5.874   6.759  15.665 -0.4178  0.1494 -0.3860
13141TIP3    H160914   5.905   6.750  15.755 -2.3867  1.1054  0.4384
13141TIP3    H260915   5.834   6.847  15.663  0.7414  0.6591 -2.5490
13142TIP3   OH260916   4.877   0.042  15.070 -0.0889 -0.1152 -0.6431
13142TIP3    H160917   4.971   0.059  15.077 -0.1570  0.4792 -1.1785
13142TIP3    H260918   4.838   0.093  15.140  0.0131 -0.5830 -0.2435
13143TIP3   OH260919   6.376   4.333   0.811  0.4166 -0.5336 -0.0950
13143TIP3    H160920   6.354   4.262   0.872 -0.5631  0.0882  0.2840
13143TIP3    H260921   6.295   4.382   0.801  1.3576  1.1849  0.5073
13144TIP3   OH260922   4.649   6.326  16.285  0.0872  0.1165 -0.7229
13144TIP3    H160923   4.690   6.392  16.230  1.3442 -1.4385 -1.6622
13144TIP3    H260924   4.556   6.349  16.283  0.1731  0.3588 -3.1042
13145TIP3   OH260925   0.929   3.749   3.029 -0.0662  0.3276 -0.3940
13145TIP3    H160926   0.862   3.690   3.063  0.8877 -0.6935 -0.2489
13145TIP3    H260927   0.957   3.708   2.946 -0.8593  1.6687 -1.3389
13146TIP3   OH260928   2.715   3.649   4.474 -0.0454  0.2338  0.4788
13146TIP3    H160929   2.646   3.672   4.536 -1.2218  0.3228 -0.8287
13146TIP3    H260930   2.679   3.574   4.425  0.8225  0.2187 -0.1448
13147TIP3   OH260931   2.418   0.735  15.811  0.1266 -0.4878  0.0816
13147TIP3    H160932   2.336   0.700  15.844  0.0601 -1.4531 -1.1113
13147TIP3    H260933   2.485   0.700  15.870 -0.3762  0.9962  1.5845
13148TIP3   OH260934   1.566   4.681   2.310 -0.0917 -0.1632 -0.1298
13148TIP3    H160935   1.599   4.601   2.351 -0.3826  0.1332  0.6859
13148TIP3    H260936   1.491   4.652   2.258 -0.1203 -0.4427  0.0636
13149TIP3   OH260937   0.620   1.926   5.101 -0.1653 -0.5201  0.1207
13149TIP3    H160938   0.574   1.865   5.043  0.0957 -1.2017  0.6247
13149TIP3    H260939   0.713   1.904   5.090  0.0738  1.0138 -1.0826
13150TIP3   OH260940   3.089   4.241   1.093 -0.1924 -0.0546  0.0220
13150TIP3    H160941   3.146   4.270   1.163 -0.9148  2.6098 -0.4447
13150TIP3    H260942   3.007   4.289   1.106 -1.1205 -1.2118 -1.3190
13151TIP3   OH260943   4.440   5.470  16.030 -0.0583  0.1624  0.0757
13151TIP3    H160944   4.460   5.552  16.074  1.5788 -1.1308  1.8168
13151TIP3    H260945   4.370   5.492  15.969 -0.6491  2.5435  1.5480
13152TIP3   OH260946   4.419   2.221   4.650  0.3055  0.1889  0.0206
13152TIP3    H160947   4.513   2.210   4.633  0.4123  0.0987  0.6749
13152TIP3    H260948   4.409   2.202   4.743 -0.5184 -0.7685 -0.2569
13153TIP3   OH260949   0.113   3.006  11.480 -0.2100  0.1015 -0.0504
13153TIP3    H160950   0.047   3.055  11.431  0.2110  0.4116 -0.3082
13153TIP3    H260951   0.081   2.916  11.478  0.0996  0.0013 -1.4259
13154TIP3   OH260952   1.714   1.644  11.242  0.4439  0.3425  0.5231
13154TIP3    H160953   1.642   1.684  11.194 -0.0323  1.7071  2.3016
13154TIP3    H260954   1.756   1.718  11.287  0.0471 -1.0035  3.2399
13155TIP3   OH260955   5.868   3.075  13.372  1.0288  0.2157 -0.5432
13155TIP3    H160956   5.832   2.987  13.365  0.7409  0.2018  0.9219
13155TIP3    H260957   5.940   3.077  13.309  0.0401 -0.5452 -1.7235
13156TIP3   OH260958   3.705   5.622  16.392 -0.6232 -0.3326 -0.5929
13156TIP3    H160959   3.771   5.689  16.410  0.1291 -1.2961  0.2895
13156TIP3    H260960   3.754   5.540  16.391 -1.7012 -0.9796 -0.6495
13157TIP3   OH260961   0.132   5.744   5.490 -0.2185  0.3119  0.3669
13157TIP3    H160962   0.115   5.650   5.495  1.2265  0.0721  1.1547
13157TIP3    H260963   0.201   5.759   5.554 -1.1950  2.1122  1.0253
13158TIP3   OH260964   2.640   3.143  13.121  0.3450  0.7143  0.0712
13158TIP3    H160965   2.728   3.134  13.158  0.6109 -0.8737 -0.9057
13158TIP3    H260966   2.616   3.234  13.138  1.7655  0.8866  1.2453
13159TIP3   OH260967   6.802   1.248  11.653 -0.1067  0.2144  0.0115
13159TIP3    H160968   6.815   1.341  11.633 -0.2826  0.1193 -0.5596
13159TIP3    H260969   6.884   1.221  11.693  0.5835  0.1997 -1.3934
13160TIP3   OH260970   0.483   4.563  12.624  0.1974  0.2880  0.0895
13160TIP3    H160971   0.460   4.651  12.592 -0.4392 -0.2469 -0.9500
13160TIP3    H260972   0.523   4.579  12.710  0.9966  1.6668 -0.5196
13161TIP3   OH260973   3.256   2.678  10.991 -0.5546 -0.0019  0.2965
13161TIP3    H160974   3.305   2.691  10.910  2.6190  2.4221  2.4713
13161TIP3    H260975   3.236   2.767  11.021 -2.0149 -0.8690  1.9950
13162TIP3   OH260976   6.266   1.853   5.271 -0.4162  0.6095 -0.0703
13162TIP3    H160977   6.237   1.881   5.358 -1.3598  2.7406 -1.0389
13162TIP3    H260978   6.186   1.825   5.227  0.0861 -0.6410 -0.2036
13163TIP3   OH260979   2.941   6.029  13.114  0.4210 -0.3530 -0.1338
13163TIP3    H160980   2.965   6.051  13.024 -0.2039 -2.2702 -0.8150
13163TIP3    H260981   3.023   5.999  13.154  0.4926 -0.5039 -0.3926
13164TIP3   OH260982   2.735   2.586   2.327  0.6708 -0.3010 -0.3118
13164TIP3    H160983   2.798   2.514   2.321 -0.1356 -0.9427 -1.0930
13164TIP3    H260984   2.704   2.599   2.238 -1.3920 -0.9526  0.2987
13165TIP3   OH260985   6.293   1.091  12.874  0.6518 -0.0854  0.4002
13165TIP3    H160986   6.285   1.153  12.802  3.2415 -1.4536 -1.1387
13165TIP3    H260987   6.222   1.027  12.860  1.2930 -0.4777 -1.0889
13166TIP3   OH260988   0.144   6.566  14.049 -0.0340 -0.1413  0.1674
13166TIP3    H160989   0.165   6.599  14.136  0.5128  1.3411 -0.5070
13166TIP3    H260990   0.061   6.609  14.027  0.3278  0.2453 -0.4435
13167TIP3   OH260991   5.100   6.453  14.286  0.5295 -0.2270 -0.2964
13167TIP3    H160992   5.037   6.503  14.234  2.0096  0.5622 -1.3509
13167TIP3    H260993   5.073   6.469  14.377 -1.2653 -0.5467 -0.7428
13168TIP3   OH260994   0.820   2.530   5.947  0.1209 -0.2381  0.1875
13168TIP3    H160995   0.804   2.574   6.030  0.2983 -1.7304  1.0222
13168TIP3    H260996   0.914   2.509   5.949  0.4933  1.2134 -1.1282
13169TIP3   OH260997   5.723   3.759  14.845 -0.3504 -0.4191 -0.2883
13169TIP3    H160998   5.722   3.721  14.933 -1.0950 -0.4243 -0.2989
13169TIP3    H260999   5.662   3.832  14.849  0.0767 -0.0385 -0.6372
13170TIP3   OH261000   4.835   2.894  16.425 -0.0142 -0.5704  0.1186
13170TIP3    H161001   4.917   2.855  16.393  0.0827 -1.2934  1.2285
13170TIP3    H261002   4.839   2.985  16.396  0.8433 -0.7901 -0.4688
13171TIP3   OH261003   3.588   2.795  14.944  0.6991  0.2835 -0.0373
13171TIP3    H161004   3.671   2.753  14.924  1.1381  0.9596  0.3538
13171TIP3    H261005   3.554   2.823  14.859  1.3496  0.9022 -0.0900
13172TIP3   OH261006   4.606   2.324   4.974 -0.2092 -0.1652  0.3023
13172TIP3    H161007   4.611   2.414   4.942  0.3617  0.2491  1.5446
13172TIP3    H261008   4.629   2.270   4.898 -2.1121  0.6611 -0.8768
13173TIP3   OH261009   0.032   1.249   4.385 -0.0925 -0.2129  0.2028
13173TIP3    H161010  -0.047   1.298   4.406 -0.0678 -0.3201  0.5426
13173TIP3    H261011   0.071   1.297   4.312 -1.4346 -1.1712 -1.1756
13174TIP3   OH261012   5.024   1.268  14.101 -0.6200 -0.2509 -0.4103
13174TIP3    H161013   5.013   1.223  14.185 -1.9123 -0.7703 -0.8324
13174TIP3    H261014   4.970   1.217  14.040  2.0432 -1.1923 -2.0539
13175TIP3   OH261015   6.067   1.907  12.470 -0.2822  0.2999  0.1092
13175TIP3    H161016   6.130   1.836  12.480 -2.4633 -1.7820 -0.6590
13175TIP3    H261017   6.087   1.945  12.385  0.8197  0.5712  0.4782
13176TIP3   OH261018   5.035   3.707  10.921 -0.4884 -0.1243 -0.0092
13176TIP3    H161019   5.035   3.762  10.843 -1.7189 -1.0697 -0.6909
13176TIP3    H261020   4.943   3.683  10.933  0.0589 -2.2940  0.0687
13177TIP3   OH261021   2.825   4.285   6.358  0.4314  0.0959 -0.4847
13177TIP3    H161022   2.771   4.351   6.401 -1.4055 -0.3311 -2.0750
13177TIP3    H261023   2.780   4.202   6.375  0.9603 -0.3556 -1.2351
13178TIP3   OH261024   3.739   2.587   3.211  0.2016 -0.3184 -0.3659
13178TIP3    H161025   3.781   2.619   3.291 -0.1575 -1.6505  0.3682
13178TIP3    H261026   3.718   2.496   3.230 -0.7146 -0.3855 -1.6597
13179TIP3   OH261027   6.580   0.183   0.790  0.2228 -0.1604  0.0238
13179TIP3    H161028   6.671   0.164   0.812 -0.2898 -0.8878  1.6058
13179TIP3    H261029   6.571   0.277   0.805  0.5368 -0.2080  0.5346
13180TIP3   OH261030   5.527   3.887   6.140 -0.2688 -0.6297  0.0295
13180TIP3    H161031   5.440   3.918   6.164  0.4033  0.4421  1.1999
13180TIP3    H261032   5.558   3.951   6.076 -0.8982 -1.8159 -1.4666
13181TIP3   OH261033   1.385   2.329  13.730 -0.0427 -0.0559 -0.8365
13181TIP3    H161034   1.469   2.372  13.749 -0.2533 -0.4245  0.9735
13181TIP3    H261035   1.409   2.243  13.697  0.3077  0.2032 -1.2683
13182TIP3   OH261036   1.309   5.390   5.749  0.1866 -0.8897 -0.6297
13182TIP3    H161037   1.368   5.450   5.795 -0.1255  0.1262 -1.5452
13182TIP3    H261038   1.364   5.352   5.680  0.4194 -1.7533  0.0314
13183TIP3   OH261039   2.827   0.132  15.517 -0.0840 -0.5721 -1.1303
13183TIP3    H161040   2.770   0.169  15.449 -0.7302 -1.9617 -1.3641
13183TIP3    H261041   2.770   0.072  15.564  0.3359  0.4396  0.7082
13184TIP3   OH261042   5.062   5.523  11.841  0.5278  0.0492  0.0306
13184TIP3    H161043   5.112   5.578  11.780  2.4762 -0.6785  0.9203
13184TIP3    H261044   5.098   5.544  11.927  0.4712 -1.7132  0.5040
13185TIP3   OH261045   4.548   2.546  10.585  0.5282 -0.2291 -0.1942
13185TIP3    H161046   4.529   2.475  10.646 -2.5272 -1.0417 -1.9871
13185TIP3    H261047   4.595   2.503  10.513  2.1846  0.3310  0.5266
13186TIP3   OH261048   5.291   6.639  16.005 -0.8183 -0.1163 -0.2145
13186TIP3    H161049   5.342   6.690  15.942  0.0768  0.3980  0.9101
13186TIP3    H261050   5.226   6.699  16.039 -2.1994 -0.7782 -1.6555
13187TIP3   OH261051   5.964   1.279   5.045  0.4490 -0.1011  0.3003
13187TIP3    H161052   6.045   1.285   5.096  0.7089 -0.8282 -0.0152
13187TIP3    H261053   5.993   1.248   4.959  0.1074  1.8734 -0.5477
13188TIP3   OH261054   4.607   0.908  10.422  0.5467  0.5587 -0.3055
13188TIP3    H161055   4.561   0.827  10.403 -0.2899  1.1308 -0.7486
13188TIP3    H261056   4.618   0.909  10.517  1.5542 -0.6007 -0.3988
13189TIP3   OH261057   2.200   6.128  15.008  0.2373  0.2353 -0.0623
13189TIP3    H161058   2.134   6.059  15.011 -1.0601  1.5213  3.1258
13189TIP3    H261059   2.188   6.169  14.922 -2.9639  0.2733  0.3340
13190TIP3   OH261060   2.707   2.170  12.196 -0.1329  0.2323  0.2859
13190TIP3    H161061   2.793   2.142  12.162 -0.0287  1.4360 -0.4699
13190TIP3    H261062   2.645   2.142  12.129 -0.5815 -2.3367  1.7044
13191TIP3   OH261063   3.430   4.753   3.516 -0.3921  0.4968  0.5346
13191TIP3    H161064   3.337   4.774   3.520 -0.8261 -1.4322  1.1485
13191TIP3    H261065   3.433   4.667   3.474  1.0543  0.1354  1.3477
13192TIP3   OH261066   4.944   0.256  14.102 -0.0445  0.0786 -0.0859
13192TIP3    H161067   4.952   0.173  14.057  0.2077  0.1911 -0.2471
13192TIP3    H261068   4.915   0.318  14.034  0.8873  0.3717 -0.2265
13193TIP3   OH261069   1.507   0.944   3.594 -0.2585 -0.4724 -0.2609
13193TIP3    H161070   1.463   1.016   3.639  0.6883  0.0140 -0.1190
13193TIP3    H261071   1.462   0.938   3.509  0.4298  1.0557 -0.7514
13194TIP3   OH261072   1.752   2.036   0.534  0.7383 -0.1024 -0.5461
13194TIP3    H161073   1.789   2.002   0.453  0.6540  0.1032 -0.6705
13194TIP3    H261074   1.657   2.031   0.521  0.6692 -2.6769  0.6080
13195TIP3   OH261075   3.331   5.115  14.351 -0.3992 -0.3137  0.4674
13195TIP3    H161076   3.339   5.197  14.401 -0.9681  0.7020 -1.0769
13195TIP3    H261077   3.406   5.116  14.292 -0.9645 -0.4243 -0.2516
13196TIP3   OH261078   1.815   3.637   0.974  0.5329  0.2962 -0.5746
13196TIP3    H161079   1.763   3.556   0.970 -0.5277  0.9345  0.2727
13196TIP3    H261080   1.856   3.636   1.060  0.2510  0.8279 -0.4326
13197TIP3   OH261081   4.181   4.327   5.870  0.3863  0.2764  0.1034
13197TIP3    H161082   4.189   4.405   5.814 -1.1170 -0.5732 -1.3354
13197TIP3    H261083   4.136   4.359   5.949 -1.4703  0.6284 -1.0525
13198TIP3   OH261084   1.054   5.306   3.122 -0.4114  0.8722 -0.0962
13198TIP3    H161085   1.057   5.348   3.208  1.7144  1.1559 -0.2846
13198TIP3    H261086   1.081   5.216   3.139  1.0559  1.2012 -0.6062
13199TIP3   OH261087   0.123   4.940  13.197  0.1452  0.1315 -0.5203
13199TIP3    H161088   0.192   4.875  13.185 -0.7189 -0.5796 -1.7147
13199TIP3    H261089   0.144   4.982  13.280  0.2666 -2.2467  0.7043
13200TIP3   OH261090   3.685   1.307  14.730  0.7247 -0.4379  0.4699
13200TIP3    H161091   3.713   1.396  14.754 -0.7006  0.7894 -2.1879
13200TIP3    H261092   3.593   1.302  14.759  0.5135 -0.7085 -0.2457
13201TIP3   OH261093   0.041   4.231  15.488 -1.2033 -0.2427 -0.1163
13201TIP3    H161094   0.089   4.184  15.420 -0.2690 -0.7381  0.8664
13201TIP3    H261095  -0.038   4.179  15.502 -0.7294 -0.8972  0.1500
13202TIP3   OH261096   1.811   5.300  13.013  0.2997  0.1727  0.4165
13202TIP3    H161097   1.785   5.272  12.925  0.6110 -0.2570  0.4586
13202TIP3    H261098   1.729   5.326  13.056  0.0005 -0.6854  0.3799
13203TIP3   OH261099   2.655   3.426   4.319  0.0139  0.5954  0.0776
13203TIP3    H161100   2.602   3.394   4.392 -0.5516  0.9902 -0.1506
13203TIP3    H261101   2.611   3.393   4.241  0.0863  0.9475 -0.1156
13204TIP3   OH261102   6.543   5.111  10.999 -0.4210  0.0971 -0.1415
13204TIP3    H161103   6.638   5.103  11.004 -0.5320 -1.3593 -0.3204
13204TIP3    H261104   6.517   5.055  10.926 -1.6005 -1.0649  1.1331
13205TIP3   OH261105   3.265   6.058   1.451  0.2951 -0.3049 -0.0044
13205TIP3    H161106   3.187   6.114   1.445  1.1512  0.7462 -1.8918
13205TIP3    H261107   3.242   5.980   1.400 -0.1926 -0.8233  1.0012
13206TIP3   OH261108   2.907   4.308   5.535 -0.3549 -0.0624 -1.0429
13206TIP3    H161109   2.936   4.349   5.453  2.4863 -0.2841 -0.2178
13206TIP3    H261110   2.854   4.233   5.508 -1.2113  1.0971 -2.6315
13207TIP3   OH261111   0.882   6.408  14.070 -0.1974 -0.0388 -0.5270
13207TIP3    H161112   0.900   6.318  14.095  1.3365  0.1174 -0.9776
13207TIP3    H261113   0.840   6.401  13.984  2.9971 -0.2239 -2.1289
13208TIP3   OH261114   2.759   4.627   3.464 -0.1874 -0.2805 -0.0264
13208TIP3    H161115   2.854   4.616   3.465 -0.0445  0.7058  2.8219
13208TIP3    H261116   2.744   4.705   3.410  0.5516 -0.8290 -1.0394
13209TIP3   OH261117   4.578   3.993  13.594  0.1850 -0.7736  0.3376
13209TIP3    H161118   4.541   3.942  13.666  0.7969 -1.7384 -0.0198
13209TIP3    H261119   4.565   3.937  13.517 -0.3537  0.1985 -0.2835
13210TIP3   OH261120   5.783   1.668   0.468 -0.1069  0.4512 -0.3156
13210TIP3    H161121   5.700   1.621   0.480  0.2574 -0.3246 -0.7526
13210TIP3    H261122   5.830   1.616   0.403  0.6869  0.9339 -0.1347
13211TIP3   OH261123   0.616   4.153   2.949  0.1747 -0.1773 -0.1651
13211TIP3    H161124   0.562   4.081   2.917  0.1810  0.5535 -1.9052
13211TIP3    H261125   0.606   4.221   2.882  2.4521  0.3330 -0.0181
13212TIP3   OH261126   6.671   5.800  11.699 -0.3991 -0.4477 -0.8268
13212TIP3    H161127   6.581   5.832  11.703 -0.3161 -0.2457 -0.5525
13212TIP3    H261128   6.717   5.862  11.643 -0.2423 -0.0958 -0.3119
13213TIP3   OH261129   3.556   6.328   1.237 -0.2175  0.2390  0.4890
13213TIP3    H161130   3.556   6.381   1.316 -1.5228 -0.7578  1.1681
13213TIP3    H261131   3.648   6.304   1.225  0.0271  0.6049  1.5598
13214TIP3   OH261132   4.412   0.689  10.409 -0.2672 -0.2259 -0.0828
13214TIP3    H161133   4.423   0.706  10.502  0.1502 -2.5701  0.3386
13214TIP3    H261134   4.328   0.642  10.403 -0.8299  0.8809 -1.0253
13215TIP3   OH261135   2.208   1.628  11.417 -0.8137  0.4538  0.4204
13215TIP3    H161136   2.263   1.665  11.485 -0.9906  1.0961  0.2174
13215TIP3    H261137   2.121   1.666  11.432 -0.8133  0.7355 -0.2690
13216TIP3   OH261138   2.057   2.870  12.914 -0.0988  0.5787  0.0333
13216TIP3    H161139   2.145   2.906  12.925 -0.2127  1.0094 -0.4167
13216TIP3    H261140   2.033   2.893  12.824 -0.8707  0.9099  0.3168
13217TIP3   OH261141   5.584   1.206  13.005 -0.0430  0.0073  0.0973
13217TIP3    H161142   5.490   1.224  13.009 -0.5336 -2.2256 -0.5305
13217TIP3    H261143   5.597   1.135  13.067  1.4603  1.1202  1.0705
13218TIP3   OH261144   5.125   3.499  10.706  0.0843 -0.5966 -0.1472
13218TIP3    H161145   5.212   3.493  10.667  0.0303 -1.6828 -0.1099
13218TIP3    H261146   5.077   3.559  10.649  0.5142 -0.8811 -0.8112
13219TIP3   OH261147   1.266   6.447  14.676  0.2290  0.0374 -0.7493
13219TIP3    H161148   1.320   6.433  14.599  0.6411  0.7251 -0.5973
13219TIP3    H261149   1.328   6.453  14.748  0.0455  1.9398 -0.7238
13220TIP3   OH261150   5.380   1.966   4.848 -0.1160 -0.2178 -0.1749
13220TIP3    H161151   5.317   1.999   4.911  1.8372  2.7951  0.3422
13220TIP3    H261152   5.447   1.922   4.901 -0.3080 -0.8643 -0.4634
13221TIP3   OH261153   3.231   2.503  12.373 -0.1876 -0.5258 -0.5976
13221TIP3    H161154   3.202   2.498  12.282 -0.6681  1.5550 -0.5667
13221TIP3    H261155   3.314   2.550  12.369 -0.5130  0.1125  0.1042
13222TIP3   OH261156   1.372   1.371   3.988  0.0255  0.3357 -0.2461
13222TIP3    H161157   1.425   1.340   3.915  1.2420  1.2793  0.2089
13222TIP3    H261158   1.434   1.415   4.046 -1.1406  0.8271  0.6677
13223TIP3   OH261159   6.167   4.205  13.158 -0.2041 -0.0241 -0.8310
13223TIP3    H161160   6.086   4.182  13.203  0.0034 -0.9365 -0.9251
13223TIP3    H261161   6.215   4.123  13.149  1.1084  0.6281 -0.0524
13224TIP3   OH261162   5.601   2.107  13.196  0.5914 -0.1484  0.1734
13224TIP3    H161163   5.545   2.056  13.254 -1.7763  0.0873 -1.7786
13224TIP3    H261164   5.627   2.045  13.128  2.1203 -0.0678  0.6790
13225TIP3   OH261165   2.217   1.159   3.417 -0.5052  0.3768 -0.2121
13225TIP3    H161166   2.210   1.072   3.377 -0.6833  1.2857 -2.2494
13225TIP3    H261167   2.224   1.219   3.342  3.5850  1.7836  1.1943
13226TIP3   OH261168   2.611   1.045   3.084 -0.3679 -0.9016  0.1884
13226TIP3    H161169   2.516   1.062   3.080 -0.7058 -2.7591  0.1649
13226TIP3    H261170   2.643   1.068   2.997 -0.3474  2.2202  0.9609
13227TIP3   OH261171   2.127   1.728  15.369  0.3451 -0.5857 -0.7716
13227TIP3    H161172   2.197   1.773  15.321  2.0004 -1.7776  0.4738
13227TIP3    H261173   2.122   1.775  15.453 -1.7882  0.7937 -1.6138
13228TIP3   OH261174   0.592   5.312  16.675 -0.0136 -0.1893 -0.5258
13228TIP3    H161175   0.502   5.333  16.649 -0.2426 -0.3769  0.0978
13228TIP3    H261176   0.625   5.256  16.605  0.1859  1.2386 -1.5998
13229TIP3   OH261177   6.739   3.098   3.169  0.2665 -0.0833  0.4532
13229TIP3    H161178   6.772   3.170   3.221  1.2906  0.4844 -0.9561
13229TIP3    H261179   6.759   3.122   3.078  0.4592 -2.0386 -0.0509
13230TIP3   OH261180   6.295   4.152   1.771  0.6333 -0.6217  0.6281
13230TIP3    H161181   6.317   4.245   1.772  0.0666 -0.4094 -2.3185
13230TIP3    H261182   6.375   4.108   1.800  1.4704  0.6947  0.3475
13231TIP3   OH261183   1.822   1.317  16.046  0.2634 -0.4462  0.3234
13231TIP3    H161184   1.828   1.401  16.001  1.9758 -0.3375  0.6970
13231TIP3    H261185   1.904   1.311  16.095  0.6221 -2.8020 -0.5214
13232TIP3   OH261186   2.798   6.682   1.583 -0.0955  0.1139  0.6366
13232TIP3    H161187   2.848   6.656   1.661  2.8076  1.1700 -0.8271
13232TIP3    H261188   2.855   6.660   1.509 -3.7962 -3.2099 -1.4297
13233TIP3   OH261189   4.429   0.139  16.294 -0.4853 -1.2945 -0.8775
13233TIP3    H161190   4.478   0.203  16.242 -0.3697 -1.5371 -1.0685
13233TIP3    H261191   4.337   0.158  16.276 -0.5023  0.2410  0.7734
13234TIP3   OH261192   2.218   4.259   1.945 -0.1731 -0.1989  0.0553
13234TIP3    H161193   2.208   4.349   1.977  0.9866 -0.5597  1.4756
13234TIP3    H261194   2.200   4.204   2.021 -1.8462 -1.2091 -1.0504
13235TIP3   OH261195   2.843   6.387   0.965 -0.0185  0.0349 -0.2208
13235TIP3    H161196   2.894   6.357   1.040 -0.3567  1.9965  0.8090
13235TIP3    H261197   2.900   6.449   0.920 -0.2637 -0.2404 -0.9164
13236TIP3   OH261198   3.619   6.525  15.961  0.3620  0.2842  0.2021
13236TIP3    H161199   3.646   6.589  15.896 -0.6686 -1.2300 -1.7520
13236TIP3    H261200   3.696   6.471  15.976  0.4246  0.2618 -0.2053
13237TIP3   OH261201   4.019   2.699  15.942  0.7557 -0.5470  0.0412
13237TIP3    H161202   3.949   2.760  15.965  2.1976  1.3444 -0.5055
13237TIP3    H261203   3.974   2.628  15.896 -0.6581  1.1682 -1.2751
13238TIP3   OH261204   5.978   1.427  15.157 -0.5153 -0.5994  0.4624
13238TIP3    H161205   5.923   1.440  15.079 -0.4307 -0.6155  0.3989
13238TIP3    H261206   5.919   1.387  15.221 -0.5390 -0.7525  0.3448
13239TIP3   OH261207   5.929   6.362  13.776  0.3196  0.0019 -0.8614
13239TIP3    H161208   5.931   6.455  13.796  2.2765 -0.2466  0.2478
13239TIP3    H261209   5.872   6.324  13.843  2.7331 -0.1150  1.1904
13240TIP3   OH261210   1.083   3.032   0.773 -0.1826 -0.2902  0.3400
13240TIP3    H161211   1.172   3.003   0.753  0.1539 -0.5501  2.1262
13240TIP3    H261212   1.041   2.954   0.811 -1.5488 -0.5142 -1.5290
13241TIP3   OH261213   0.467   4.308  11.302  0.0870  0.1504  0.0333
13241TIP3    H161214   0.468   4.235  11.239  0.5464  0.1389  0.0524
13241TIP3    H261215   0.495   4.383  11.250 -0.7519  0.3933 -0.0804
13242TIP3   OH261216   3.888   2.533   2.951  0.4689  0.1121  0.5111
13242TIP3    H161217   3.841   2.517   2.869  2.8124 -0.5251 -0.7918
13242TIP3    H261218   3.821   2.555   3.015 -1.3419  1.8659 -1.8991
13243TIP3   OH261219   3.516   4.194   0.497 -0.0599  0.6098 -0.4022
13243TIP3    H161220   3.478   4.270   0.540 -0.8082 -0.2310  0.4399
13243TIP3    H261221   3.605   4.221   0.474 -0.0144  1.4272  0.7099
13244TIP3   OH261222   2.110   0.644  11.638 -0.1312  0.4392  0.1040
13244TIP3    H161223   2.043   0.641  11.706 -1.6158 -0.1615 -1.3508
13244TIP3    H261224   2.178   0.701  11.674 -0.8583  0.0948  2.1030
13245TIP3   OH261225   0.810   4.586  15.289 -0.0299  0.1627  0.5297
13245TIP3    H161226   0.867   4.548  15.221  0.9026 -0.2339  1.5252
13245TIP3    H261227   0.849   4.671  15.308  0.5347 -0.3323  1.5873
13246TIP3   OH261228   4.821   4.179   4.378  0.2959  0.4705  0.0864
13246TIP3    H161229   4.802   4.180   4.472  1.2317 -1.1610  0.3094
13246TIP3    H261230   4.841   4.270   4.357 -0.4975  0.9497  1.3449
13247TIP3   OH261231   0.999   1.289  16.274 -0.7078  0.4184 -0.3115
13247TIP3    H161232   1.047   1.352  16.220  0.7301  0.3176  0.8275
13247TIP3    H261233   0.908   1.320  16.272  0.0630  2.8047  0.6195
13248TIP3   OH261234   4.718   4.234  13.876 -0.1963 -0.1101  0.0954
13248TIP3    H161235   4.646   4.232  13.939  0.5212 -0.3261  0.9275
13248TIP3    H261236   4.683   4.192  13.797 -0.7615 -0.8507  0.7276
13249TIP3   OH261237   4.466   2.792  12.310 -0.6590  0.1995  0.2738
13249TIP3    H161238   4.384   2.810  12.263  0.1571  1.9297 -0.5175
13249TIP3    H261239   4.535   2.812  12.248  0.3946 -0.7179  1.1247
13250TIP3   OH261240   3.454   4.934   0.589  0.0723  0.3829  0.1497
13250TIP3    H161241   3.376   4.930   0.534  0.4590  1.1543 -0.4582
13250TIP3    H261242   3.512   4.867   0.553 -0.0778  0.2013  0.2455
13251TIP3   OH261243   2.339   3.873  12.884 -0.3247  0.0749  0.1159
13251TIP3    H161244   2.387   3.851  12.804  0.6854 -0.2250  0.8003
13251TIP3    H261245   2.376   3.957  12.911 -0.5337  0.0785  0.3850
13252TIP3   OH261246   3.421   3.355   3.401 -0.1047 -0.2002  0.6369
13252TIP3    H161247   3.443   3.335   3.492 -0.4167 -0.0809  0.7395
13252TIP3    H261248   3.503   3.344   3.353  0.5722  1.7832  1.2680
13253TIP3   OH261249   6.037   2.524   4.436  0.3180  0.0564 -0.3136
13253TIP3    H161250   6.012   2.432   4.440 -0.1530  0.1948  0.0210
13253TIP3    H261251   5.959   2.569   4.405  0.9351  0.1935 -1.6833
13254TIP3   OH261252   6.756   2.750   2.056  0.1696  0.1592 -0.4143
13254TIP3    H161253   6.670   2.709   2.067  0.8922 -1.0653  0.8458
13254TIP3    H261254   6.805   2.689   2.001  0.9803 -0.3086  0.7945
13255TIP3   OH261255   6.090   6.561   6.380  0.0335  0.2588 -0.3686
13255TIP3    H161256   6.065   6.652   6.366 -1.5403 -0.4781 -2.6962
13255TIP3    H261257   6.127   6.533   6.297  0.5201 -1.2150  0.3259
13256TIP3   OH261258   1.939   3.456  12.227  0.5045  0.3131 -0.2267
13256TIP3    H161259   2.026   3.419  12.215  0.6882  1.0384 -1.2761
13256TIP3    H261260   1.895   3.397  12.288  2.2687  0.8378  1.6000
13257TIP3   OH261261   2.317   0.224   4.857 -0.1628 -0.7175  0.8470
13257TIP3    H161262   2.360   0.252   4.938  0.5287 -1.0057  0.5848
13257TIP3    H261263   2.289   0.134   4.875  0.5732 -1.0101  0.5427
13258TIP3   OH261264   4.504   1.749  13.780  0.0752 -0.0323  0.2225
13258TIP3    H161265   4.556   1.668  13.785 -1.5040 -1.1458 -1.0293
13258TIP3    H261266   4.499   1.768  13.687  1.0380  1.9518  0.5488
13259TIP3   OH261267   0.623   6.052  14.328 -0.0318 -0.3764 -0.2123
13259TIP3    H161268   0.714   6.078  14.345 -0.2921  0.7809 -0.5387
13259TIP3    H261269   0.624   6.022  14.237 -0.1307  0.3887 -0.4704
13260TIP3   OH261270   4.650   3.954   1.456  0.5741  0.0650 -0.1524
13260TIP3    H161271   4.703   3.908   1.521  0.3525  0.1120  0.0595
13260TIP3    H261272   4.698   4.036   1.440  0.7115 -0.0174 -0.1676
13261TIP3   OH261273   5.146   4.582   0.645  0.2880  0.6377 -0.0982
13261TIP3    H161274   5.153   4.487   0.652 -1.2356  0.2590 -2.9063
13261TIP3    H261275   5.177   4.603   0.557 -0.4860  2.6034  0.0504
13262TIP3   OH261276   5.702   3.502   5.750  0.1513  0.1387 -0.1807
13262TIP3    H161277   5.639   3.540   5.689 -0.4741  0.2496  0.5267
13262TIP3    H261278   5.706   3.564   5.823  0.2805 -0.3895  0.2674
13263TIP3   OH261279   5.721   3.217  14.751 -0.3427 -0.0217 -0.4997
13263TIP3    H161280   5.730   3.142  14.810 -0.8662  0.2659 -0.0419
13263TIP3    H261281   5.802   3.219  14.701 -1.2659 -2.3113 -2.1597
13264TIP3   OH261282   2.775   6.103   6.346  0.0656  0.2146 -0.2889
13264TIP3    H161283   2.817   6.175   6.392  0.3719  0.7366 -1.3674
13264TIP3    H261284   2.801   6.025   6.396 -1.4846  0.9555  1.7476
13265TIP3   OH261285   2.959   2.475  14.149 -0.0084 -0.2912  0.1517
13265TIP3    H161286   2.880   2.430  14.120 -0.2961 -0.1970  0.7813
13265TIP3    H261287   3.019   2.468  14.075 -0.9206  0.4062 -0.6699
13266TIP3   OH261288   6.468   5.480  11.758  0.5977 -0.7637  0.1596
13266TIP3    H161289   6.478   5.478  11.853  0.0238 -0.6171  0.2256
13266TIP3    H261290   6.393   5.538  11.743  1.4520  0.2078 -0.4415
13267TIP3   OH261291   4.307   0.149   3.559  0.2758 -0.0211  0.0716
13267TIP3    H161292   4.241   0.213   3.534  1.5077  1.3051  0.1241
13267TIP3    H261293   4.298   0.140   3.654 -0.6979 -0.8407 -0.0967
13268TIP3   OH261294   4.154   0.820   4.830  0.9533  0.2232  0.0819
13268TIP3    H161295   4.150   0.903   4.878  2.3920  0.0705  0.4826
13268TIP3    H261296   4.106   0.836   4.749 -0.9105  0.6989  1.2566
13269TIP3   OH261297   4.216   2.203  15.516 -0.3946  0.3801  0.3639
13269TIP3    H161298   4.302   2.166  15.534  0.1828  0.6219 -1.6882
13269TIP3    H261299   4.217   2.290  15.556 -0.1718 -0.1432  1.4859
13270TIP3   OH261300   4.008   4.052  16.553 -0.1413 -0.4346  0.6743
13270TIP3    H161301   4.082   4.004  16.589 -0.7835 -0.3729  2.1255
13270TIP3    H261302   3.989   4.009  16.470  1.0752 -0.8833  0.6254
13271TIP3   OH261303   1.379   6.544  15.415 -0.2545 -0.1214  0.3392
13271TIP3    H161304   1.289   6.524  15.389  0.3798 -0.8806 -1.3565
13271TIP3    H261305   1.433   6.496  15.352  1.3381  0.4089  1.2784
13272TIP3   OH261306   0.901   5.958   1.222  0.3951 -0.5214 -0.2538
13272TIP3    H161307   0.996   5.969   1.231  0.1718  1.5579 -0.3593
13272TIP3    H261308   0.864   6.039   1.256 -1.3062 -0.9089 -1.1592
13273TIP3   OH261309   3.255   0.910   4.927  0.2230  0.2663  0.0741
13273TIP3    H161310   3.232   0.847   4.995  0.3154 -0.9246 -0.9727
13273TIP3    H261311   3.350   0.918   4.931  0.1364  0.9596  0.7438
13274TIP3   OH261312   1.951   0.679  13.827  0.1706  0.4829  0.6295
13274TIP3    H161313   2.045   0.662  13.821  0.5101  2.6419 -0.5571
13274TIP3    H261314   1.928   0.654  13.917  2.3015  1.9483  1.6158
13275TIP3   OH261315   1.199   0.931  15.272 -0.0512 -0.3653  0.1230
13275TIP3    H161316   1.262   0.998  15.297  0.0317 -1.3161  2.5719
13275TIP3    H261317   1.254   0.857  15.245 -0.1419 -0.2771 -0.3107
13276TIP3   OH261318   3.456   0.908  15.828 -0.1416 -0.6165 -0.2983
13276TIP3    H161319   3.463   0.857  15.748  0.6074 -1.0753  0.0576
13276TIP3    H261320   3.545   0.938  15.846 -0.3854 -0.1136  0.0989
13277TIP3   OH261321   6.517   0.282   2.229 -0.2571 -0.4003  0.3077
13277TIP3    H161322   6.479   0.368   2.248 -0.3717 -0.7670  1.8507
13277TIP3    H261323   6.526   0.279   2.134 -0.7586  1.1041  0.2101
13278TIP3   OH261324   4.602   4.082  14.315 -0.0338 -0.1970 -0.4193
13278TIP3    H161325   4.648   4.134  14.381 -1.4181  0.6921 -0.1249
13278TIP3    H261326   4.648   3.998  14.315  0.4724  0.0496  1.1329
13279TIP3   OH261327   3.701   0.705  14.861 -0.2103 -0.5821  0.3723
13279TIP3    H161328   3.666   0.789  14.830 -2.3003 -1.2820  0.7380
13279TIP3    H261329   3.787   0.727  14.897 -0.1032  1.1619 -0.8498
13280TIP3   OH261330   5.455   1.705   3.332  0.2269 -0.1450 -0.0356
13280TIP3    H161331   5.432   1.797   3.348 -2.3100 -0.7537 -0.0106
13280TIP3    H261332   5.459   1.698   3.237 -1.0401 -0.3330 -0.0834
13281TIP3   OH261333   5.871   3.796  11.695 -0.1377 -0.2348  0.1855
13281TIP3    H161334   5.930   3.825  11.625  0.9241  0.0807  1.1938
13281TIP3    H261335   5.905   3.710  11.720  1.2690  0.8891  2.2717
13282TIP3   OH261336   2.466   1.869  12.719  0.7266 -0.1521 -0.0533
13282TIP3    H161337   2.557   1.885  12.744  0.4613  1.8475 -0.3297
13282TIP3    H261338   2.469   1.855  12.624  0.7592 -0.1887 -0.0474
13283TIP3   OH261339   2.702   5.692   0.573 -0.1604  0.4044  0.3418
13283TIP3    H161340   2.651   5.701   0.654 -0.9375 -0.9020  0.0022
13283TIP3    H261341   2.727   5.782   0.551 -2.8182  1.1434  0.1769
13284TIP3   OH261342   4.184   2.738   4.262  0.1268  0.6077 -0.0852
13284TIP3    H161343   4.150   2.822   4.231  0.7303  1.3599  1.2422
13284TIP3    H261344   4.106   2.683   4.273 -0.3246  1.1775 -0.4093
13285TIP3   OH261345   0.827   4.802  14.201 -0.2939  0.0813  0.1453
13285TIP3    H161346   0.751   4.854  14.225  0.3050  1.2892 -0.5291
13285TIP3    H261347   0.862   4.845  14.123  0.7856 -0.7457  0.1596
13286TIP3   OH261348   6.295   6.133   1.412 -0.2739  0.1118  0.7716
13286TIP3    H161349   6.242   6.159   1.487  0.5637  1.6086  0.8618
13286TIP3    H261350   6.336   6.215   1.382 -0.4742 -0.4873 -1.2140
13287TIP3   OH261351   4.059   4.712   6.159 -0.1196  0.4432 -0.1601
13287TIP3    H161352   4.123   4.754   6.216  2.3116 -0.9103 -1.8087
13287TIP3    H261353   4.078   4.746   6.072 -0.4870 -1.2918 -0.9482
13288TIP3   OH261354   5.829   2.263   1.037 -0.3362 -0.2242  0.1026
13288TIP3    H161355   5.770   2.196   1.002 -0.9939  0.3438  0.1218
13288TIP3    H261356   5.867   2.223   1.115  1.7500 -1.8243 -1.6505
13289TIP3   OH261357   0.113   1.360  15.474 -0.1136 -0.3044 -0.8767
13289TIP3    H161358   0.053   1.408  15.417  0.0286 -0.3863 -1.0978
13289TIP3    H261359   0.193   1.412  15.474 -0.3495  0.0637 -0.1864
13290TIP3   OH261360   6.506   2.922  12.663  0.0694 -0.4314 -0.0115
13290TIP3    H161361   6.540   2.855  12.605 -0.2462 -1.6456  1.1741
13290TIP3    H261362   6.559   2.914  12.743 -0.5511  0.1349  0.4658
13291TIP3   OH261363   6.399   2.600   5.423 -0.1017 -0.1231 -0.2218
13291TIP3    H161364   6.446   2.682   5.404 -0.4321  0.1493  0.1281
13291TIP3    H261365   6.358   2.577   5.340  1.0384 -0.6238 -0.6616
13292TIP3   OH261366   4.391   1.255   2.316 -0.2872  0.6451  0.4360
13292TIP3    H161367   4.378   1.331   2.373 -0.8500  0.8326  0.0598
13292TIP3    H261368   4.485   1.236   2.323 -0.1202  1.4500  0.4375
13293TIP3   OH261369   0.829   6.170   2.411  0.0008  0.1198 -0.2137
13293TIP3    H161370   0.810   6.090   2.362 -1.2688 -0.1581  0.7037
13293TIP3    H261371   0.802   6.241   2.353  0.8838 -0.1175 -0.9253
13294TIP3   OH261372   5.755   3.181   3.645  0.2227  0.4524 -0.1046
13294TIP3    H161373   5.688   3.207   3.708  0.9840 -2.3755  1.9895
13294TIP3    H261374   5.837   3.186   3.694  0.7919 -2.1381 -0.6846
13295TIP3   OH261375   3.583   2.460  17.247  0.6217 -0.1695 -0.1959
13295TIP3    H161376   3.534   2.474  17.328  0.5181 -1.9614  0.0672
13295TIP3    H261377   3.655   2.403  17.271  1.9453  1.1772 -0.9120
13296TIP3   OH261378   2.999   6.487   1.590  0.6158  0.2621 -0.1282
13296TIP3    H161379   3.050   6.563   1.620 -0.3940  0.4333  1.1913
13296TIP3    H261380   2.986   6.434   1.669  1.0727 -1.1615 -0.9817
13297TIP3   OH261381   4.147   3.927  15.033 -0.1002  0.2511  0.1314
13297TIP3    H161382   4.106   3.912  15.119 -1.1389  1.2823 -0.1721
13297TIP3    H261383   4.228   3.975  15.054  0.7598 -1.3821  0.6899
13298TIP3   OH261384   1.268   6.442   4.335  0.8014  0.4194 -0.2003
13298TIP3    H161385   1.220   6.522   4.353  1.2504  0.9520 -1.3872
13298TIP3    H261386   1.257   6.427   4.241  0.2722 -1.1991  0.0992
13299TIP3   OH261387   2.288   2.379  13.331  0.2204 -0.8915  0.6512
13299TIP3    H161388   2.272   2.460  13.283 -1.4071 -2.9427 -2.3794
13299TIP3    H261389   2.339   2.325  13.271  2.5136 -1.6365  3.1697
13300TIP3   OH261390   3.168   0.672  14.142  0.2468  0.6565 -0.0726
13300TIP3    H161391   3.219   0.749  14.114 -0.4327  0.9567 -0.4851
13300TIP3    H261392   3.228   0.624  14.199  1.2848  0.5973 -1.1835
13301TIP3   OH261393   6.492   5.204  16.179  0.0486  0.0085 -0.1272
13301TIP3    H161394   6.435   5.280  16.191 -0.7503 -0.0349 -3.2678
13301TIP3    H261395   6.581   5.238  16.193 -0.3895  1.2024 -0.1808
13302TIP3   OH261396   0.865   1.550  12.943  0.0183  0.3752  0.1269
13302TIP3    H161397   0.814   1.472  12.923 -0.2161  0.3546  0.7863
13302TIP3    H261398   0.838   1.614  12.877 -0.7569  0.3200  0.3850
13303TIP3   OH261399   6.300   1.463   4.794  0.0349 -0.6800 -0.0097
13303TIP3    H161400   6.391   1.443   4.773 -0.2441 -1.5304 -0.4187
13303TIP3    H261401   6.253   1.454   4.711 -0.1625  1.3880 -0.1643
13304TIP3   OH261402   6.152   6.522   0.715 -0.1184  0.6562  0.4812
13304TIP3    H161403   6.097   6.587   0.671 -0.3126  0.4031  0.3483
13304TIP3    H261404   6.172   6.458   0.647 -1.3775 -0.3473  1.0373
13305TIP3   OH261405   3.475   3.495  10.428 -0.4118  0.1962  0.5205
13305TIP3    H161406   3.399   3.436  10.430 -0.8788  0.6980 -1.0621
13305TIP3    H261407   3.513   3.489  10.515 -1.3084 -1.3363  0.8241
13306TIP3   OH261408   4.570   1.601  16.136 -0.4173 -0.6149 -0.2185
13306TIP3    H161409   4.606   1.512  16.132 -0.3727 -0.6911  1.4062
13306TIP3    H261410   4.497   1.594  16.197 -0.3211  0.4918  0.0302
13307TIP3   OH261411   0.763   0.911  10.616  0.3953 -0.5520 -0.4108
13307TIP3    H161412   0.841   0.863  10.589  0.5442 -1.1540  1.0287
13307TIP3    H261413   0.692   0.847  10.614  0.0171 -0.1049 -1.3340
13308TIP3   OH261414   2.761   0.352  16.877 -0.8595 -0.4558  0.1520
13308TIP3    H161415   2.790   0.263  16.896 -1.6811 -0.9965 -1.0718
13308TIP3    H261416   2.680   0.363  16.927 -1.6577 -0.9922 -1.0018
13309TIP3   OH261417   4.563   0.079   5.128  0.2398 -0.1662  0.0305
13309TIP3    H161418   4.616   0.111   5.055  0.4702  0.1938  0.3516
13309TIP3    H261419   4.539  -0.010   5.104 -0.1321  0.1331 -0.7319
13310TIP3   OH261420   6.042   2.658   2.643  0.5425 -0.1353  0.2008
13310TIP3    H161421   6.010   2.747   2.655 -1.1344 -0.5291 -1.1109
13310TIP3    H261422   5.969   2.602   2.672  1.2460 -1.0690  0.2029
13311TIP3   OH261423   5.951   4.825   2.410 -0.2630  0.3508 -0.6238
13311TIP3    H161424   5.983   4.743   2.373 -0.5861  0.1558 -0.4660
13311TIP3    H261425   5.861   4.833   2.379 -0.9672 -0.4345  1.1210
13312TIP3   OH261426   6.491   6.605   4.544 -0.0892  0.1307 -0.0077
13312TIP3    H161427   6.417   6.555   4.578 -1.2499  0.8541 -1.4135
13312TIP3    H261428   6.535   6.545   4.485  0.0266 -0.0608  0.2705
13313TIP3   OH261429   6.196   3.457   4.125 -0.6795  0.5141 -0.3605
13313TIP3    H161430   6.108   3.486   4.151 -0.6278  0.5644 -0.2464
13313TIP3    H261431   6.204   3.486   4.034 -1.6499 -1.4174 -1.0871
13314TIP3   OH261432   0.893   0.671   2.267  0.0905 -0.2687 -0.7681
13314TIP3    H161433   0.837   0.746   2.287  2.3823  1.5878 -1.1244
13314TIP3    H261434   0.835   0.595   2.276 -1.4388  1.2307  3.1537
13315TIP3   OH261435   0.175   1.975   4.772  0.4007 -0.3913 -0.2222
13315TIP3    H161436   0.172   1.880   4.760  0.1964 -0.4751  0.4621
13315TIP3    H261437   0.220   1.987   4.855 -2.4965 -0.0205  1.3697
13316TIP3   OH261438   2.302   1.850   3.890 -0.6080 -0.4262  0.2158
13316TIP3    H161439   2.224   1.901   3.913 -0.1450 -0.2471  1.4340
13316TIP3    H261440   2.361   1.863   3.964 -0.1447 -2.0456  0.1506
13317TIP3   OH261441   2.693   0.613  15.769  0.1195 -0.1698 -0.2769
13317TIP3    H161442   2.726   0.573  15.849  2.8487  2.5618  0.0425
13317TIP3    H261443   2.715   0.549  15.700 -1.5185 -2.1494  0.9662
13318TIP3   OH261444   6.007   2.984   3.515 -0.7292 -0.3760 -0.4112
13318TIP3    H161445   5.993   3.060   3.459  0.8144 -1.5754 -2.5075
13318TIP3    H261446   5.986   3.015   3.603  0.4476  2.6373 -1.1329
13319TIP3   OH261447   1.317   3.880  13.276  0.6096 -0.9003 -0.1980
13319TIP3    H161448   1.395   3.936  13.268  0.4051 -0.5310  0.3603
13319TIP3    H261449   1.331   3.830  13.356 -0.6379  0.6352  1.0275
13320TIP3   OH261450   6.500   4.158  14.747 -0.0374 -0.1330  0.5341
13320TIP3    H161451   6.553   4.180  14.671  0.8724  2.5551  1.8735
13320TIP3    H261452   6.413   4.192  14.726  0.7500  2.6492  1.5461
13321TIP3   OH261453   0.531   3.026  11.695  0.1217 -0.0005 -0.3044
13321TIP3    H161454   0.578   2.956  11.741  1.4744  0.1274 -1.4399
13321TIP3    H261455   0.545   3.006  11.602 -0.4885  1.1109 -0.6328
13322TIP3   OH261456   3.144   4.182   2.506 -0.1429  0.5627  0.3088
13322TIP3    H161457   3.091   4.193   2.427 -0.0670  0.5450  0.2558
13322TIP3    H261458   3.109   4.103   2.548 -1.1477  1.3896  1.0500
13323TIP3   OH261459   3.624   2.857  15.337 -0.2031 -0.3606 -0.4706
13323TIP3    H161460   3.644   2.950  15.348 -0.6615 -0.3024 -0.1395
13323TIP3    H261461   3.617   2.824  15.426 -0.3650 -0.6457 -0.5903
13324TIP3   OH261462   2.903   6.624  12.405 -0.2914  0.1899  0.5911
13324TIP3    H161463   2.977   6.564  12.406 -0.0163  0.4358 -2.1179
13324TIP3    H261464   2.825   6.568  12.405 -0.0757 -0.1079  0.8842
13325TIP3   OH261465   0.447   0.054   4.878  0.0997  0.4695  0.0420
13325TIP3    H161466   0.496  -0.018   4.919 -0.6172  0.2901  0.5983
13325TIP3    H261467   0.431   0.025   4.789  0.1592  0.1090  0.1469
13326TIP3   OH261468   1.599   5.601   2.189  0.5064 -0.4211 -0.0912
13326TIP3    H161469   1.664   5.645   2.134  0.3272 -0.6581 -0.4983
13326TIP3    H261470   1.555   5.539   2.130 -2.9771  2.6671 -0.9711
13327TIP3   OH261471   3.169   5.550  12.549  0.2901  0.5163  0.4036
13327TIP3    H161472   3.230   5.479  12.568 -0.8895 -0.1917  1.5904
13327TIP3    H261473   3.223   5.629  12.549  1.4581 -0.2630 -0.0645
13328TIP3   OH261474   4.021   3.358  16.918  0.4370  0.2592 -0.0575
13328TIP3    H161475   4.020   3.338  16.825 -1.8392 -0.0642  0.0096
13328TIP3    H261476   3.985   3.280  16.960  0.4609  0.8056  0.9986
13329TIP3   OH261477   3.206   3.723   5.098 -0.0201 -0.3068 -0.5351
13329TIP3    H161478   3.182   3.662   5.028 -1.7945 -0.1904 -0.0486
13329TIP3    H261479   3.211   3.669   5.177 -0.7945  0.0291 -0.2509
13330TIP3   OH261480   2.778   5.073  14.797 -0.5112  0.5194 -0.6726
13330TIP3    H161481   2.858   5.050  14.845 -1.6769 -1.3310  0.4784
13330TIP3    H261482   2.719   5.107  14.864 -0.7846  1.6514 -1.4778
13331TIP3   OH261483   3.913   5.158  13.726 -0.0443  0.0672 -0.3175
13331TIP3    H161484   3.919   5.175  13.632  0.9326  0.4638 -0.1974
13331TIP3    H261485   4.004   5.157  13.756 -0.3530  0.1623  0.6574
13332TIP3   OH261486   3.400   1.947   5.838  0.4880 -0.2481  1.0795
13332TIP3    H161487   3.339   1.929   5.767  1.1211  3.0209 -0.3554
13332TIP3    H261488   3.433   1.860   5.862 -1.0648 -1.6062 -1.3921
13333TIP3   OH261489   3.867   2.926   1.228 -0.4759  0.4298  0.6798
13333TIP3    H161490   3.816   2.847   1.242  1.2976 -0.3790  2.8394
13333TIP3    H261491   3.957   2.901   1.248  0.3216  2.6375  0.0622
13334TIP3   OH261492   1.364   5.273  11.419 -0.4064  0.6363  0.7734
13334TIP3    H161493   1.459   5.280  11.411 -0.6424  1.7807 -1.3757
13334TIP3    H261494   1.350   5.204  11.484  1.8813  0.7198  1.3999
13335TIP3   OH261495   2.984   5.506  16.125 -0.3369 -0.0967  0.1506
13335TIP3    H161496   2.917   5.549  16.071  1.2700 -0.1018 -1.9289
13335TIP3    H261497   3.051   5.480  16.062  1.1061 -1.0637  2.0607
13336TIP3   OH261498   2.199   0.916   3.265 -0.2891  0.5432  0.6153
13336TIP3    H161499   2.285   0.897   3.228 -0.3269 -0.4198  1.0214
13336TIP3    H261500   2.137   0.885   3.200 -0.3552 -1.1165  1.4501
13337TIP3   OH261501   2.434   4.164   0.107 -0.1122 -0.3018  0.0184
13337TIP3    H161502   2.391   4.248   0.091 -0.8816 -0.4351  1.3371
13337TIP3    H261503   2.467   4.137   0.021 -0.2705  1.1197 -0.4964
13338TIP3   OH261504   5.971   0.874   0.291 -0.2065 -0.2814 -0.3874
13338TIP3    H161505   6.044   0.836   0.243  0.8379  0.6703  0.4286
13338TIP3    H261506   6.010   0.941   0.346 -1.4826 -0.8205  1.2391
13339TIP3   OH261507   5.576   3.343  16.379 -0.1989  0.3562 -0.1362
13339TIP3    H161508   5.603   3.401  16.308  1.2311 -2.2648 -1.7882
13339TIP3    H261509   5.484   3.324  16.361 -0.4752  1.4942  0.0236
13340TIP3   OH261510   3.545   5.468  11.393 -0.0731  0.1845 -0.1588
13340TIP3    H161511   3.506   5.556  11.391 -2.0238 -0.5913  1.5694
13340TIP3    H261512   3.493   5.417  11.332 -0.5308 -0.3773  0.6934
13341TIP3   OH261513   3.198   5.453  11.434 -0.1213 -0.5583  0.3019
13341TIP3    H161514   3.223   5.544  11.450 -2.2324 -0.1760  1.5701
13341TIP3    H261515   3.212   5.441  11.340 -0.3135  1.2402  0.0177
13342TIP3   OH261516   3.808   4.715   0.193  0.0216 -0.3215 -0.3892
13342TIP3    H161517   3.832   4.751   0.107  0.9580 -2.3069 -1.0086
13342TIP3    H261518   3.714   4.698   0.187  0.2295 -1.2277 -1.3563
13343TIP3   OH261519   1.375   4.633  15.650 -0.6276  0.5390  0.0010
13343TIP3    H161520   1.343   4.721  15.667 -1.2917  0.4405 -0.6502
13343TIP3    H261521   1.413   4.638  15.562 -0.2709  0.2810  0.1405
13344TIP3   OH261522   3.525   1.863   2.956  0.1340 -0.2842 -0.2328
13344TIP3    H161523   3.607   1.815   2.967 -0.6117 -1.6689 -0.5652
13344TIP3    H261524   3.480   1.854   3.040 -0.2453 -0.6456 -0.4691
13345TIP3   OH261525   4.141   2.940  14.520  0.1621  0.0380 -0.0436
13345TIP3    H161526   4.237   2.939  14.517  0.1626 -2.2893 -0.1186
13345TIP3    H261527   4.119   2.985  14.601  1.3440 -0.2052  0.4157
13346TIP3   OH261528   1.261   1.146  14.004 -0.5984  0.2251 -0.0909
13346TIP3    H161529   1.235   1.054  14.005  1.0683 -0.2699  0.0024
13346TIP3    H261530   1.322   1.153  13.931  0.3716  0.9364  0.7730
13347TIP3   OH261531   2.178   5.603   4.814  0.3846 -0.1278  0.4080
13347TIP3    H161532   2.250   5.595   4.876  1.6907  1.4496 -0.8706
13347TIP3    H261533   2.212   5.568   4.732 -0.2090  0.7875 -0.2488
13348TIP3   OH261534   4.848   5.879   5.905 -0.5333  0.0174  0.2376
13348TIP3    H161535   4.877   5.971   5.905 -0.7798  0.0951  0.0951
13348TIP3    H261536   4.926   5.830   5.932 -0.5031  0.3024  0.6907
13349TIP3   OH261537   5.091   0.136  13.290 -0.3198  0.3324  0.4497
13349TIP3    H161538   5.035   0.086  13.349 -1.1443  1.0729  0.3007
13349TIP3    H261539   5.179   0.100  13.304 -0.7155 -0.3633  1.1841
13350TIP3   OH261540   1.100   6.390  15.898 -0.2424  0.4795  0.5782
13350TIP3    H161541   1.075   6.299  15.916 -0.0912  0.4976  0.8857
13350TIP3    H261542   1.143   6.386  15.813  0.0982  0.2015  0.7603
13351TIP3   OH261543   5.672   3.898  13.252 -0.1961  0.0319 -0.1595
13351TIP3    H161544   5.679   3.807  13.283 -1.6806 -0.0025  0.0890
13351TIP3    H261545   5.622   3.892  13.171  1.9016  0.3558 -1.5063
13352TIP3   OH261546   6.777   3.217   5.248  0.0081 -0.2306 -0.4882
13352TIP3    H161547   6.867   3.193   5.227  0.6177 -0.8027  2.4689
13352TIP3    H261548   6.763   3.302   5.206  2.1937  0.2127 -0.3427
13353TIP3   OH261549   1.660   5.171   1.252 -0.5733  0.1306 -0.1506
13353TIP3    H161550   1.572   5.209   1.245 -1.3364 -1.2649  1.6305
13353TIP3    H261551   1.655   5.090   1.201 -0.7377 -0.6399  1.0665
13354TIP3   OH261552   0.028   5.968  14.525  0.7410  0.3466  0.2618
13354TIP3    H161553   0.011   5.947  14.617  1.9538 -1.0653  0.1698
13354TIP3    H261554  -0.051   6.014  14.497 -0.0793 -0.1242  1.7247
13355TIP3   OH261555   0.184   1.966  13.847 -0.2175  0.9403 -0.0615
13355TIP3    H161556   0.094   1.986  13.870 -0.0859 -0.0454  1.3636
13355TIP3    H261557   0.178   1.921  13.762 -1.2153 -0.5954  0.7990
13356TIP3   OH261558   1.598   0.778   3.857 -0.3681 -0.3205 -0.1841
13356TIP3    H161559   1.557   0.840   3.917 -1.0629 -1.2609  0.3361
13356TIP3    H261560   1.639   0.713   3.915  2.1919  0.8110 -0.6949
13357TIP3   OH261561   6.280   3.761   5.302 -0.2341  0.0850  0.3958
13357TIP3    H161562   6.288   3.847   5.344  0.8343 -0.8117  2.0800
13357TIP3    H261563   6.234   3.707   5.367  1.3537 -1.3046  0.3817
13358TIP3   OH261564   1.619   2.991   5.557  0.0627 -0.0881 -0.0104
13358TIP3    H161565   1.690   3.050   5.532  0.0878 -0.5897 -1.1683
13358TIP3    H261566   1.646   2.956   5.641  0.8207  0.3124 -0.0772
13359TIP3   OH261567   1.988   6.367  16.199  0.5660 -0.1970  0.4286
13359TIP3    H161568   1.963   6.330  16.113  0.2435 -0.5169  0.6549
13359TIP3    H261569   2.004   6.459  16.181 -1.9872  0.2938  0.4993
13360TIP3   OH261570   1.177   1.349  14.855  0.3181  0.6166 -0.0412
13360TIP3    H161571   1.169   1.294  14.778  2.0669 -2.1185  1.6410
13360TIP3    H261572   1.100   1.405  14.853 -1.2659 -1.5600 -2.0810
13361TIP3   OH261573   0.621   6.108   3.772  0.6195  0.6030  0.3879
13361TIP3    H161574   0.694   6.169   3.780 -0.0271  1.1923  1.9080
13361TIP3    H261575   0.548   6.152   3.815 -0.7111  0.1438 -1.3644
13362TIP3   OH261576   5.277   2.730   5.328 -0.3910 -0.2634  0.0661
13362TIP3    H161577   5.288   2.636   5.312 -0.7263 -0.3946  0.6199
13362TIP3    H261578   5.355   2.770   5.288  1.1701 -1.0124  2.2910
13363TIP3   OH261579   0.137   2.656  16.139  0.2394 -0.3285 -0.1193
13363TIP3    H161580   0.185   2.577  16.164  0.1236 -0.4541 -0.2894
13363TIP3    H261581   0.063   2.659  16.199  1.9905  1.4238  2.0574
13364TIP3   OH261582   5.989   1.537   1.344  0.3913  0.0880  0.2663
13364TIP3    H161583   5.905   1.502   1.313  0.7525 -0.8987  0.3993
13364TIP3    H261584   6.052   1.514   1.275  1.0148 -1.2788  1.2865
13365TIP3   OH261585   1.537   5.311  14.713  0.2648 -1.4034 -0.4192
13365TIP3    H161586   1.543   5.361  14.795 -3.7975 -1.9844  0.3660
13365TIP3    H261587   1.551   5.220  14.740 -0.8797 -1.5732 -0.3482
13366TIP3   OH261588   4.410   0.944   4.952 -0.3954 -0.4460  0.1105
13366TIP3    H161589   4.399   0.853   4.923 -2.1020 -0.0622 -0.5080
13366TIP3    H261590   4.323   0.971   4.981  0.2018  0.8476  0.7562
13367TIP3   OH261591   1.673   1.011  13.895 -0.7047 -0.4770  0.2638
13367TIP3    H161592   1.598   0.952  13.897 -0.9084 -0.2224  0.1363
13367TIP3    H261593   1.713   0.996  13.809 -2.3597  1.5595 -0.9162
13368TIP3   OH261594   3.088   5.886   2.793  0.0381  0.5386 -0.1918
13368TIP3    H161595   3.175   5.860   2.823 -0.6772 -0.8052  0.7585
13368TIP3    H261596   3.089   5.982   2.797  1.1719  0.5052  0.6700
13369TIP3   OH261597   6.232   4.668   1.400  0.3324 -0.0499  0.1894
13369TIP3    H161598   6.178   4.600   1.359  0.1687 -0.3497  0.8858
13369TIP3    H261599   6.300   4.620   1.447  0.6496  0.2929  0.0776
13370TIP3   OH261600   1.654   6.155   2.938  0.0524 -0.5317  0.0619
13370TIP3    H161601   1.582   6.218   2.934 -0.1034 -0.4536  3.2837
13370TIP3    H261602   1.680   6.143   2.846 -2.9377  0.6992 -1.0102
13371TIP3   OH261603   0.280   6.552   2.049  0.6761 -0.1170  0.3421
13371TIP3    H161604   0.242   6.556   1.962  1.2271  0.2085  0.1150
13371TIP3    H261605   0.270   6.641   2.084 -1.4388 -0.7317  1.4306
13372TIP3   OH261606   6.566   3.423  15.090 -0.4277 -0.0164 -0.2317
13372TIP3    H161607   6.613   3.424  15.006  1.1306 -1.7052  0.5825
13372TIP3    H261608   6.632   3.448  15.155 -0.6002 -2.4276  0.9209
13373TIP3   OH261609   2.951   2.526  12.483 -0.0681 -0.1809  0.1704
13373TIP3    H161610   2.893   2.451  12.471  0.3114 -0.3453 -0.7014
13373TIP3    H261611   3.037   2.495  12.453  0.2255  0.4038  0.3981
13374TIP3   OH261612   5.482   0.156   1.564 -0.1197 -0.2320  0.3701
13374TIP3    H161613   5.469   0.062   1.581 -0.5435 -0.2875 -0.2188
13374TIP3    H261614   5.393   0.191   1.557  0.0315  0.4145  1.6458
13375TIP3   OH261615   3.480   1.000   0.611 -0.0226 -0.4764  0.3433
13375TIP3    H161616   3.480   1.056   0.689 -0.3867  1.3214 -0.9096
13375TIP3    H261617   3.388   0.974   0.601 -0.0763 -0.2512  0.2252
13376TIP3   OH261618   3.662   6.699   0.180  0.0108  0.0465 -0.0024
13376TIP3    H161619   3.629   6.617   0.215 -0.8932 -0.2822 -1.5566
13376TIP3    H261620   3.585   6.755   0.172  0.2520  0.2583 -1.0103
13377TIP3   OH261621   1.572   2.154  10.935  0.3370  0.0565 -0.0621
13377TIP3    H161622   1.524   2.071  10.937 -0.4632  0.5187  0.1953
13377TIP3    H261623   1.635   2.147  11.006 -0.2340 -0.0397  0.4391
13378TIP3   OH261624   4.207   1.763  13.886 -0.0432 -0.0145  0.0400
13378TIP3    H161625   4.300   1.779  13.904  0.2312 -0.7679 -0.6424
13378TIP3    H261626   4.200   1.667  13.879 -1.6703 -0.2923  4.2155
13379TIP3   OH261627   6.242   4.322   4.096 -0.2038  0.0666  0.0523
13379TIP3    H161628   6.333   4.333   4.070  0.0180  1.4254  1.3746
13379TIP3    H261629   6.195   4.312   4.013  1.0097  0.3816 -0.6866
13380TIP3   OH261630   1.005   4.149  12.344 -0.5797  0.6195 -0.0721
13380TIP3    H161631   1.044   4.174  12.428  0.6162 -2.0135  0.1919
13380TIP3    H261632   0.948   4.076  12.364 -3.1991  2.3377 -1.0164
13381TIP3   OH261633   3.418   2.446  14.592  0.5118  0.0285 -0.6057
13381TIP3    H161634   3.432   2.387  14.518 -2.8278 -1.2756 -0.2536
13381TIP3    H261635   3.505   2.484  14.608  1.8298 -1.5230 -3.5634
13382TIP3   OH261636   6.162   0.904  13.148 -0.1716 -0.1389  0.9410
13382TIP3    H161637   6.193   0.990  13.177 -2.2103  0.5150  1.2614
13382TIP3    H261638   6.157   0.911  13.053 -2.5618  0.8878  1.1287
13383TIP3   OH261639   4.334   4.987  12.248  0.7751  0.2091  0.0156
13383TIP3    H161640   4.321   4.911  12.191  1.4374  1.3153 -1.6265
13383TIP3    H261641   4.406   4.960  12.306  0.6197 -0.6226 -0.1677
13384TIP3   OH261642   2.734   2.455  10.554 -0.7505  0.1699 -0.1388
13384TIP3    H161643   2.820   2.467  10.513 -0.2384  1.0582  1.1781
13384TIP3    H261644   2.684   2.404  10.490  0.2665  0.9330 -1.5572
13385TIP3   OH261645   6.071   1.749   4.409  0.3405 -0.3628 -0.0541
13385TIP3    H161646   6.099   1.683   4.346 -0.2812 -0.8404  0.1627
13385TIP3    H261647   6.055   1.700   4.489 -0.2844  0.0321  0.0609
13386TIP3   OH261648   1.454   6.786  15.884  0.1049 -0.8189  0.1907
13386TIP3    H161649   1.396   6.737  15.826  1.7499 -1.1670 -1.2179
13386TIP3    H261650   1.464   6.729  15.960 -0.3584 -1.3524 -0.1369
13387TIP3   OH261651   0.095   0.878  15.696 -1.0204  0.0329 -0.3056
13387TIP3    H161652   0.163   0.931  15.737 -0.6947 -2.0564  1.9539
13387TIP3    H261653   0.141   0.803  15.659 -1.6934  0.3599 -1.8685
13388TIP3   OH261654   3.652   1.479   5.537  0.4466  0.0385  0.0343
13388TIP3    H161655   3.721   1.536   5.504  1.0000  1.8546  4.0700
13388TIP3    H261656   3.571   1.525   5.517  0.5762 -0.4127 -1.5729
13389TIP3   OH261657   5.696   1.335  17.218  0.0648 -0.0976 -0.5438
13389TIP3    H161658   5.605   1.350  17.239  0.3080 -0.0989  0.5098
13389TIP3    H261659   5.698   1.327  17.122 -0.9883  0.1586 -0.5814
13390TIP3   OH261660   0.064   3.780  10.879 -0.3134  0.3322  0.2046
13390TIP3    H161661   0.073   3.874  10.893 -0.0898  0.2210  0.7933
13390TIP3    H261662   0.150   3.751  10.849 -0.3538  0.2972  0.1224
13391TIP3   OH261663   5.108   1.575  12.751 -0.7459 -0.0289 -0.1752
13391TIP3    H161664   5.042   1.598  12.816 -1.5024  1.9551 -1.6043
13391TIP3    H261665   5.063   1.515  12.691 -0.2055 -1.4260  0.7805
13392TIP3   OH261666   0.627   5.466   1.636 -0.4844  0.1881 -0.3446
13392TIP3    H161667   0.712   5.509   1.620 -2.4279  3.3321 -2.9893
13392TIP3    H261668   0.594   5.507   1.716 -0.7032  0.9673 -0.8302
13393TIP3   OH261669   2.875   2.859  16.927 -0.2370 -0.0246 -0.0502
13393TIP3    H161670   2.810   2.929  16.924  0.2836  0.3801 -2.6061
13393TIP3    H261671   2.942   2.891  16.987 -0.1487  1.5611 -0.9647
13394TIP3   OH261672   4.458   3.664  15.488  0.0232  0.5822 -0.7286
13394TIP3    H161673   4.528   3.656  15.423 -0.1896  0.2123 -0.9173
13394TIP3    H261674   4.378   3.650  15.437 -0.1368  0.1468 -0.3568
13395TIP3   OH261675   4.452   0.893  13.602  0.0886  0.0534 -0.3108
13395TIP3    H161676   4.513   0.834  13.646  0.3683  0.5871  0.0195
13395TIP3    H261677   4.489   0.981  13.615 -0.1552  0.2770 -1.0677
13396TIP3   OH261678   1.829   3.813  11.079 -0.0530 -0.3005 -0.4514
13396TIP3    H161679   1.808   3.769  10.996 -1.5459  1.4289 -1.0256
13396TIP3    H261680   1.922   3.794  11.093 -0.0575 -1.5416 -1.9573
13397TIP3   OH261681   1.345   3.015  13.717  0.8882 -0.3375  0.0856
13397TIP3    H161682   1.392   2.981  13.641 -1.0745 -1.2837 -0.7200
13397TIP3    H261683   1.253   3.015  13.691  0.4319  1.7664  1.5337
13398TIP3   OH261684   3.356   1.428  17.216  0.3853  0.2820  0.4372
13398TIP3    H161685   3.400   1.509  17.239 -1.0117  1.2153 -0.0633
13398TIP3    H261686   3.309   1.403  17.296  1.5322 -0.5378  0.8722
13399TIP3   OH261687   3.673   2.065   5.729  0.1186 -0.4082 -0.7014
13399TIP3    H161688   3.582   2.079   5.703  0.5788  2.9816 -0.7579
13399TIP3    H261689   3.669   2.038   5.821 -0.8666  2.4322  0.1298
13400TIP3   OH261690   6.786   1.027   1.397  0.2491  0.0338  0.1291
13400TIP3    H161691   6.758   0.990   1.314  0.2971 -0.3265  0.2701
13400TIP3    H261692   6.714   1.009   1.457  0.4438 -0.1935  0.2970
13401TIP3   OH261693   6.423   1.624   2.269  0.0874  0.2276  0.0351
13401TIP3    H161694   6.415   1.681   2.192  2.0459  2.0987  1.1528
13401TIP3    H261695   6.365   1.664   2.334  1.3217  0.9008  0.7567
13402TIP3   OH261696   6.452   6.694   1.809 -0.0801 -0.3807  0.5270
13402TIP3    H161697   6.534   6.660   1.772 -0.1369 -0.0586  0.0942
13402TIP3    H261698   6.417   6.750   1.740  0.3011  1.0274  1.4397
13403TIP3   OH261699   0.522   3.743  14.061  0.3338 -0.7134 -0.3529
13403TIP3    H161700   0.573   3.738  13.979  0.2833  0.8274 -0.4971
13403TIP3    H261701   0.506   3.652  14.084  0.5196 -1.1830 -1.9626
13404TIP3   OH261702   2.746   5.126   4.592 -0.1819 -0.1532  0.1017
13404TIP3    H161703   2.831   5.169   4.598 -0.1197 -0.2654  0.0475
13404TIP3    H261704   2.682   5.193   4.617 -0.2720  0.6192 -2.1059
13405TIP3   OH261705   1.141   2.311  14.085 -0.2456 -0.0050  0.1792
13405TIP3    H161706   1.080   2.289  14.015  0.4866 -1.6203  0.0123
13405TIP3    H261707   1.228   2.299  14.046  0.1837  0.9288  0.8095
13406TIP3   OH261708   4.801   5.810   0.942  0.2003 -0.1462  0.3892
13406TIP3    H161709   4.892   5.784   0.959  0.6780  2.4587  2.0180
13406TIP3    H261710   4.806   5.904   0.927 -2.4641  0.3159  2.2418
13407TIP3   OH261711   4.146   5.201   1.411 -0.2137  0.3101  0.2748
13407TIP3    H161712   4.141   5.142   1.336  3.7966 -2.1640  1.7785
13407TIP3    H261713   4.213   5.265   1.388  1.1581 -0.5660  1.7875
13408TIP3   OH261714   5.348   3.390  12.939 -0.7371  0.1062 -1.4128
13408TIP3    H161715   5.291   3.444  12.993  0.5813  0.3055 -0.1732
13408TIP3    H261716   5.400   3.340  13.003  1.5922  1.1155 -2.4582
13409TIP3   OH261717   0.032   6.225   0.160  0.0890 -0.0775  0.1324
13409TIP3    H161718   0.104   6.162   0.172 -0.9859 -1.2832  0.4095
13409TIP3    H261719   0.046   6.262   0.074  0.5537 -0.9649 -0.1773
13410TIP3   OH261720   1.176   1.409   2.899 -0.3176 -0.4624 -0.0095
13410TIP3    H161721   1.178   1.502   2.923 -1.2716  0.1393 -2.0584
13410TIP3    H261722   1.143   1.365   2.977 -0.9563  1.0777  0.6266
13411TIP3   OH261723   2.731   6.429   0.369  0.3185  0.2883  0.5339
13411TIP3    H161724   2.762   6.518   0.357  1.0922  0.0957  1.1288
13411TIP3    H261725   2.775   6.378   0.301 -0.9010  0.5387 -0.4586
13412TIP3   OH261726   1.674   6.464  13.859  0.3339  0.6389  0.1333
13412TIP3    H161727   1.701   6.552  13.886 -0.7201  0.8139  0.6447
13412TIP3    H261728   1.583   6.457  13.889  0.1744 -0.3493 -0.5645
13413TIP3   OH261729   3.111   2.034   1.852  0.1161 -0.6298  0.3743
13413TIP3    H161730   3.133   2.016   1.760  1.9247 -0.8823  0.8365
13413TIP3    H261731   3.185   2.086   1.884 -0.7106 -0.1937  1.5767
13414TIP3   OH261732   4.432   0.203  13.583 -0.5397 -0.3063 -0.0841
13414TIP3    H161733   4.353   0.255  13.567 -1.1932 -1.7993 -1.8693
13414TIP3    H261734   4.497   0.239  13.522 -0.6023 -0.7484 -0.4096
13415TIP3   OH261735   6.458   1.772  12.141  0.0380 -0.0599 -0.6614
13415TIP3    H161736   6.442   1.733  12.055 -1.2623  1.9949 -1.3696
13415TIP3    H261737   6.440   1.865  12.130 -1.9877 -0.0251  2.2881
13416TIP3   OH261738   4.525   5.107  11.181  0.3903 -0.2389 -0.9773
13416TIP3    H161739   4.505   5.044  11.250 -2.0422  1.2810 -0.2585
13416TIP3    H261740   4.521   5.056  11.100 -1.2382 -1.1094 -0.3704
13417TIP3   OH261741   2.646   4.611   1.467 -0.4891  0.0186 -0.4320
13417TIP3    H161742   2.552   4.621   1.482 -0.2948 -0.9449  1.5847
13417TIP3    H261743   2.687   4.677   1.524  0.1527 -1.3978  0.7677
13418TIP3   OH261744   0.130   5.301   2.643  0.1332 -0.0913 -0.0133
13418TIP3    H161745   0.092   5.365   2.703  0.7851 -0.6845  1.0567
13418TIP3    H261746   0.056   5.246   2.616 -0.1522  0.1400  0.2912
13419TIP3   OH261747   2.070   5.133   2.707  0.0411 -0.0750  0.4568
13419TIP3    H161748   1.998   5.105   2.651  1.3588 -1.2983 -0.6736
13419TIP3    H261749   2.053   5.226   2.724 -1.2225 -0.0881 -0.6646
13420TIP3   OH261750   4.759   2.380   4.452  0.3881  0.3411  1.1438
13420TIP3    H161751   4.820   2.307   4.446 -0.9388 -0.7046 -0.1734
13420TIP3    H261752   4.810   2.457   4.427  1.3160 -0.4365  0.6236
13421TIP3   OH261753   4.837   0.507   4.083 -0.0207  0.2405 -0.3649
13421TIP3    H161754   4.907   0.538   4.026 -0.3456  1.8210  0.0828
13421TIP3    H261755   4.881   0.474   4.161  0.2392  1.1802 -0.1094
13422TIP3   OH261756   6.386   4.648   5.057 -0.0593  0.0701 -0.3568
13422TIP3    H161757   6.391   4.740   5.083  1.7031  0.4401 -1.9460
13422TIP3    H261758   6.441   4.602   5.121  0.1216  0.2936 -0.3500
13423TIP3   OH261759   3.837   3.593  14.915  1.0154 -0.0860  0.1960
13423TIP3    H161760   3.864   3.611  15.005  1.2455  0.3314  0.0429
13423TIP3    H261761   3.865   3.503  14.899  1.9762  0.2159  0.1640
13424TIP3   OH261762   6.339   2.558   4.332  0.0831 -0.0553  0.2475
13424TIP3    H161763   6.316   2.512   4.251 -1.3837 -0.5774  0.9356
13424TIP3    H261764   6.259   2.556   4.384  0.5887  1.5284  1.1305
13425TIP3   OH261765   1.205   1.713   3.235 -0.4348  0.9970  0.2285
13425TIP3    H161766   1.206   1.680   3.325 -0.5005  0.9043  0.1950
13425TIP3    H261767   1.290   1.754   3.223  1.0404 -2.2985 -0.9297
13426TIP3   OH261768   6.721   4.699   4.709 -0.0553  0.1435  0.0069
13426TIP3    H161769   6.771   4.657   4.779  1.1205  2.1306  0.4034
13426TIP3    H261770   6.630   4.673   4.725  0.4451 -0.8988  1.1978
13427TIP3   OH261771   2.863   3.124  13.312  0.0627 -0.3393 -0.2712
13427TIP3    H161772   2.924   3.051  13.303  0.4380 -0.2462  1.4041
13427TIP3    H261773   2.816   3.107  13.393  1.7247  2.4011  1.3689
13428TIP3   OH261774   1.540   4.122  15.157 -0.2432  0.0197  0.2906
13428TIP3    H161775   1.572   4.051  15.101 -0.2686 -0.1562  0.4959
13428TIP3    H261776   1.580   4.104  15.243 -3.1937 -1.8437  1.3227
13429TIP3   OH261777   5.547   2.530  13.259 -0.1343 -0.1063  0.3762
13429TIP3    H161778   5.457   2.516  13.289 -0.4551  0.8487 -0.1254
13429TIP3    H261779   5.542   2.606  13.202  0.9615 -0.1822  0.1612
13430TIP3   OH261780   2.697   1.729   1.528  0.1231  0.1050 -0.2148
13430TIP3    H161781   2.738   1.691   1.450  1.0929 -1.5897  1.0576
13430TIP3    H261782   2.672   1.653   1.580 -1.1715  1.2065  0.7872
13431TIP3   OH261783   2.087   5.593  15.771 -0.3641  0.0807  0.0552
13431TIP3    H161784   2.070   5.503  15.744 -1.2218  0.8765 -2.1440
13431TIP3    H261785   2.174   5.614  15.737 -0.3400  0.2253  0.2003
13432TIP3   OH261786   4.575   5.503   6.002 -0.4945  0.3841 -0.3582
13432TIP3    H161787   4.639   5.496   6.073 -0.1116 -3.4688 -0.9816
13432TIP3    H261788   4.514   5.431   6.017 -2.5147  1.7085 -1.9274
13433TIP3   OH261789   2.307   0.449   4.663  0.3021  0.0279  0.3164
13433TIP3    H161790   2.328   0.373   4.717  0.3500 -0.6231 -0.6220
13433TIP3    H261791   2.231   0.423   4.611  2.2002 -0.5102 -2.2876
13434TIP3   OH261792   1.467   1.161   5.617  0.2126  0.4414  0.1017
13434TIP3    H161793   1.386   1.118   5.645  0.5700  0.0624  0.5575
13434TIP3    H261794   1.522   1.090   5.584  0.0235  0.8119 -1.0233
13435TIP3   OH261795   3.750   3.719   0.028  0.6384  0.1752  0.7391
13435TIP3    H161796   3.720   3.775   0.099  1.4207 -0.1325  1.3168
13435TIP3    H261797   3.673   3.668   0.003  0.6578 -0.5748  2.1742
13436TIP3   OH261798   5.377   6.061   1.351  0.4413 -0.5719  0.5419
13436TIP3    H161799   5.469   6.042   1.372  0.9622  0.7873 -0.5168
13436TIP3    H261800   5.328   6.010   1.416  1.8752 -3.0028 -0.1941
13437TIP3   OH261801   6.790   4.458  11.686 -0.3675 -0.6826  0.1259
13437TIP3    H161802   6.762   4.370  11.661  0.3026 -1.0272  0.5495
13437TIP3    H261803   6.877   4.445  11.724  0.0724  0.2730 -0.5345
13438TIP3   OH261804   0.423   0.216   0.070  0.1640  0.1916  0.0724
13438TIP3    H161805   0.432   0.166   0.152 -0.5870 -1.3570 -0.7803
13438TIP3    H261806   0.403   0.151   0.004  1.1176  1.3955 -1.4366
13439TIP3   OH261807   0.593   2.824   2.479  0.2912  0.7016 -0.5182
13439TIP3    H161808   0.610   2.754   2.416  0.6784  0.7430 -0.4648
13439TIP3    H261809   0.529   2.880   2.436  1.2240  1.2229 -1.2638
13440TIP3   OH261810   5.396   1.741   3.815  0.2835  0.3611 -0.3169
13440TIP3    H161811   5.455   1.746   3.890 -0.4788  0.4070  0.2845
13440TIP3    H261812   5.451   1.761   3.739  1.3631 -1.0071  0.0782
13441TIP3   OH261813   4.750   6.113  16.902  0.0419  0.4322  0.7035
13441TIP3    H161814   4.713   6.038  16.949 -2.0129  1.0322  0.0831
13441TIP3    H261815   4.698   6.187  16.931  1.0515  1.3785  0.1185
13442TIP3   OH261816   3.274   0.385  10.573  0.2011  0.9269 -0.2113
13442TIP3    H161817   3.290   0.401  10.480  0.2903  0.1132 -0.3458
13442TIP3    H261818   3.182   0.407  10.585  0.0394  0.5017 -0.6238
13443TIP3   OH261819   6.331   2.645   4.976  0.1900  0.3238 -0.2294
13443TIP3    H161820   6.275   2.641   5.053 -0.4626 -3.0971 -0.8227
13443TIP3    H261821   6.395   2.575   4.989 -0.9729 -1.4588 -3.5699
13444TIP3   OH261822   4.750   5.467  15.181 -0.5341 -0.1981 -0.8798
13444TIP3    H161823   4.768   5.379  15.212 -1.9130 -0.3824 -0.5814
13444TIP3    H261824   4.763   5.523  15.258 -0.4771 -0.2446 -0.8571
13445TIP3   OH261825   3.908   6.169  14.195 -0.2261 -0.8640  0.3984
13445TIP3    H161826   3.821   6.158  14.235  0.1976  0.9065  1.8982
13445TIP3    H261827   3.914   6.263  14.177  0.9839 -1.1319 -0.6282
13446TIP3   OH261828   6.813   3.129   4.649 -0.2165  0.3019  0.4411
13446TIP3    H161829   6.842   3.178   4.572 -1.2007  1.5754  0.8586
13446TIP3    H261830   6.864   3.165   4.721  0.5222 -0.7120  0.4164
13447TIP3   OH261831   3.631   0.052  15.907 -0.0859 -0.0565 -0.1805
13447TIP3    H161832   3.707   0.003  15.939  0.8150  2.6176  1.9622
13447TIP3    H261833   3.656   0.079  15.818  1.6548  1.0172  0.5862
13448TIP3   OH261834   2.725   2.672   2.909 -0.3583 -0.3874 -0.0707
13448TIP3    H161835   2.689   2.584   2.902  1.2041 -1.1394  1.1051
13448TIP3    H261836   2.705   2.713   2.825 -2.6873 -1.2392  0.0260
13449TIP3   OH261837   0.848   6.208   1.356 -0.1825  0.2732 -0.0214
13449TIP3    H161838   0.845   6.289   1.305 -0.3782  1.7693  2.2849
13449TIP3    H261839   0.814   6.233   1.442  0.9934 -1.9597  1.1253
13450TIP3   OH261840   2.149   6.046  13.893  0.3837  0.6294  0.1443
13450TIP3    H161841   2.058   6.074  13.900  0.8081  1.7291  1.5847
13450TIP3    H261842   2.145   5.959  13.855 -1.3296  0.2567  1.1464
13451TIP3   OH261843   3.683   2.774   2.733 -0.0858 -0.2903  0.0845
13451TIP3    H161844   3.666   2.834   2.806 -1.8657  1.1101 -1.4460
13451TIP3    H261845   3.631   2.696   2.753  1.4691 -1.0035  1.5773
13452TIP3   OH261846   0.843   4.030  15.564 -0.7654 -0.3396  0.5093
13452TIP3    H161847   0.800   3.953  15.527 -0.9325 -0.5506  1.1256
13452TIP3    H261848   0.779   4.065  15.626 -0.9661  0.6991 -0.2639
13453TIP3   OH261849   2.901   0.854   1.099  0.0767  0.3229 -0.6593
13453TIP3    H161850   2.917   0.946   1.077  2.1858  0.3225  0.7148
13453TIP3    H261851   2.929   0.806   1.022  0.3136  0.7409 -0.8367
13454TIP3   OH261852   4.032   0.307   3.364  0.4330  0.1392  0.4460
13454TIP3    H161853   4.007   0.221   3.331 -0.4881 -0.2841  2.1918
13454TIP3    H261854   4.014   0.303   3.458  1.8455  1.7151  0.8122
13455TIP3   OH261855   0.140   0.254  14.440  0.5066 -0.3508 -0.3140
13455TIP3    H161856   0.094   0.307  14.505 -1.4972  0.1059 -2.0521
13455TIP3    H261857   0.175   0.318  14.379  2.2320 -0.7902  0.1889
13456TIP3   OH261858   4.242   3.960  15.985 -0.4311 -0.0817 -0.1092
13456TIP3    H161859   4.325   3.914  15.993  0.7381  1.8567 -0.8177
13456TIP3    H261860   4.181   3.894  15.951  1.7465 -0.5743 -3.2732
13457TIP3   OH261861   4.332   6.454   3.423  0.0969  0.0552  0.1879
13457TIP3    H161862   4.259   6.503   3.459 -1.2319 -3.1421  2.0989
13457TIP3    H261863   4.387   6.433   3.498  0.6121 -1.3895 -0.5574
13458TIP3   OH261864   0.021   6.054  12.004  0.4116 -0.4391  0.2078
13458TIP3    H161865  -0.011   5.965  11.985 -1.7960  0.6715 -1.4520
13458TIP3    H261866   0.071   6.079  11.927 -0.0933  0.2482  0.0950
13459TIP3   OH261867   5.387   1.306   0.041 -0.0623 -0.0521 -0.3149
13459TIP3    H161868   5.413   1.383   0.093 -0.9628  0.8419 -1.1853
13459TIP3    H261869   5.341   1.342  -0.034  0.4260 -1.4048 -1.2724
13460TIP3   OH261870   5.564   1.902   4.046  0.1343 -0.2249 -0.1949
13460TIP3    H161871   5.597   1.988   4.070 -2.1951  1.2616 -2.0169
13460TIP3    H261872   5.515   1.872   4.123 -0.8456  1.0563 -0.3066
13461TIP3   OH261873   2.349   5.816   1.824 -0.6827  0.1029  0.1521
13461TIP3    H161874   2.352   5.724   1.850  0.2299  0.3416  0.9185
13461TIP3    H261875   2.411   5.860   1.883 -2.6706  1.5551  1.1998
13462TIP3   OH261876   1.016   0.128   6.235  0.3586  0.5956  0.0345
13462TIP3    H161877   1.096   0.111   6.186  0.8504 -2.5713  1.8142
13462TIP3    H261878   0.945   0.105   6.175  0.8717  0.0420 -0.3630
13463TIP3   OH261879   4.925   3.949  16.439  0.0244  0.3505 -0.0476
13463TIP3    H161880   4.870   3.891  16.492 -2.4008  0.8824 -1.8749
13463TIP3    H261881   4.933   4.029  16.491  1.3470 -0.7011  1.4125
13464TIP3   OH261882   5.708   6.241   4.727  0.0805 -0.1839 -0.2965
13464TIP3    H161883   5.709   6.282   4.814 -0.1555 -1.2679  0.2232
13464TIP3    H261884   5.772   6.171   4.733 -0.3364 -0.6130 -0.8171
13465TIP3   OH261885   4.631   3.239  11.356 -0.0399 -0.0381  0.4925
13465TIP3    H161886   4.584   3.315  11.320  0.3439 -0.6177 -1.2857
13465TIP3    H261887   4.641   3.258  11.449  0.7128  2.4408 -0.0719
13466TIP3   OH261888   3.108   3.658  15.416  0.0642  0.5268 -0.2764
13466TIP3    H161889   3.170   3.637  15.346  0.7228 -1.0999  0.7746
13466TIP3    H261890   3.086   3.750  15.401  2.6804  1.1349 -0.7189
13467TIP3   OH261891   5.606   3.100  15.079  0.1719 -0.2089  0.5147
13467TIP3    H161892   5.597   3.086  15.174 -2.0918  0.1316  0.3697
13467TIP3    H261893   5.602   3.195  15.069 -1.3029 -0.3248 -0.0696
13468TIP3   OH261894   4.168   5.365   3.411 -0.9802 -0.0649 -0.1869
13468TIP3    H161895   4.243   5.421   3.432 -0.5374 -0.2224 -1.3002
13468TIP3    H261896   4.102   5.424   3.377 -0.0699 -0.3355 -2.5164
13469TIP3   OH261897   3.410   3.257  12.483 -0.4937 -0.1541  0.4030
13469TIP3    H161898   3.370   3.247  12.569 -2.2753 -2.4177 -0.6314
13469TIP3    H261899   3.344   3.224  12.422  0.3294  2.3446 -1.9281
13470TIP3   OH261900   5.423   5.259   3.347  0.3624  0.1834  0.0573
13470TIP3    H161901   5.433   5.322   3.418 -3.1461  1.5747 -0.5865
13470TIP3    H261902   5.429   5.311   3.267  0.1800 -0.7125 -0.5579
13471TIP3   OH261903   2.464   0.189   5.130 -0.0642  0.1168  0.7827
13471TIP3    H161904   2.509   0.106   5.121 -1.8034 -0.5651 -2.2822
13471TIP3    H261905   2.526   0.246   5.176  2.4709 -1.8244 -0.1693
13472TIP3   OH261906   0.420   3.863   5.688 -0.3086  0.2044  0.7764
13472TIP3    H161907   0.460   3.936   5.735  1.4464 -0.3523  0.2097
13472TIP3    H261908   0.493   3.822   5.641 -1.8409  0.1862 -1.6752
13473TIP3   OH261909   3.405   6.273  10.632 -0.1809 -0.5074 -0.6141
13473TIP3    H161910   3.492   6.306  10.654  0.3933 -1.6793 -1.1091
13473TIP3    H261911   3.392   6.300  10.541 -0.1027 -0.8246 -0.7188
13474TIP3   OH261912   4.630   2.592  16.608  0.7845 -0.0750  0.4732
13474TIP3    H161913   4.604   2.607  16.517  0.5857  2.0037  0.8631
13474TIP3    H261914   4.665   2.676  16.638 -0.6757 -0.2582  2.8287
13475TIP3   OH261915   0.647   3.355   0.117  0.1857 -0.3214  0.1723
13475TIP3    H161916   0.646   3.449   0.097 -0.6425 -0.2530  0.5232
13475TIP3    H261917   0.556   3.328   0.107  0.5488 -1.2600 -0.7102
13476TIP3   OH261918   5.599   5.437   0.489 -0.0989  0.7986 -0.2055
13476TIP3    H161919   5.536   5.384   0.538 -1.1237 -0.1644 -2.4986
13476TIP3    H261920   5.676   5.442   0.547 -1.0803 -0.7025  1.2859
13477TIP3   OH261921   4.001   2.206   4.201 -0.0262 -0.3160  0.3929
13477TIP3    H161922   4.088   2.170   4.185 -0.0720  0.1327 -0.9689
13477TIP3    H261923   3.980   2.180   4.291  1.1293 -1.1951  0.4218
13478TIP3   OH261924   5.724   4.947  14.506 -0.1366  0.1594  0.2188
13478TIP3    H161925   5.695   4.991  14.426  1.0593 -1.0233 -0.8662
13478TIP3    H261926   5.733   5.018  14.570 -3.1891  0.8668 -0.0358
13479TIP3   OH261927   6.180   6.025  14.875  0.0331 -0.2025 -0.2699
13479TIP3    H161928   6.246   5.962  14.848  1.2500  1.2844 -0.8709
13479TIP3    H261929   6.230   6.104  14.896 -1.4659  0.6139  0.2998
13480TIP3   OH261930   5.295   3.297   4.216  0.0791  0.1998 -0.4207
13480TIP3    H161931   5.361   3.266   4.278  1.3931  2.3874 -0.6405
13480TIP3    H261932   5.336   3.285   4.130 -1.0017 -1.1223 -0.7662
13481TIP3   OH261933   3.699   5.466   3.570 -0.2052  0.1581 -0.2574
13481TIP3    H161934   3.708   5.535   3.504  0.7160 -0.1709 -0.4872
13481TIP3    H261935   3.674   5.512   3.650 -2.3430  0.4531 -1.0677
13482TIP3   OH261936   5.279   5.282  12.955  0.0000  0.2808  0.4334
13482TIP3    H161937   5.271   5.350  12.889 -2.1042 -0.4917 -0.1624
13482TIP3    H261938   5.245   5.322  13.035  0.7971  0.6161  0.6067
13483TIP3   OH261939   1.114   1.409   4.208 -0.8055 -0.7560  0.0311
13483TIP3    H161940   1.161   1.331   4.177 -2.1479 -2.2661  1.6844
13483TIP3    H261941   1.144   1.420   4.299 -2.1358 -0.5537  0.4565
13484TIP3   OH261942   1.579   0.656  16.164 -0.0593  0.4369  0.0359
13484TIP3    H161943   1.655   0.648  16.221  0.4343  0.8112 -0.5592
13484TIP3    H261944   1.514   0.597  16.202  0.3066  0.5853  0.9016
13485TIP3   OH261945   0.634   1.758  14.962 -0.1323 -0.2419  0.1142
13485TIP3    H161946   0.697   1.775  15.032 -0.9380 -0.3478  0.8716
13485TIP3    H261947   0.685   1.713  14.894  0.5691 -0.4839  0.7924
13486TIP3   OH261948   3.338   5.499  16.596 -0.2788  0.4169 -0.2701
13486TIP3    H161949   3.364   5.438  16.664  0.6279  0.4836 -0.5454
13486TIP3    H261950   3.413   5.558  16.587 -1.6039  2.3469  0.8643
13487TIP3   OH261951   4.023   1.926   4.959 -0.1730 -0.2075  0.3864
13487TIP3    H161952   4.109   1.950   4.995 -0.0725 -0.5310  0.3664
13487TIP3    H261953   3.997   2.002   4.906 -1.0304  0.9164  2.3761
13488TIP3   OH261954   6.114   4.583   2.416 -0.3294  0.5796 -0.2483
13488TIP3    H161955   6.039   4.599   2.474 -0.5586 -0.4599 -0.2466
13488TIP3    H261956   6.100   4.494   2.384  0.0294  0.9908 -1.5614
13489TIP3   OH261957   2.885   1.650   5.678  0.3239 -0.0788 -0.2165
13489TIP3    H161958   2.933   1.576   5.715  0.5631  0.0590 -0.2534
13489TIP3    H261959   2.853   1.698   5.754 -0.1015 -0.3920 -0.1900
13490TIP3   OH261960   1.693   5.710   3.814  0.2091  0.0958 -0.0295
13490TIP3    H161961   1.665   5.642   3.876  0.5269  1.0084  1.1200
13490TIP3    H261962   1.612   5.751   3.784  0.0336 -0.5754 -0.5115
13491TIP3   OH261963   1.043   1.765  17.091  0.2588  0.2296 -0.0337
13491TIP3    H161964   0.952   1.783  17.113  0.2321  0.3332 -0.2295
13491TIP3    H261965   1.040   1.734  17.000  0.0999 -2.4402  0.8462
13492TIP3   OH261966   1.526   4.731  16.757 -0.1792 -0.3278  0.5235
13492TIP3    H161967   1.598   4.783  16.722 -0.7375 -0.8908 -1.5651
13492TIP3    H261968   1.563   4.643  16.769 -0.1973 -0.3291  0.5704
13493TIP3   OH261969   1.889   2.173   0.158 -0.0482 -0.1691  0.1300
13493TIP3    H161970   1.843   2.099   0.118  0.1308 -0.9464  1.3467
13493TIP3    H261971   1.965   2.187   0.102 -1.4198  0.7618 -1.5718
13494TIP3   OH261972   0.902   2.194  13.441 -0.1609  0.3243 -0.5240
13494TIP3    H161973   0.916   2.113  13.491  1.2263 -0.6798 -2.4656
13494TIP3    H261974   0.957   2.259  13.485  0.5463 -0.3833 -0.3592
13495TIP3   OH261975   2.708   2.276   0.506 -0.2678  0.1810 -0.1148
13495TIP3    H161976   2.648   2.337   0.464  0.2952  1.6568  1.1788
13495TIP3    H261977   2.795   2.306   0.479 -0.0157 -0.6838 -0.2970
13496TIP3   OH261978   6.259   3.284  12.432 -0.3303  0.0952  0.3802
13496TIP3    H161979   6.200   3.326  12.370  0.4284  0.6615  0.0349
13496TIP3    H261980   6.305   3.356  12.474  1.2121 -0.3717 -0.4500
13497TIP3   OH261981   4.908   2.704  16.052  0.3946 -0.4526 -0.1562
13497TIP3    H161982   4.993   2.745  16.034 -1.3243  3.2223 -0.5017
13497TIP3    H261983   4.873   2.683  15.965  0.3293 -0.5699 -0.1005
13498TIP3   OH261984   1.538   2.055   3.648  0.4815  0.1951  0.2636
13498TIP3    H161985   1.453   2.050   3.604  0.3555  1.0951  0.3740
13498TIP3    H261986   1.582   1.974   3.625 -0.1754 -0.0167 -0.2885
13499TIP3   OH261987   2.715   5.757  12.737  0.4109  0.5004  0.0498
13499TIP3    H161988   2.720   5.664  12.713  0.8324  0.5527 -0.0594
13499TIP3    H261989   2.754   5.762  12.824 -0.2363  0.4668  0.3445
13500TIP3   OH261990   2.348   4.970  13.353  0.0870  0.2853  0.0264
13500TIP3    H161991   2.426   4.953  13.300  0.3310  0.2867  0.3861
13500TIP3    H261992   2.333   4.889  13.401 -2.3060 -1.0364 -2.8010
13501TIP3   OH261993   0.788   4.417   6.705 -0.5644  0.6052  0.4143
13501TIP3    H161994   0.735   4.354   6.657 -0.2176  1.0122 -0.4965
13501TIP3    H261995   0.776   4.499   6.658  1.6007  0.5042 -0.3325
13502TIP3   OH261996   6.706   6.088   4.176 -0.2316  0.3558  0.5845
13502TIP3    H161997   6.789   6.041   4.176 -0.5146 -0.1712 -0.2704
13502TIP3    H261998   6.707   6.139   4.256  0.6340 -0.1474  0.9039
13503TIP3   OH261999   6.365   1.482  12.135 -0.0180 -0.0249 -0.0168
13503TIP3    H162000   6.440   1.485  12.076 -0.1503  2.5219 -0.1323
13503TIP3    H262001   6.401   1.455  12.220  0.8587  0.1870 -0.3236
13504TIP3   OH262002   4.263   5.815  16.362 -0.1777  0.3916 -0.1494
13504TIP3    H162003   4.348   5.779  16.336 -0.5368  1.0211 -2.3498
13504TIP3    H262004   4.202   5.743  16.349  0.0476 -0.1873  1.8231
13505TIP3   OH262005   0.625   6.213   4.271  0.9197  0.3016  1.0131
13505TIP3    H162006   0.572   6.266   4.212  1.2166  0.8340  1.2282
13505TIP3    H262007   0.618   6.124   4.235  2.5217  0.8913 -0.8946
13506TIP3   OH262008   5.263   5.256   0.434  0.7502 -0.0984 -0.4394
13506TIP3    H162009   5.170   5.248   0.412  0.1473  1.0965  1.5237
13506TIP3    H262010   5.299   5.312   0.366  0.1765 -1.0614 -1.5642
13507TIP3   OH262011   6.635   6.663  15.243  0.0937  0.5703 -0.1854
13507TIP3    H162012   6.638   6.582  15.191  0.1823  0.6131 -0.2479
13507TIP3    H262013   6.598   6.728  15.183 -0.1707  0.5273 -0.0678
13508TIP3   OH262014   1.618   3.660   5.212 -0.0468 -0.3316 -0.3145
13508TIP3    H162015   1.705   3.699   5.203 -0.1787  0.2474  0.8297
13508TIP3    H262016   1.566   3.728   5.255 -0.8908 -0.9215 -0.4019
13509TIP3   OH262017   4.422   3.117   4.959  0.0015 -0.0244  0.0728
13509TIP3    H162018   4.398   3.082   4.873 -1.9871  2.2756 -0.3703
13509TIP3    H262019   4.417   3.212   4.948 -0.3567  0.2938  2.7701
13510TIP3   OH262020   2.187   4.994  12.571 -0.1631 -0.1910  0.1744
13510TIP3    H162021   2.183   5.048  12.650 -0.3137 -0.5451  0.4145
13510TIP3    H262022   2.152   4.909  12.599 -0.4117 -0.2561 -0.3312
13511TIP3   OH262023   3.027   3.131   2.735 -0.3775  0.1631 -0.0757
13511TIP3    H162024   2.968   3.084   2.794  1.1133  0.1469  1.4368
13511TIP3    H262025   2.969   3.176   2.674 -1.8920 -2.3806 -0.6091
13512TIP3   OH262026   4.748   5.696   3.438  0.2353  0.5511  0.5062
13512TIP3    H162027   4.717   5.699   3.347  0.1559 -0.5384  0.4984
13512TIP3    H262028   4.747   5.788   3.466 -1.2633  0.7259 -0.0835
13513TIP3   OH262029   0.966   5.243  11.372 -0.0262  0.4703  0.1517
13513TIP3    H162030   0.920   5.179  11.318  2.1521  1.3767 -2.9289
13513TIP3    H262031   0.929   5.232  11.460 -1.9278 -2.7710 -0.9823
13514TIP3   OH262032   2.259   3.502  12.842  0.3909 -0.5922  0.3790
13514TIP3    H162033   2.230   3.495  12.933 -1.7948 -0.1501 -0.2533
13514TIP3    H262034   2.336   3.446  12.837 -0.8475 -2.5214  1.9431
13515TIP3   OH262035   3.016   6.525   0.192  0.0417  0.0634  0.4765
13515TIP3    H162036   3.089   6.463   0.182 -0.9369 -1.1864  0.9098
13515TIP3    H262037   2.939   6.474   0.167 -0.6049  1.5845 -0.6546
13516TIP3   OH262038   4.787   2.425   3.390  0.3794  0.1767  0.2133
13516TIP3    H162039   4.867   2.412   3.439  0.2531 -1.0685  0.1118
13516TIP3    H262040   4.758   2.337   3.367 -1.9053  0.4923  1.6673
13517TIP3   OH262041   1.054   2.181  16.063 -0.4495 -0.6377  0.4432
13517TIP3    H162042   1.011   2.097  16.044 -0.4767 -0.5335  0.0497
13517TIP3    H262043   1.131   2.156  16.114 -0.1350 -0.9570 -0.1767
13518TIP3   OH262044   5.700   5.634   5.053  0.6404  0.2696 -0.1885
13518TIP3    H162045   5.652   5.701   5.005  0.4323  1.7305  1.9645
13518TIP3    H262046   5.783   5.626   5.007 -0.5791 -0.3272 -2.3555
13519TIP3   OH262047   4.291   0.847  15.083  0.0304  0.7825 -0.4753
13519TIP3    H162048   4.366   0.797  15.051  1.3897  2.3097  0.2940
13519TIP3    H262049   4.278   0.915  15.017 -1.9698 -0.6643 -1.6464
13520TIP3   OH262050   3.746   1.622   6.102 -0.1632 -0.4284  0.0455
13520TIP3    H162051   3.753   1.618   6.006 -0.8070 -0.6516  0.0037
13520TIP3    H262052   3.836   1.636   6.132  0.1135 -0.8520 -0.5667
13521TIP3   OH262053   2.401   4.597  12.024 -0.0400  0.0399 -0.1453
13521TIP3    H162054   2.463   4.614  11.953  1.0082 -1.0874  0.4773
13521TIP3    H262055   2.367   4.510  12.005 -0.3675  0.0734  0.2846
13522TIP3   OH262056   0.058   5.500   5.603 -0.1836  0.2329 -0.3829
13522TIP3    H162057   0.044   5.410   5.630 -0.2612  0.1363 -0.7408
13522TIP3    H262058   0.085   5.545   5.682 -1.0849  0.1034  0.0023
13523TIP3   OH262059   6.345   1.468   6.754  0.1737 -0.0763  0.4420
13523TIP3    H162060   6.280   1.488   6.822  0.5754  0.2195  0.7431
13523TIP3    H262061   6.293   1.456   6.674 -0.4496 -1.8992  1.0861
13524TIP3   OH262062   5.284   0.223   4.940 -0.0311  0.7708  0.0622
13524TIP3    H162063   5.195   0.188   4.948 -0.0038  0.8950  0.9897
13524TIP3    H262064   5.335   0.172   5.003  0.9242 -0.4802 -1.6744
13525TIP3   OH262065   6.738   4.675  16.914  0.5877 -0.4550 -0.0652
13525TIP3    H162066   6.712   4.615  16.844  2.0725 -1.3430  0.1287
13525TIP3    H262067   6.776   4.750  16.868  0.4635 -0.4916 -0.2311
13526TIP3   OH262068   6.159   3.602   2.331  0.1198  0.1446  0.3910
13526TIP3    H162069   6.251   3.577   2.319 -0.0643 -0.7014  0.6534
13526TIP3    H262070   6.115   3.569   2.253 -0.1413 -0.4583  0.7813
13527TIP3   OH262071   4.772   1.206   3.355 -0.4647 -0.2375  0.0172
13527TIP3    H162072   4.861   1.218   3.322 -0.2882  0.0514  0.5893
13527TIP3    H262073   4.718   1.266   3.304 -0.1755  0.2904  0.3292
13528TIP3   OH262074   0.104   1.474   3.276  0.0909 -0.4601 -0.0456
13528TIP3    H162075   0.034   1.424   3.318  0.2728  0.6877  1.6628
13528TIP3    H262076   0.156   1.508   3.348  1.5951 -0.1094 -1.2620
13529TIP3   OH262077   5.838   1.722  16.678  0.9599  0.0467 -0.0652
13529TIP3    H162078   5.865   1.656  16.613  1.0150  0.2270 -0.2243
13529TIP3    H262079   5.757   1.758  16.643  0.2382 -0.8512  0.6745
13530TIP3   OH262080   4.541   0.784   2.478  0.5366 -0.1237 -0.0383
13530TIP3    H162081   4.609   0.852   2.485  0.9857 -0.4866 -0.8076
13530TIP3    H262082   4.480   0.818   2.412  1.2632 -0.8713 -1.1236
13531TIP3   OH262083   6.582   6.267   1.307 -0.3255  0.5250  0.3556
13531TIP3    H162084   6.563   6.325   1.233  2.4827 -0.5703 -1.3271
13531TIP3    H262085   6.562   6.180   1.274 -1.8237  0.2838  1.8976
13532TIP3   OH262086   1.616   3.571   1.898 -0.0975 -0.3989 -0.3535
13532TIP3    H162087   1.521   3.578   1.897  0.0758  2.1155 -2.0291
13532TIP3    H262088   1.643   3.592   1.808  2.0201 -1.4547 -0.0087
13533TIP3   OH262089   0.823   4.471  13.059 -0.2122 -0.0100 -0.2061
13533TIP3    H162090   0.865   4.544  13.014  1.7466 -0.7960  0.2778
13533TIP3    H262091   0.895   4.427  13.105 -1.2949 -2.4347 -0.7635
13534TIP3   OH262092   1.049   6.346  16.325 -0.4054  0.5332  0.6140
13534TIP3    H162093   1.113   6.413  16.302 -0.0424  0.0895  0.3234
13534TIP3    H262094   0.980   6.393  16.372  0.2017  0.9919  1.0507
13535TIP3   OH262095   6.751   4.124   2.060  0.4790  0.1103  0.4715
13535TIP3    H162096   6.763   4.072   2.139  0.0389 -2.1481 -0.9258
13535TIP3    H262097   6.826   4.102   2.005 -0.3227  0.0617 -0.6158
13536TIP3   OH262098   1.001   5.613  15.245 -0.4702  0.0835  0.3566
13536TIP3    H162099   1.088   5.639  15.274 -0.8035  0.4555  1.0185
13536TIP3    H262100   0.955   5.587  15.325 -0.1972 -2.4527 -0.2419
13537TIP3   OH262101   4.180   2.415   5.186  0.2055  1.0652 -1.0123
13537TIP3    H162102   4.253   2.449   5.239  0.4052  1.1111 -1.3144
13537TIP3    H262103   4.218   2.404   5.099  0.0235  0.4689 -1.0163
13538TIP3   OH262104   2.527   0.383   4.059 -0.1854  0.1743  0.0082
13538TIP3    H162105   2.517   0.469   4.100 -0.2137  0.5056 -0.6965
13538TIP3    H262106   2.593   0.339   4.113 -0.7194  0.3535  0.8135
13539TIP3   OH262107   6.257   3.386   5.380  0.2809  0.0167 -0.2295
13539TIP3    H162108   6.338   3.390   5.330  0.6460 -0.3788  0.3266
13539TIP3    H262109   6.256   3.299   5.419 -1.4079 -0.7360 -1.8889
13540TIP3   OH262110   6.219   3.697   4.589 -0.0032 -0.1306 -0.3333
13540TIP3    H162111   6.150   3.757   4.617  0.2754 -0.2335  0.5724
13540TIP3    H262112   6.268   3.676   4.669  0.3478 -0.9891 -0.7607
13541TIP3   OH262113   6.030   0.177  14.932 -0.2034  0.2806  0.0110
13541TIP3    H162114   6.069   0.167  15.018  1.8107  0.4316 -0.8556
13541TIP3    H262115   5.982   0.259  14.936 -0.6509 -0.0266  1.1721
13542TIP3   OH262116   2.449   4.650   3.501  0.2684  0.5948  0.2112
13542TIP3    H162117   2.425   4.643   3.408  0.4665  2.4325 -0.0055
13542TIP3    H262118   2.537   4.687   3.500  0.0399  1.1693  1.1393
13543TIP3   OH262119   5.616   1.062   2.025  0.3101  0.1508  0.7091
13543TIP3    H162120   5.668   1.054   1.945 -0.2920 -1.6016  0.4755
13543TIP3    H262121   5.642   0.987   2.078  0.1885  0.9188  1.8765
13544TIP3   OH262122   2.806   2.519  16.086  0.2578 -0.4094 -0.2293
13544TIP3    H162123   2.725   2.477  16.113 -0.2594  1.1872  0.7477
13544TIP3    H262124   2.783   2.611  16.074  0.9793 -0.6061 -3.8995
13545TIP3   OH262125   2.852   1.817  15.991  0.3274  0.1491 -0.7469
13545TIP3    H162126   2.845   1.782  15.902 -0.5724  0.6274 -0.8697
13545TIP3    H262127   2.909   1.893  15.983  1.2308 -0.5231 -0.7031
13546TIP3   OH262128   3.629   3.014   1.702  0.0819  0.5617 -0.6493
13546TIP3    H162129   3.687   3.082   1.667  0.8627  0.1368 -0.1862
13546TIP3    H262130   3.683   2.936   1.706 -0.2941  0.3531  0.5336
13547TIP3   OH262131   1.572   5.380  13.762  0.4143 -0.2149  0.1885
13547TIP3    H162132   1.585   5.419  13.849  0.2780 -0.9332  0.5424
13547TIP3    H262133   1.606   5.291  13.771  0.9478 -0.1026 -0.6747
13548TIP3   OH262134   4.261   1.271  14.195  0.4047  0.3134  0.1927
13548TIP3    H162135   4.193   1.229  14.143  1.3758 -0.4108 -0.5242
13548TIP3    H262136   4.319   1.199  14.222  0.2190  0.7588  1.8188
13549TIP3   OH262137   1.830   4.845   3.139 -0.0792 -0.7885 -0.1441
13549TIP3    H162138   1.775   4.919   3.113 -0.3973 -0.8334  0.3957
13549TIP3    H262139   1.823   4.783   3.066 -0.1379 -0.4673 -0.4151
13550TIP3   OH262140   4.938   2.411  14.006  0.2316 -0.3517 -0.0486
13550TIP3    H162141   4.860   2.453  13.969  1.0150  0.8633 -0.3528
13550TIP3    H262142   4.976   2.477  14.063  0.1495 -1.5188  1.3835
13551TIP3   OH262143   1.899   2.892   3.032  0.2012 -0.6873 -0.5094
13551TIP3    H162144   1.981   2.845   3.045  1.5090  1.3789 -0.9786
13551TIP3    H262145   1.867   2.909   3.121  0.1653 -1.6898 -0.3307
13552TIP3   OH262146   4.627   5.849   1.841 -0.1579 -0.7512 -0.0938
13552TIP3    H162147   4.674   5.806   1.912 -1.9465 -0.0786  1.5310
13552TIP3    H262148   4.658   5.939   1.842  0.0591 -0.8192 -0.3994
13553TIP3   OH262149   1.743   4.553  12.786  0.3760 -0.5519 -0.7114
13553TIP3    H162150   1.728   4.459  12.790 -0.3306 -0.4986 -1.7871
13553TIP3    H262151   1.750   4.580  12.877  1.1119 -1.7241 -0.4151
13554TIP3   OH262152   4.872   2.037   2.989 -0.3182 -0.4759  0.4642
13554TIP3    H162153   4.879   1.975   2.917 -0.2805  1.2430 -1.0599
13554TIP3    H262154   4.800   2.095   2.964  0.4976  0.8971  1.2119
13555TIP3   OH262155   4.260   1.892   1.753  0.2066  0.3362  0.3976
13555TIP3    H162156   4.305   1.808   1.759  1.0834  0.6784 -1.2312
13555TIP3    H262157   4.167   1.869   1.746  0.6008 -0.6240 -2.3905
13556TIP3   OH262158   1.684   6.391  16.203  0.0181  0.0916  0.5471
13556TIP3    H162159   1.770   6.374  16.241  0.0089 -0.3364  0.3799
13556TIP3    H262160   1.628   6.322  16.238  0.5596 -1.7983 -2.1055
13557TIP3   OH262161   4.899   5.785   4.491  0.4636 -0.7504 -0.0710
13557TIP3    H162162   4.990   5.772   4.518  0.1877  0.3171  1.4200
13557TIP3    H262163   4.906   5.832   4.408  1.2678  1.5618  1.2580
13558TIP3   OH262164   4.837   2.063  11.282  0.3780 -0.4737 -0.3424
13558TIP3    H162165   4.846   1.967  11.283  0.7916 -0.4981 -3.2701
13558TIP3    H262166   4.927   2.095  11.282  0.2946 -0.1749 -2.1417
13559TIP3   OH262167   4.998   6.399   6.292  0.3868 -0.2233  0.2440
13559TIP3    H162168   5.091   6.382   6.278  0.5178  0.9002 -0.2853
13559TIP3    H262169   4.996   6.474   6.352 -0.1662 -0.2778  0.2951
13560TIP3   OH262170   6.708   4.513   5.649 -0.2613  0.0607  0.1095
13560TIP3    H162171   6.737   4.540   5.736  0.2723 -1.9557  0.5775
13560TIP3    H262172   6.787   4.516   5.595 -0.2888 -0.1063  0.0578
13561TIP3   OH262173   0.847   2.626  15.303  0.4799  0.0072 -0.2320
13561TIP3    H162174   0.761   2.618  15.343  0.5240 -0.9100 -0.3110
13561TIP3    H262175   0.836   2.592  15.215  0.6484  0.9864 -0.6352
13562TIP3   OH262176   4.098   0.161   5.269 -0.4789  0.1274  0.1656
13562TIP3    H162177   4.120   0.133   5.358 -0.8647 -2.1284 -0.4281
13562TIP3    H262178   4.182   0.166   5.224 -0.2569  1.5331  0.7215
13563TIP3   OH262179   3.983   3.175   5.496  0.0245 -0.1108  0.6985
13563TIP3    H162180   4.013   3.264   5.512  1.9351 -0.6217  0.0254
13563TIP3    H262181   3.945   3.147   5.579 -0.9215  1.4461  0.8138
13564TIP3   OH262182   2.765   4.837   1.004  0.5364  0.2339 -0.2366
13564TIP3    H162183   2.804   4.826   1.091  1.5503 -0.0246 -0.7202
13564TIP3    H262184   2.671   4.843   1.021  0.6475 -0.7853  0.7876
13565TIP3   OH262185   1.953   0.634   2.327  0.1298  0.1920  0.0922
13565TIP3    H162186   1.988   0.621   2.239 -0.9947  0.5457 -0.4196
13565TIP3    H262187   1.906   0.718   2.322 -0.0299  0.1618  1.0003
13566TIP3   OH262188   6.068   6.068  12.516 -0.1793  0.0229 -0.4591
13566TIP3    H162189   6.146   6.119  12.540  0.3843 -1.3713  0.7034
13566TIP3    H262190   6.035   6.112  12.438 -0.6910  3.2432  1.4624
13567TIP3   OH262191   5.156   2.097   5.001 -1.0198  0.0194  0.0292
13567TIP3    H162192   5.174   2.173   5.057  0.2101 -1.4681  1.7340
13567TIP3    H262193   5.099   2.041   5.054 -2.1695 -0.1364 -1.3287
13568TIP3   OH262194   0.005   5.774   4.078 -0.8508  0.3952  0.5167
13568TIP3    H162195  -0.054   5.794   4.151  0.9232  0.7420  1.8946
13568TIP3    H262196   0.021   5.680   4.086 -1.4782  0.2258 -0.0903
13569TIP3   OH262197   1.713   4.122   1.151 -0.2031 -0.4747 -0.1575
13569TIP3    H162198   1.744   4.121   1.060 -0.7640  0.6132 -0.3756
13569TIP3    H262199   1.767   4.057   1.196  2.4043  1.3188 -0.5451
13570TIP3   OH262200   3.476   0.359   0.271  0.2460  0.2010 -0.0911
13570TIP3    H162201   3.487   0.323   0.183  0.1194 -0.0260 -0.0155
13570TIP3    H262202   3.497   0.452   0.262 -1.1132  0.4699 -0.6548
13571TIP3   OH262203   2.692   5.299   2.941  0.0268  0.3721  0.5184
13571TIP3    H162204   2.774   5.253   2.920 -1.0653 -1.8638  0.9284
13571TIP3    H262205   2.702   5.385   2.901  2.2951 -0.1105 -0.0411
13572TIP3   OH262206   3.458   1.573   3.370  0.5241 -0.2131 -0.4834
13572TIP3    H162207   3.466   1.662   3.336 -1.7435 -0.1769 -0.9385
13572TIP3    H262208   3.471   1.517   3.294 -0.2389 -0.2249 -0.6049
13573TIP3   OH262209   5.582   5.942   6.550 -0.1030  0.3424  0.1355
13573TIP3    H162210   5.620   5.984   6.627  1.7594 -0.5949 -0.2349
13573TIP3    H262211   5.552   5.856   6.581  0.7754 -0.0910 -0.2046
13574TIP3   OH262212   4.596   0.397  14.779  0.0922 -0.2438 -1.1666
13574TIP3    H162213   4.619   0.311  14.814  0.5551  0.9522  1.6128
13574TIP3    H262214   4.678   0.433  14.746  0.0741 -0.4583 -1.4510
13575TIP3   OH262215   3.580   6.623  13.626 -0.9358  0.3819 -0.2932
13575TIP3    H162216   3.663   6.664  13.604 -0.1992 -1.3502 -0.8259
13575TIP3    H262217   3.552   6.581  13.545 -1.5657 -0.3278  0.2915
13576TIP3   OH262218   5.758   6.727   4.096 -0.0866 -0.5401 -1.1417
13576TIP3    H162219   5.796   6.673   4.166 -0.4464  0.3649 -0.2230
13576TIP3    H262220   5.700   6.788   4.143 -1.4458 -0.8730 -2.3650
13577TIP3   OH262221   1.316   0.968  11.604  0.1548 -0.2024  0.2815
13577TIP3    H162222   1.401   0.925  11.607  0.1164 -0.1679  2.2805
13577TIP3    H262223   1.259   0.912  11.656 -0.5225  0.9070  0.7564
13578TIP3   OH262224   1.181   1.206   4.488 -0.0809  0.2064  0.0753
13578TIP3    H162225   1.139   1.223   4.573 -0.3032  2.4298 -0.4442
13578TIP3    H262226   1.142   1.124   4.458 -0.7672 -0.0659  1.6383
13579TIP3   OH262227   3.466   0.090   4.082  0.6827 -0.0653  0.0397
13579TIP3    H162228   3.412   0.168   4.078 -1.6863 -1.6882 -1.0273
13579TIP3    H262229   3.432   0.033   4.013  1.9981 -2.2561  1.1043
13580TIP3   OH262230   3.346   4.269   1.678  0.1075 -0.3069 -0.6651
13580TIP3    H162231   3.389   4.346   1.641 -1.8396  1.1321 -0.0532
13580TIP3    H262232   3.253   4.282   1.659 -0.2579 -2.5044 -0.5148
13581TIP3   OH262233   2.647   3.755  16.102  0.7248 -0.0285 -0.1919
13581TIP3    H162234   2.736   3.787  16.090  1.0280 -0.1784  1.4358
13581TIP3    H262235   2.609   3.814  16.168  0.1135 -0.8607  0.2167
13582TIP3   OH262236   6.801   5.600  15.470 -0.3121  0.4667  0.8395
13582TIP3    H162237   6.827   5.615  15.561  2.8002  1.1946 -0.0995
13582TIP3    H262238   6.864   5.652  15.419 -0.2377 -2.1600 -1.8379
13583TIP3   OH262239   3.792   5.088   0.843 -0.2075 -0.2192 -0.7214
13583TIP3    H162240   3.787   5.174   0.800 -1.1227  0.1491  0.1024
13583TIP3    H262241   3.802   5.026   0.771  1.7309  0.6801 -1.2486
13584TIP3   OH262242   2.694   2.964   1.550 -0.1848 -0.2977  0.2912
13584TIP3    H162243   2.630   2.985   1.619  0.2006 -2.9140  1.4943
13584TIP3    H262244   2.771   3.016   1.573 -0.9112  0.7628  0.3907
13585TIP3   OH262245   5.357   0.960  11.296  0.1136 -0.2117 -0.1166
13585TIP3    H162246   5.360   0.865  11.288 -0.5108 -0.4345  2.1140
13585TIP3    H262247   5.443   0.984  11.331 -0.9639 -0.3509  2.7793
13586TIP3   OH262248   4.771   4.776  16.274 -0.0926 -0.0978  0.3689
13586TIP3    H162249   4.795   4.776  16.181 -1.3690  3.0118 -0.0216
13586TIP3    H262250   4.837   4.830  16.316 -0.6297  0.1091  0.9466
13587TIP3   OH262251   1.959   3.529   5.265 -0.1337  0.0197 -0.6442
13587TIP3    H162252   2.015   3.606   5.263  2.3423 -1.7390 -1.8043
13587TIP3    H262253   1.936   3.514   5.173 -0.6594 -0.5877 -0.4143
13588TIP3   OH262254   2.933   2.045   2.309 -0.0469 -0.3053 -0.5724
13588TIP3    H162255   2.937   2.137   2.334 -0.1120 -0.6374  0.6684
13588TIP3    H262256   3.003   2.035   2.244  1.1375  0.2139  0.6085
13589TIP3   OH262257   3.751   0.598  13.769  0.0292  0.1373  0.3790
13589TIP3    H162258   3.841   0.609  13.740  0.2658  0.0944  1.0717
13589TIP3    H262259   3.703   0.571  13.691  0.3907  1.2840 -0.2460
13590TIP3   OH262260   0.605   2.302   0.888  0.6058  0.5955 -0.7156
13590TIP3    H162261   0.682   2.248   0.906 -1.1828 -1.8488 -0.0171
13590TIP3    H262262   0.624   2.344   0.805  2.0072 -1.2848 -1.3987
13591TIP3   OH262263   6.764   0.453   1.055  0.4183 -0.0321 -0.5768
13591TIP3    H162264   6.809   0.434   1.138  0.7976  0.6621 -0.6185
13591TIP3    H262265   6.792   0.542   1.033  0.9941 -0.5331 -1.8995
13592TIP3   OH262266   1.483   4.930   2.345  0.1552  0.1641 -0.1687
13592TIP3    H162267   1.523   4.980   2.416  0.9485  0.1773 -0.6219
13592TIP3    H262268   1.516   4.841   2.357  1.1231  0.3843 -1.1348
13593TIP3   OH262269   0.292   3.889  15.487  0.2055 -0.1120  0.1317
13593TIP3    H162270   0.331   3.807  15.514  0.2582  0.1058  0.7160
13593TIP3    H262271   0.226   3.908  15.554 -0.8545 -0.4441 -0.8057
13594TIP3   OH262272   2.191   6.283   3.735 -0.0375  0.4173 -0.1336
13594TIP3    H162273   2.105   6.255   3.766 -0.0779  2.3608  1.6750
13594TIP3    H262274   2.249   6.209   3.754 -1.2628 -0.8270 -1.1995
13595TIP3   OH262275   3.711   4.256  14.696 -0.2174  0.0638  0.5360
13595TIP3    H162276   3.710   4.227  14.787  0.5439  0.7116  0.7575
13595TIP3    H262277   3.624   4.295  14.683 -1.0385 -1.7611  0.3978
13596TIP3   OH262278   6.397   3.140  11.292  0.0839 -0.1800  0.1289
13596TIP3    H162279   6.401   3.218  11.238 -1.1236 -0.2817 -0.1090
13596TIP3    H262280   6.429   3.168  11.378  0.0362  0.4623 -0.0645
13597TIP3   OH262281   4.507   4.569   5.988 -0.3378  0.3551 -0.1251
13597TIP3    H162282   4.537   4.481   5.964 -0.6225  0.4685 -0.8991
13597TIP3    H262283   4.560   4.592   6.065  1.7035  0.6032 -1.5606
13598TIP3   OH262284   0.747   4.137   3.477  0.5854 -0.3342 -0.4453
13598TIP3    H162285   0.840   4.125   3.495  0.3134  0.1299  1.3903
13598TIP3    H262286   0.714   4.048   3.461  1.5807 -0.3687 -2.4573
13599TIP3   OH262287   2.044   6.668  16.880 -0.0418  0.6013 -0.2328
13599TIP3    H162288   2.022   6.735  16.944  1.2828  1.2549 -0.4437
13599TIP3    H262289   2.132   6.639  16.904  0.1899  0.3656 -1.3302
13600TIP3   OH262290   5.429   1.612  15.185  0.0467  0.0817 -0.1191
13600TIP3    H162291   5.385   1.662  15.254  0.0630 -0.5163  0.3264
13600TIP3    H262292   5.366   1.543  15.163  0.0145  0.3118 -0.7457
13601TIP3   OH262293   3.485   2.263   0.839 -0.2288  0.2954  0.7222
13601TIP3    H162294   3.471   2.345   0.792 -1.3878  0.1224  0.7512
13601TIP3    H262295   3.521   2.204   0.774  1.3991  1.0607  0.9001
13602TIP3   OH262296   5.228   0.784   1.475 -0.5331  0.0640  0.3808
13602TIP3    H162297   5.203   0.856   1.533  0.3836  1.1927 -0.6050
13602TIP3    H262298   5.165   0.789   1.403 -1.1800 -0.8440  0.8771
13603TIP3   OH262299   3.809   2.771   0.774 -0.1210  0.3314  0.1503
13603TIP3    H162300   3.771   2.835   0.834  2.1110 -0.9693  3.0761
13603TIP3    H262301   3.896   2.806   0.754  0.1211 -0.5168 -0.3034
13604TIP3   OH262302   6.270   3.336  15.861 -0.0609 -0.4489  0.2044
13604TIP3    H162303   6.296   3.270  15.797 -0.2095 -0.2679 -0.0449
13604TIP3    H262304   6.178   3.314  15.882 -0.3157  0.0707 -0.3703
13605TIP3   OH262305   4.713   0.098  13.941  0.4176  0.3580 -0.0743
13605TIP3    H162306   4.673   0.091  14.027  0.4857 -0.0625 -0.0740
13605TIP3    H262307   4.766   0.178  13.945  1.4911 -0.3767  0.7184
13606TIP3   OH262308   6.192   6.409   2.499 -0.2807  0.0360 -0.2567
13606TIP3    H162309   6.144   6.397   2.582 -0.6221 -0.6126 -0.5397
13606TIP3    H262310   6.237   6.493   2.509 -0.0364 -0.2053  0.7277
13607TIP3   OH262311   3.740   3.077  13.117 -0.0011 -0.3984 -0.5726
13607TIP3    H162312   3.827   3.054  13.084 -0.3222 -1.4766 -0.7186
13607TIP3    H262313   3.753   3.157  13.166  1.0369 -0.4158 -0.8005
13608TIP3   OH262314   0.652   1.638  15.474  0.0180  0.5643  0.6046
13608TIP3    H162315   0.680   1.727  15.493 -0.6832  0.7060  0.9763
13608TIP3    H262316   0.598   1.645  15.396  0.9463  0.2989 -0.0714
13609TIP3   OH262317   2.427   2.646  12.129 -0.3069  0.5834  0.2257
13609TIP3    H162318   2.469   2.567  12.096 -1.4235  0.7026 -1.5581
13609TIP3    H262319   2.459   2.654  12.219  0.1215 -1.6824  0.3201
13610TIP3   OH262320   6.131   5.307  13.840  0.0359  0.0128 -0.1105
13610TIP3    H162321   6.172   5.228  13.806  1.2404  0.1340  0.9695
13610TIP3    H262322   6.139   5.371  13.770  1.3477 -0.1030 -0.0857
13611TIP3   OH262323   1.623   2.834   0.275  0.1252 -0.1439  0.4806
13611TIP3    H162324   1.572   2.915   0.264  1.9005  0.9511  0.0674
13611TIP3    H262325   1.581   2.771   0.217 -1.6042  0.3200  1.1944
13612TIP3   OH262326   0.900   0.160   5.299  0.0816  0.2276  0.4048
13612TIP3    H162327   0.887   0.095   5.368  1.1208  0.2402  0.6162
13612TIP3    H262328   0.882   0.113   5.218  0.2458 -0.1652  0.5952
13613TIP3   OH262329   4.181   2.646  16.860  0.6272  0.2875 -0.3848
13613TIP3    H162330   4.114   2.626  16.925 -0.1533 -0.2772 -1.3537
13613TIP3    H262331   4.231   2.718  16.899 -0.3133  0.4787  0.5003
13614TIP3   OH262332   1.957   3.174   2.670  0.2427 -0.2024 -0.1441
13614TIP3    H162333   1.977   3.162   2.763 -0.1155 -2.9971 -0.3869
13614TIP3    H262334   1.865   3.198   2.668  0.0717 -0.8231  0.1815
13615TIP3   OH262335   5.437   1.262   0.882 -0.2020 -0.6339 -0.6218
13615TIP3    H162336   5.358   1.312   0.901  0.4213  0.0040  0.3116
13615TIP3    H262337   5.429   1.183   0.935 -0.1558 -0.5051 -0.4217
13616TIP3   OH262338   3.616   6.640  10.630  0.4476  0.3262 -0.2802
13616TIP3    H162339   3.544   6.631  10.568  2.0444 -0.6022 -2.0459
13616TIP3    H262340   3.648   6.550  10.643  0.6642  0.6098  1.2349
13617TIP3   OH262341   1.490   0.943   2.506  0.4881 -0.4338 -0.2617
13617TIP3    H162342   1.462   0.994   2.430  0.5975 -1.1182 -0.7721
13617TIP3    H262343   1.428   0.870   2.510  0.2342 -0.1775  0.5558
13618TIP3   OH262344   1.194   4.792   1.123  0.3695 -0.5445  0.5822
13618TIP3    H162345   1.210   4.886   1.138  0.3674 -0.1959 -1.4655
13618TIP3    H262346   1.105   4.778   1.155  0.3082  0.1926  0.7595
13619TIP3   OH262347   5.293   4.676  14.764 -0.5432 -0.2693 -0.2752
13619TIP3    H162348   5.224   4.729  14.805  0.6179  1.5424 -0.6243
13619TIP3    H262349   5.274   4.680  14.670  0.6977  1.2310 -0.4809
13620TIP3   OH262350   0.323   3.478  14.690 -0.4597  0.5247  0.0302
13620TIP3    H162351   0.321   3.480  14.785 -0.7540  2.1566  0.0099
13620TIP3    H262352   0.387   3.411  14.668 -2.7650 -2.2229  1.3443
13621TIP3   OH262353   0.446   1.621   2.516 -0.0454  0.0891  0.1610
13621TIP3    H162354   0.447   1.702   2.568  0.3236  0.6202 -0.6578
13621TIP3    H262355   0.365   1.626   2.464  0.5731  0.5154 -0.7781
13622TIP3   OH262356   6.638   6.059  10.603  0.8040  0.0667 -0.4107
13622TIP3    H162357   6.549   6.024  10.596  0.5096  0.4568  1.3541
13622TIP3    H262358   6.633   6.144  10.558  0.0257  0.5602  0.6020
13623TIP3   OH262359   1.143   2.686  12.967 -0.0495  0.1362  0.1250
13623TIP3    H162360   1.130   2.609  12.911  1.8744 -0.5832  0.6243
13623TIP3    H262361   1.212   2.736  12.925  0.4665  0.2885  1.1277
13624TIP3   OH262362   0.650   1.422  12.677  0.2006 -0.2987 -0.4709
13624TIP3    H162363   0.640   1.357  12.747  0.5270 -0.9875 -1.0651
13624TIP3    H262364   0.615   1.503  12.715  0.6829 -0.5831  0.6176
13625TIP3   OH262365   1.963   6.338  13.480 -0.0936  0.2969  0.4943
13625TIP3    H162366   1.873   6.361  13.505 -0.7245 -1.8114  0.2236
13625TIP3    H262367   1.957   6.247  13.451  2.2924 -0.1252  1.2468
13626TIP3   OH262368   4.264   0.523   4.257 -0.3222 -0.1510 -0.3714
13626TIP3    H162369   4.263   0.603   4.204 -0.4668  0.6788  0.8500
13626TIP3    H262370   4.356   0.499   4.263 -0.0030  1.3745  1.3431
13627TIP3   OH262371   3.484   2.760  14.668 -0.3029  0.6608 -0.2083
13627TIP3    H162372   3.462   2.828  14.604 -1.2624  0.0658 -0.5220
13627TIP3    H262373   3.407   2.703  14.670  0.7796 -0.8561 -0.5170
13628TIP3   OH262374   1.937   4.414   5.353  0.1821  0.0851  0.5386
13628TIP3    H162375   1.946   4.345   5.287  0.1778  1.2090 -0.6529
13628TIP3    H262376   1.940   4.367   5.436  0.5302 -1.3197 -0.2396
13629TIP3   OH262377   6.088   2.551   2.138  0.2917 -0.2278  0.1497
13629TIP3    H162378   6.053   2.528   2.224  0.1069 -2.7453 -0.5453
13629TIP3    H262379   6.011   2.581   2.089  0.5199  1.8991  1.0563
13630TIP3   OH262380   0.763   1.467   4.543 -0.4266 -0.3752  0.3693
13630TIP3    H162381   0.812   1.460   4.625  0.5986 -0.7691 -0.2687
13630TIP3    H262382   0.787   1.388   4.495 -3.3455 -1.6663  0.9367
13631TIP3   OH262383   4.551   0.638   0.938 -0.1109  0.2426  0.2495
13631TIP3    H162384   4.474   0.633   0.880 -0.3658  0.5530  0.5578
13631TIP3    H262385   4.621   0.671   0.881  0.1815 -1.4724 -0.4086
13632TIP3   OH262386   2.872   4.094  15.414  0.3398 -0.2778  0.0483
13632TIP3    H162387   2.784   4.062  15.396  0.1801  0.1067  0.1412
13632TIP3    H262388   2.930   4.030  15.373 -0.0106  0.2864 -1.3707
13633TIP3   OH262389   0.081   5.148  16.900  0.2406  0.2872  0.1351
13633TIP3    H162390   0.023   5.224  16.905 -1.8616 -1.2730  0.3850
13633TIP3    H262391   0.085   5.128  16.806 -1.2289 -0.7424  0.2653
13634TIP3   OH262392   1.171   0.218   2.749 -0.1616  0.3426 -0.1972
13634TIP3    H162393   1.102   0.273   2.787 -0.8305 -1.2352  0.9196
13634TIP3    H262394   1.244   0.279   2.734 -0.7860  1.5042  1.2652
13635TIP3   OH262395   5.551   1.962  11.430  0.2981 -0.7897  0.0422
13635TIP3    H162396   5.592   1.881  11.461  2.3317  0.2004  0.0294
13635TIP3    H262397   5.592   2.031  11.483 -0.3588  0.3680 -0.9357
13636TIP3   OH262398   0.498   3.359   2.207 -0.1041  0.2954  0.3256
13636TIP3    H162399   0.437   3.291   2.235 -0.1735  0.8554  1.5889
13636TIP3    H262400   0.557   3.315   2.145 -0.4021 -0.8051  0.8142
13637TIP3   OH262401   3.665   6.746   1.338  0.3284 -0.1082 -0.2915
13637TIP3    H162402   3.653   6.654   1.362 -0.6727 -0.0431 -0.4869
13637TIP3    H262403   3.594   6.792   1.384  2.4892  0.9912  2.0842
13638TIP3   OH262404   3.643   2.137  14.013  0.1358  0.5251 -0.5033
13638TIP3    H162405   3.553   2.169  14.012 -0.0515 -0.0004 -0.8732
13638TIP3    H262406   3.693   2.203  13.965  0.1257  1.3117  0.5558
13639TIP3   OH262407   4.056   1.009  11.810  0.0227 -0.4042  0.5225
13639TIP3    H162408   4.004   0.938  11.773  0.7833 -0.4449 -0.5055
13639TIP3    H262409   4.147   0.984  11.791  0.3537  0.2466  1.2313
13640TIP3   OH262410   4.415   0.534  13.277  0.1827  0.0468  0.2929
13640TIP3    H162411   4.484   0.587  13.238 -0.2043  0.5827  0.3329
13640TIP3    H262412   4.338   0.591  13.278  0.0641 -0.1152  1.4076
13641TIP3   OH262413   5.208   3.748  15.416 -0.3159  0.2805 -0.1740
13641TIP3    H162414   5.265   3.809  15.463 -0.6940  0.6100 -0.1444
13641TIP3    H262415   5.268   3.700  15.358  0.1188  0.0231  0.4858
13642TIP3   OH262416   5.740   0.622   6.374 -0.0313  0.4922  0.8650
13642TIP3    H162417   5.778   0.537   6.350 -1.0874  0.2702 -0.0611
13642TIP3    H262418   5.678   0.601   6.445 -1.4445  0.2377 -0.4124
13643TIP3   OH262419   2.468   1.964  17.147 -0.1006 -0.0328 -0.6499
13643TIP3    H162420   2.519   1.978  17.227 -0.2941 -0.8710 -0.3753
13643TIP3    H262421   2.534   1.946  17.079 -0.0493 -1.8231 -0.1468
13644TIP3   OH262422   6.780   2.824   2.497 -0.1242  0.1359 -0.0533
13644TIP3    H162423   6.817   2.737   2.488  0.0137  0.2869 -0.9659
13644TIP3    H262424   6.819   2.859   2.577  1.1561  0.0193 -0.6201
13645TIP3   OH262425   6.281   4.256   2.588 -0.5032  0.1285 -0.5695
13645TIP3    H162426   6.362   4.211   2.563 -0.2734  0.3512 -0.2280
13645TIP3    H262427   6.288   4.267   2.683 -1.0934 -0.1672 -0.4875
13646TIP3   OH262428   0.147   1.798   2.981 -0.1604 -0.4624 -0.0504
13646TIP3    H162429   0.081   1.815   2.914 -1.1627 -0.4901  0.9191
13646TIP3    H262430   0.135   1.705   3.003  0.0787 -0.4233  0.2526
13647TIP3   OH262431   5.373   2.595   2.104 -0.6442  0.2876  0.3424
13647TIP3    H162432   5.402   2.504   2.099 -0.7891  0.2820 -0.4577
13647TIP3    H262433   5.434   2.643   2.047  0.3942  0.9360  1.9697
13648TIP3   OH262434   0.693   3.861  11.015 -0.3790 -0.4348 -0.4228
13648TIP3    H162435   0.677   3.769  11.033  0.0133 -0.9844 -2.7135
13648TIP3    H262436   0.741   3.861  10.933  0.0297  1.8005 -0.2115
13649TIP3   OH262437   2.476   3.553  16.031  0.1236 -0.7165 -0.3552
13649TIP3    H162438   2.536   3.625  16.047  0.3174 -0.9395 -0.0595
13649TIP3    H262439   2.398   3.575  16.083 -0.6789  0.3461 -1.9861
13650TIP3   OH262440   4.413   1.216   0.872 -0.5019 -0.3559 -0.1659
13650TIP3    H162441   4.366   1.296   0.846  0.2222 -0.3131 -1.3816
13650TIP3    H262442   4.479   1.204   0.804 -0.3291 -1.7678  0.2391
13651TIP3   OH262443   3.418   6.366  11.565  0.5145 -0.1586  0.2333
13651TIP3    H162444   3.369   6.434  11.518  0.7952 -0.9077 -1.1737
13651TIP3    H262445   3.353   6.299  11.586  0.6460 -0.4593 -0.3098
13652TIP3   OH262446   2.642   6.690   2.982  0.4251  0.5800 -0.0709
13652TIP3    H162447   2.590   6.655   2.909 -0.3294  0.0877  0.6962
13652TIP3    H262448   2.729   6.702   2.945 -0.4254  2.3274 -1.6671
13653TIP3   OH262449   0.160   3.044  15.778 -0.2591 -0.0415  0.3810
13653TIP3    H162450   0.220   2.994  15.722  0.5956  0.2501  1.0254
13653TIP3    H262451   0.132   2.982  15.845  0.1445  0.0947  0.6844
13654TIP3   OH262452   3.289   1.221  13.836 -0.1704 -0.0876 -0.5561
13654TIP3    H162453   3.380   1.227  13.806  0.0195 -1.7588 -0.4110
13654TIP3    H262454   3.237   1.221  13.756  0.0587 -0.4330 -0.7064
13655TIP3   OH262455   5.288   0.630  11.404 -0.7388 -0.2142 -0.1239
13655TIP3    H162456   5.366   0.610  11.456  0.0014  0.3469 -0.9950
13655TIP3    H262457   5.322   0.641  11.315 -2.0571 -1.7378 -0.8326
13656TIP3   OH262458   6.005   1.091   5.716  0.4545 -0.4634 -0.0935
13656TIP3    H162459   5.943   1.164   5.715  0.5163 -0.3715  1.2071
13656TIP3    H262460   5.989   1.045   5.634 -0.3308  0.3951 -0.4385
13657TIP3   OH262461   5.079   1.435   3.506 -1.3009  0.4515 -0.7931
13657TIP3    H162462   5.174   1.428   3.501 -1.0260  1.7469  1.9702
13657TIP3    H262463   5.049   1.424   3.415  1.1950 -3.2412 -1.2527
13658TIP3   OH262464   6.640   6.621   5.812  0.7556 -0.0437 -0.2314
13658TIP3    H162465   6.722   6.594   5.770  0.0426 -1.2883 -0.8489
13658TIP3    H262466   6.615   6.545   5.865  0.8766  0.9613  1.3121
13659TIP3   OH262467   1.772   0.276  13.858  0.3372  0.2785 -0.3786
13659TIP3    H162468   1.814   0.222  13.925  0.0961 -1.4935 -1.6408
13659TIP3    H262469   1.715   0.336  13.908  1.5663  0.2438  1.0988
13660TIP3   OH262470   1.609   2.215   2.348 -0.1994  0.1574  0.1588
13660TIP3    H162471   1.612   2.285   2.283 -0.9630 -1.4283 -1.6442
13660TIP3    H262472   1.570   2.255   2.425  0.0679  1.8995 -0.5809
13661TIP3   OH262473   4.066   6.627  13.955  0.4484 -0.2386 -0.2644
13661TIP3    H162474   4.080   6.533  13.968 -1.4918 -0.5047  0.1557
13661TIP3    H262475   3.992   6.631  13.895  1.0358  1.0374 -0.9110
13662TIP3   OH262476   5.564   2.620   0.937  0.4420  0.3432  0.1357
13662TIP3    H162477   5.649   2.577   0.937  0.9776  1.3689  0.1143
13662TIP3    H262478   5.584   2.711   0.913 -0.6182  0.6678  0.4659
13663TIP3   OH262479   5.028   5.613  14.789  0.2669 -0.1225 -0.1871
13663TIP3    H162480   4.986   5.685  14.836 -1.3401 -0.4306 -1.0943
13663TIP3    H262481   5.079   5.566  14.855 -2.3800 -0.8798  1.3814
13664TIP3   OH262482   0.423   5.509  16.069  0.6960 -0.4803 -0.1536
13664TIP3    H162483   0.383   5.493  16.154  0.4227  1.0772  0.0314
13664TIP3    H262484   0.404   5.601  16.051  1.0462 -0.7034 -1.7427
13665TIP3   OH262485   5.075   2.133  11.202 -0.3039 -0.3824  0.2082
13665TIP3    H162486   5.161   2.124  11.243 -0.1740  2.3314  0.6197
13665TIP3    H262487   5.092   2.176  11.118 -1.2624  0.3977  0.3924
13666TIP3   OH262488   2.401   1.208  15.990  0.1948 -0.2127 -0.2994
13666TIP3    H162489   2.357   1.195  16.074 -0.0560  0.3893 -0.3372
13666TIP3    H262490   2.376   1.131  15.938 -1.2020  0.3376 -0.4821
13667TIP3   OH262491   5.014   6.085   5.942  0.4386 -0.2687  0.0456
13667TIP3    H162492   5.090   6.068   5.997  0.0050  0.3825  0.8400
13667TIP3    H262493   4.974   6.163   5.979  0.0613  0.0957 -1.0994
13668TIP3   OH262494   0.595   3.046  12.537 -0.4065  0.2293 -0.2366
13668TIP3    H162495   0.515   3.098  12.538 -0.2436  0.4714  1.2465
13668TIP3    H262496   0.582   2.982  12.467 -0.1263  2.9866 -2.8819
13669TIP3   OH262497   2.113   5.623   0.514  0.3330 -0.1975 -0.2687
13669TIP3    H162498   2.119   5.634   0.419  2.3100 -2.7152 -0.4971
13669TIP3    H262499   2.019   5.620   0.532 -0.0611  1.1516 -2.0329
13670TIP3   OH262500   2.523   3.842   3.981  0.2018  0.5750  0.6454
13670TIP3    H162501   2.574   3.910   3.937  1.2174 -0.8365 -0.4082
13670TIP3    H262502   2.588   3.778   4.009 -0.9866 -1.3294 -0.8495
13671TIP3   OH262503   1.960   3.912  14.014  0.5226 -0.0777  0.2731
13671TIP3    H162504   1.877   3.913  14.061 -0.4519  1.0776 -1.4400
13671TIP3    H262505   1.948   3.847  13.945  0.5416  1.1021 -0.8492
13672TIP3   OH262506   4.119   3.785   0.336  0.2050 -0.0696 -0.3176
13672TIP3    H162507   4.080   3.870   0.316  1.6188  0.9260  1.0000
13672TIP3    H262508   4.045   3.724   0.334 -1.3250  1.6229  1.3425
13673TIP3   OH262509   5.442   1.055  15.333  0.3464 -0.0136  0.3680
13673TIP3    H162510   5.426   1.053  15.239 -0.3828  1.4367  0.4438
13673TIP3    H262511   5.523   1.006  15.345  2.5067  2.9363 -1.4580
13674TIP3   OH262512   5.856   3.495  15.772 -0.0220 -0.0364 -0.5618
13674TIP3    H162513   5.786   3.560  15.763  0.9548  1.3294  1.3526
13674TIP3    H262514   5.817   3.425  15.823 -0.0106  0.7538  0.5609
13675TIP3   OH262515   6.411   3.782   1.142  0.4410  0.2481  0.0815
13675TIP3    H162516   6.320   3.798   1.117  0.6868  1.3221 -0.1483
13675TIP3    H262517   6.454   3.750   1.063  0.3328  0.0214  0.1144
13676TIP3   OH262518   4.940   0.172   2.905  0.0676  0.0910  0.5744
13676TIP3    H162519   4.954   0.161   2.999 -1.2029 -0.5389  0.7059
13676TIP3    H262520   4.911   0.263   2.895  1.2209  0.4774  0.6533
13677TIP3   OH262521   1.320   4.914  14.498 -0.0992 -0.5502  0.4268
13677TIP3    H162522   1.259   4.891  14.427  0.2997  1.8490 -0.7336
13677TIP3    H262523   1.272   4.978  14.551  1.2417  1.0642 -0.2738
13678TIP3   OH262524   1.195   4.942   5.705 -0.2491  0.3947 -0.1183
13678TIP3    H162525   1.194   5.031   5.741 -0.8990  0.6562 -0.7508
13678TIP3    H262526   1.274   4.902   5.740 -0.6643  0.7607  1.2834
13679TIP3   OH262527   0.238   2.132   5.587  0.0621 -0.1542  0.1244
13679TIP3    H162528   0.195   2.103   5.506  0.0728 -1.8011  0.6950
13679TIP3    H262529   0.167   2.171   5.638 -0.1531 -0.0751 -0.2277
13680TIP3   OH262530   0.084   1.751  17.015  0.1587  0.1784  0.7209
13680TIP3    H162531   0.134   1.825  16.981  0.4319  0.1163  0.9818
13680TIP3    H262532   0.114   1.741  17.106  0.2826 -0.3782  0.6263
13681TIP3   OH262533   3.471   5.707  12.140  0.5142 -0.0243 -0.2380
13681TIP3    H162534   3.398   5.767  12.151  0.6973  0.5926 -2.2294
13681TIP3    H262535   3.463   5.645  12.213 -1.3827  0.6361  0.1289
13682TIP3   OH262536   4.576   3.504  11.189  0.0666 -0.0547 -0.5123
13682TIP3    H162537   4.521   3.492  11.111  1.6410  0.9007 -1.7881
13682TIP3    H262538   4.662   3.470  11.164  0.7157  0.7096  0.6490
13683TIP3   OH262539   5.159   4.330  11.737 -0.3431  0.2925  0.1193
13683TIP3    H162540   5.200   4.391  11.799 -0.0752  0.0945  0.1356
13683TIP3    H262541   5.172   4.370  11.652  0.5902 -0.1609  0.0421
13684TIP3   OH262542   2.276   3.775   1.893  0.2377 -0.4701  0.3889
13684TIP3    H162543   2.217   3.701   1.878 -0.4021  0.3515 -1.2331
13684TIP3    H262544   2.363   3.735   1.899  0.1836 -1.1851 -2.6953
13685TIP3   OH262545   3.870   2.546  16.293 -0.1993  0.4210  0.2174
13685TIP3    H162546   3.837   2.504  16.372 -0.2898  0.2452  0.0845
13685TIP3    H262547   3.827   2.632  16.291  1.6089  1.3963  1.6285
13686TIP3   OH262548   0.589   3.795   2.537  0.3130  0.2227 -0.0470
13686TIP3    H162549   0.501   3.828   2.557  0.8446  0.3501  2.2328
13686TIP3    H262550   0.573   3.715   2.487 -1.1302 -0.3225  1.2264
13687TIP3   OH262551   2.012   6.049   2.505 -0.1376  0.5260 -0.4146
13687TIP3    H162552   1.980   6.060   2.416 -2.9250  0.2709  0.5168
13687TIP3    H262553   2.077   5.978   2.498 -0.3202  0.5139 -2.2260
13688TIP3   OH262554   1.407   0.566   0.533 -0.1260 -0.5257  0.3243
13688TIP3    H162555   1.372   0.600   0.616  2.7654 -1.4682  2.0021
13688TIP3    H262556   1.386   0.473   0.535  0.3083 -0.6258  0.1659
13689TIP3   OH262557   4.370   0.494   2.084  0.4643 -0.4193  0.2282
13689TIP3    H162558   4.315   0.566   2.114 -0.3562 -0.5211 -0.9927
13689TIP3    H262559   4.430   0.535   2.021  1.0488 -0.5114  0.7253
13690TIP3   OH262560   1.461   5.317   5.548  0.2168 -0.0551 -0.6716
13690TIP3    H162561   1.425   5.291   5.463  0.4762 -2.1821 -0.1533
13690TIP3    H262562   1.553   5.292   5.544 -0.1208 -1.6807  0.7992
13691TIP3   OH262563   0.504   3.408   4.943 -0.1225 -0.1328 -0.0902
13691TIP3    H162564   0.485   3.383   5.033 -2.0024 -0.9481 -0.6789
13691TIP3    H262565   0.429   3.461   4.916  1.9192  2.8198 -0.1903
13692TIP3   OH262566   0.232   4.898  14.305  0.1447  0.5471 -0.1904
13692TIP3    H162567   0.158   4.943  14.346 -0.0306  0.4487 -0.4020
13692TIP3    H262568   0.199   4.811  14.284  0.3886  0.4268 -0.0788
13693TIP3   OH262569   6.660   5.947  12.679 -0.5861  0.2127  0.0280
13693TIP3    H162570   6.707   5.887  12.621 -0.5526  0.4616 -0.2037
13693TIP3    H262571   6.584   5.896  12.709 -0.7345  0.1596 -0.4235
13694TIP3   OH262572   2.880   1.407  11.689  0.7982 -0.0083  0.4348
13694TIP3    H162573   2.894   1.323  11.733  0.3739  0.5983  1.7554
13694TIP3    H262574   2.793   1.399  11.649  0.2875  0.2088  1.5029
13695TIP3   OH262575   6.580   3.790   5.844 -0.5875 -0.1369 -0.0894
13695TIP3    H162576   6.545   3.759   5.927  0.0463  0.7297  0.5095
13695TIP3    H262577   6.606   3.881   5.861 -0.5373  0.0762 -1.2543
13696TIP3   OH262578   3.446   4.179  15.316  0.1778 -0.1501 -0.1895
13696TIP3    H162579   3.430   4.085  15.310  2.0437 -0.5443  0.5208
13696TIP3    H262580   3.418   4.202  15.405 -1.1017  0.1520 -0.6617
13697TIP3   OH262581   0.465   2.971   2.828  0.7039  0.2156  0.3565
13697TIP3    H162582   0.434   2.991   2.916  0.6789  1.1751  0.1338
13697TIP3    H262583   0.400   2.911   2.792  0.0542  0.8135  0.5340
13698TIP3   OH262584   6.220   1.776   0.263 -0.1949  0.0499  0.4617
13698TIP3    H162585   6.242   1.868   0.246 -0.6198 -0.1527 -1.2956
13698TIP3    H262586   6.137   1.780   0.311 -0.7256  0.5736 -0.4774
13699TIP3   OH262587   3.403   3.510   4.862 -0.5180 -0.0390  0.2346
13699TIP3    H162588   3.412   3.488   4.954  0.8160  2.3542  0.7130
13699TIP3    H262589   3.431   3.431   4.815  1.0109 -0.4762  1.8625
13700TIP3   OH262590   3.608   5.753  15.224  0.5229  0.2516 -0.4812
13700TIP3    H162591   3.701   5.734  15.211  0.3461 -0.0495 -1.3504
13700TIP3    H262592   3.563   5.677  15.186 -0.1109  0.9986 -1.2373
13701TIP3   OH262593   6.460   1.506  12.415  0.4951 -0.3203  0.2376
13701TIP3    H162594   6.505   1.423  12.399 -0.6961 -0.8809 -0.2809
13701TIP3    H262595   6.518   1.572  12.377  0.6619 -1.0771 -0.8605
13702TIP3   OH262596   6.816   2.166  11.808  0.1765 -0.1830 -0.0540
13702TIP3    H162597   6.854   2.225  11.744 -0.1840 -0.6612 -0.7099
13702TIP3    H262598   6.733   2.208  11.832  0.3727  0.0619  0.2016
13703TIP3   OH262599   3.755   4.442   5.948  0.0701  0.4199  0.6973
13703TIP3    H162600   3.806   4.521   5.930 -0.2931  0.5512  0.2274
13703TIP3    H262601   3.679   4.472   5.996 -0.5103  0.4849 -0.2378
13704TIP3   OH262602   2.739   3.021   2.176 -0.0883  0.0525 -0.2129
13704TIP3    H162603   2.775   3.023   2.087 -0.4259  0.3124 -0.3476
13704TIP3    H262604   2.757   3.108   2.211  0.9136 -0.3739  0.3277
13705TIP3   OH262605   1.911   5.920  12.314  0.0292 -0.3046 -0.3051
13705TIP3    H162606   1.825   5.881  12.325  0.1131 -0.2015  0.7575
13705TIP3    H262607   1.914   5.948  12.222 -0.7056 -1.1580 -0.5886
13706TIP3   OH262608   0.090   6.125  10.646 -0.0783  0.2415 -0.2763
13706TIP3    H162609   0.119   6.160  10.562 -1.4197  0.8113 -0.5136
13706TIP3    H262610   0.009   6.079  10.626  0.4760 -1.0575  0.4267
13707TIP3   OH262611   1.259   2.108  10.857  0.5085  0.7955 -0.0565
13707TIP3    H162612   1.166   2.102  10.835  0.9535 -2.4552 -1.2381
13707TIP3    H262613   1.300   2.146  10.779  0.2965  1.5732  0.2045
13708TIP3   OH262614   6.402   3.583   3.273  0.4637 -0.4103 -0.1414
13708TIP3    H162615   6.412   3.595   3.368  0.8185  0.1820 -0.2513
13708TIP3    H262616   6.451   3.504   3.254 -0.5660 -1.1737  0.3489
13709TIP3   OH262617   0.286   5.745  13.600  0.0906  0.2122  0.0783
13709TIP3    H162618   0.369   5.699  13.588  0.5277  1.2763 -1.0337
13709TIP3    H262619   0.278   5.756  13.695  0.2479 -1.6414  0.3233
13710TIP3   OH262620   2.306   0.652  14.995  0.0298  0.7519  0.2272
13710TIP3    H162621   2.345   0.676  14.911  0.8736 -1.6576 -0.1191
13710TIP3    H262622   2.380   0.637  15.053 -0.3993 -1.4501  0.2658
13711TIP3   OH262623   2.263   3.897   2.166 -0.1630 -0.4922  0.4856
13711TIP3    H162624   2.283   3.850   2.085 -0.9283  1.3772 -0.8347
13711TIP3    H262625   2.345   3.896   2.215  0.1412 -2.1928 -0.0203
13712TIP3   OH262626   5.537   1.158  14.550 -0.2791  0.1524  0.4914
13712TIP3    H162627   5.519   1.209  14.470 -1.9014 -0.4619  0.4484
13712TIP3    H262628   5.625   1.123  14.536 -0.6329 -0.1484 -1.1491
13713TIP3   OH262629   3.240   6.146  15.826 -0.1899 -0.4331  0.0033
13713TIP3    H162630   3.255   6.055  15.799  1.1401 -0.2255  0.0085
13713TIP3    H262631   3.214   6.190  15.745 -0.9122 -0.8163  0.0138
13714TIP3   OH262632   0.713   2.023   5.969  0.8848  0.0135 -0.1449
13714TIP3    H162633   0.714   2.119   5.965 -0.3185 -0.0179 -1.7156
13714TIP3    H262634   0.631   2.002   6.014  1.2772 -0.2768  0.4414
13715TIP3   OH262635   0.106   3.314   3.733 -0.3532 -0.0493 -0.2781
13715TIP3    H162636   0.187   3.263   3.728 -0.3685 -0.0637 -0.3739
13715TIP3    H262637   0.132   3.396   3.775 -0.3110 -0.0994 -0.2066
13716TIP3   OH262638   6.527   6.748  14.546 -0.1198 -0.3308  0.1078
13716TIP3    H162639   6.564   6.832  14.516 -0.3484  0.0241  0.8075
13716TIP3    H262640   6.589   6.682  14.515  1.4325  0.3037  1.8130
13717TIP3   OH262641   4.292   5.031   1.584  0.3487 -0.2488 -0.7221
13717TIP3    H162642   4.242   5.091   1.529 -0.2098  0.3182  0.3819
13717TIP3    H262643   4.324   5.086   1.656  2.3749 -0.6413 -1.2788
13718TIP3   OH262644   4.121   6.164   1.313  0.4311 -0.0535 -0.2779
13718TIP3    H162645   4.026   6.155   1.319  0.1701  1.4599 -1.5435
13718TIP3    H262646   4.155   6.075   1.315 -1.0533 -0.6254 -0.2703
13719TIP3   OH262647   3.826   2.908  10.764  0.5299 -0.0645 -0.4049
13719TIP3    H162648   3.732   2.924  10.760  0.9309  2.6011  0.1128
13719TIP3    H262649   3.835   2.830  10.820 -1.3509 -0.3559 -0.4845
13720TIP3   OH262650   4.822   2.993  13.976  0.4208 -0.8579 -0.4764
13720TIP3    H162651   4.904   2.944  13.980  1.7737  1.4458  0.6667
13720TIP3    H262652   4.840   3.065  13.915 -0.9797 -0.7019 -0.7328
13721TIP3   OH262653   0.470   5.427  11.704  0.0368  0.2544  0.3688
13721TIP3    H162654   0.447   5.511  11.744 -1.9119 -0.1137  0.0743
13721TIP3    H262655   0.546   5.446  11.649  0.4923  1.5167  1.4058
13722TIP3   OH262656   0.944   3.991   2.626 -0.0181 -0.0722  0.2777
13722TIP3    H162657   0.903   4.042   2.556 -0.2263  1.5950  1.5822
13722TIP3    H262658   0.871   3.947   2.670 -0.2806  1.7816  1.7210
13723TIP3   OH262659   4.106   2.486  15.283 -0.1267  0.0194  0.2205
13723TIP3    H162660   4.036   2.550  15.268  1.1742  0.8872 -2.4629
13723TIP3    H262661   4.096   2.422  15.212  1.9845  0.3447 -0.4109
13724TIP3   OH262662   4.049   5.171  13.503 -0.4418 -0.2231  0.2599
13724TIP3    H162663   3.997   5.169  13.423 -0.0576  0.5675 -0.0159
13724TIP3    H262664   4.104   5.248  13.494 -1.4114  0.6894  1.9384
13725TIP3   OH262665   6.456   0.970   1.896  0.1275 -0.3975  0.5328
13725TIP3    H162666   6.438   0.903   1.962 -1.1369  0.2179  0.8286
13725TIP3    H262667   6.387   0.959   1.831  0.4088  0.0653  0.1493
13726TIP3   OH262668   3.800   0.096  16.437  1.0442 -0.0286 -0.1237
13726TIP3    H162669   3.786   0.170  16.495 -0.3277 -0.0968 -0.3324
13726TIP3    H262670   3.786   0.019  16.492  1.1223 -0.1051 -0.2107
13727TIP3   OH262671   5.680   0.068   5.808 -0.1053  0.3435  0.1809
13727TIP3    H162672   5.765   0.075   5.763 -0.3072  1.2978 -0.0801
13727TIP3    H262673   5.624   0.130   5.761 -1.3466 -1.3045 -0.5249
13728TIP3   OH262674   1.582   3.247   0.132 -0.5319 -0.4619 -0.8344
13728TIP3    H162675   1.639   3.320   0.155  0.5804 -1.7148  0.3965
13728TIP3    H262676   1.630   3.199   0.065 -0.7378 -0.7632 -0.7649
13729TIP3   OH262677   1.526   2.128  15.727  0.0214  0.7760  0.4283
13729TIP3    H162678   1.439   2.135  15.767 -0.7658 -0.7251 -0.9304
13729TIP3    H262679   1.561   2.045  15.760  0.1031  0.4067 -0.5508
13730TIP3   OH262680   0.391   0.003   6.034 -0.0444 -0.2392 -0.3465
13730TIP3    H162681   0.438   0.035   6.111 -0.5757  1.4023 -0.6755
13730TIP3    H262682   0.362  -0.085   6.058  0.7539 -0.1656  0.9106
13731TIP3   OH262683   6.070   4.365  13.491  0.0373  0.4609 -0.1972
13731TIP3    H162684   6.050   4.364  13.585  0.1582  0.2195 -0.1743
13731TIP3    H262685   6.137   4.434  13.482  1.0554 -0.4723  0.1046
13732TIP3   OH262686   2.019   2.866  12.264 -0.0883 -0.0084  0.3690
13732TIP3    H162687   1.977   2.780  12.257 -2.8064  1.1936  1.3111
13732TIP3    H262688   1.987   2.915  12.188  2.8154 -0.3268 -1.1397
13733TIP3   OH262689   6.722   1.821   3.864  0.2307  0.5095  0.6026
13733TIP3    H162690   6.725   1.776   3.779 -0.4430  1.2639  0.1663
13733TIP3    H262691   6.812   1.847   3.881  0.6145 -0.9748  0.8396
13734TIP3   OH262692   3.972   1.208  13.250  0.1056 -0.1746  0.2265
13734TIP3    H162693   3.883   1.180  13.230  0.4816 -1.8070  0.8046
13734TIP3    H262694   4.025   1.174  13.178  0.4500 -0.2724  0.5241
13735TIP3   OH262695   5.228   0.108  17.068  0.2413 -0.1098 -0.3705
13735TIP3    H162696   5.141   0.069  17.075  0.2619 -0.1171 -0.1374
13735TIP3    H262697   5.233   0.169  17.142  0.6644 -0.5600 -0.0299
13736TIP3   OH262698   6.508   0.261  16.360  0.8271 -0.1999  0.5767
13736TIP3    H162699   6.560   0.245  16.281  0.1967  1.0195 -0.0987
13736TIP3    H262700   6.419   0.274  16.328  0.5149 -0.0026  1.5134
13737TIP3   OH262701   2.320   4.500  15.489  0.3591 -0.2037 -0.5196
13737TIP3    H162702   2.319   4.407  15.466 -0.6463  0.1907 -2.1889
13737TIP3    H262703   2.255   4.540  15.430  0.4488  1.4763  0.4897
13738TIP3   OH262704   5.462   0.897  15.032  0.5955 -0.2023  0.9406
13738TIP3    H162705   5.383   0.845  15.048 -1.0573  1.5398 -1.2923
13738TIP3    H262706   5.521   0.838  14.985 -0.7854 -0.4492 -0.5078
13739TIP3   OH262707   0.461   2.192  17.274  0.1025  0.5789  0.2489
13739TIP3    H162708   0.510   2.115  17.304 -0.9319 -0.0058  0.4535
13739TIP3    H262709   0.435   2.171  17.185 -1.5785 -0.0007  0.8568
13740TIP3   OH262710   3.127   3.542  10.341  0.2455  0.0311 -0.6499
13740TIP3    H162711   3.187   3.530  10.268 -1.6276  0.4020 -2.2893
13740TIP3    H262712   3.144   3.468  10.399  1.2705 -0.6525 -1.8086
13741TIP3   OH262713   2.052   0.194  13.481 -0.1287 -0.2573  0.0437
13741TIP3    H162714   1.992   0.190  13.407 -0.6410 -0.9903  0.4919
13741TIP3    H262715   2.024   0.272  13.530  0.2981  0.3041 -0.6081
13742TIP3   OH262716   3.880   4.309  11.995 -0.8637  0.0065 -0.5472
13742TIP3    H162717   3.971   4.296  12.023 -1.0452 -0.4668 -0.1636
13742TIP3    H262718   3.864   4.402  12.009 -1.1193 -0.3138  1.4768
13743TIP3   OH262719   2.589   4.273   1.061 -0.2516  0.3950 -0.6710
13743TIP3    H162720   2.549   4.315   1.138  0.8672  0.3120 -0.0319
13743TIP3    H262721   2.515   4.239   1.011 -1.2551  3.5072 -1.4297
13744TIP3   OH262722   0.836   2.032  11.722  0.1865 -0.6159 -0.2169
13744TIP3    H162723   0.753   2.073  11.746  0.7555  0.7682 -0.5743
13744TIP3    H262724   0.836   1.950  11.771 -0.8878 -0.1112  0.6749
13745TIP3   OH262725   4.699   5.239  13.515 -0.0911 -0.2578 -0.4488
13745TIP3    H162726   4.618   5.191  13.499  0.2946 -0.9282 -0.4305
13745TIP3    H262727   4.729   5.266  13.428  0.2265 -0.9483 -0.5608
13746TIP3   OH262728   2.630   0.112   5.771  0.1991  0.7022  0.3592
13746TIP3    H162729   2.539   0.123   5.744  0.6261 -0.9969 -1.8836
13746TIP3    H262730   2.632   0.028   5.817  0.5922  0.8960  0.7110
13747TIP3   OH262731   0.895   0.183  16.299  0.3313  0.3486 -0.3135
13747TIP3    H162732   0.912   0.097  16.336  2.7076  0.3288 -1.3717
13747TIP3    H262733   0.839   0.166  16.223 -3.6856  0.2995  2.5388
13748TIP3   OH262734   2.004   2.327  16.050  0.6345 -0.3675  0.3220
13748TIP3    H162735   1.921   2.301  16.011  0.2783  0.7666  0.3069
13748TIP3    H262736   2.051   2.370  15.979 -0.5193  2.8357  1.4081
13749TIP3   OH262737   0.160   6.428  16.288 -0.6622  0.0435 -0.3445
13749TIP3    H162738   0.107   6.368  16.341  0.4205  0.3769  1.1708
13749TIP3    H262739   0.241   6.380  16.272  0.9819  1.7511  2.4931
13750TIP3   OH262740   5.852   0.491   5.504 -0.3218 -0.1909  0.0769
13750TIP3    H162741   5.757   0.493   5.520 -0.0657 -0.0143  1.7355
13750TIP3    H262742   5.866   0.409   5.457 -1.2758 -0.3560  0.0651
13751TIP3   OH262743   6.679   3.165  13.615 -0.0119  0.0586 -0.5827
13751TIP3    H162744   6.700   3.256  13.594  1.8621 -0.7526 -2.3973
13751TIP3    H262745   6.592   3.151  13.578 -0.1223  0.9897 -0.6778
13752TIP3   OH262746   3.203   1.731   4.699 -0.1051 -0.3504  0.4900
13752TIP3    H162747   3.235   1.668   4.764  1.5746 -1.5534 -1.4375
13752TIP3    H262748   3.112   1.748   4.725  0.2996 -1.3432  2.7186
13753TIP3   OH262749   0.475   0.436   3.733  0.1425  0.3027  0.3611
13753TIP3    H162750   0.455   0.409   3.643 -0.8541 -0.3255  0.7613
13753TIP3    H262751   0.570   0.435   3.737  0.2548  1.9748 -1.1741
13754TIP3   OH262752   5.707   4.987  14.997 -0.1099 -0.0615 -0.5855
13754TIP3    H162753   5.704   5.051  14.926 -0.2569 -0.5798 -1.0537
13754TIP3    H262754   5.617   4.954  15.003 -0.0694 -0.1126 -0.2444
13755TIP3   OH262755   5.306   6.664  12.909 -0.4583  0.3849  0.0353
13755TIP3    H162756   5.211   6.673  12.915 -0.4669 -0.5297  1.4689
13755TIP3    H262757   5.321   6.569  12.912  0.4386  0.4837 -1.2014
13756TIP3   OH262758   2.554   4.417  14.608  0.1822  0.0285  0.4883
13756TIP3    H162759   2.593   4.446  14.690  0.3856  0.3558  0.2766
13756TIP3    H262760   2.590   4.476  14.542 -0.0120 -0.2079  0.1703
13757TIP3   OH262761   2.441   3.576   2.872  0.0459 -0.0306 -0.4224
13757TIP3    H162762   2.445   3.664   2.833 -1.5381  1.2215  2.1343
13757TIP3    H262763   2.531   3.559   2.900  0.4873  0.5210 -1.4607
13758TIP3   OH262764   4.559   0.720   5.641  0.3340 -0.1288 -0.4723
13758TIP3    H162765   4.614   0.750   5.568 -1.4951  3.9232 -0.3310
13758TIP3    H262766   4.479   0.689   5.600 -0.2669  1.1465 -0.2931
13759TIP3   OH262767   4.935   5.005  14.145  0.1092 -0.2947  0.0142
13759TIP3    H162768   5.020   5.015  14.104 -0.3265  0.7408 -0.6531
13759TIP3    H262769   4.878   5.067  14.100 -0.6584  0.0597  1.4203
13760TIP3   OH262770   3.901   1.067  16.220  0.1464  0.0554  0.3799
13760TIP3    H162771   3.893   0.987  16.167 -2.2677 -0.7621  1.9322
13760TIP3    H262772   3.884   1.138  16.158  2.8379 -0.5354 -1.1456
13761TIP3   OH262773   3.541   3.377   1.214  0.0521  0.1608  0.4723
13761TIP3    H162774   3.583   3.360   1.298  1.0265 -0.6024 -0.1587
13761TIP3    H262775   3.605   3.428   1.165 -1.4271  2.6180  1.0224
13762TIP3   OH262776   4.566   2.405  13.138  0.0501 -0.7193 -0.3908
13762TIP3    H162777   4.532   2.470  13.077  0.8054 -0.4072 -0.4826
13762TIP3    H262778   4.543   2.320  13.098 -0.0542 -0.5169 -0.7645
13763TIP3   OH262779   6.368   0.390   5.063  0.0258  0.3028  0.0483
13763TIP3    H162780   6.415   0.474   5.069  0.1193  0.1879  1.0995
13763TIP3    H262781   6.371   0.367   4.970  1.9113  0.3786  0.0722
13764TIP3   OH262782   1.539   5.761  12.022 -0.0233  0.0608 -0.2984
13764TIP3    H162783   1.471   5.812  11.979 -0.7504  1.1823  2.1166
13764TIP3    H262784   1.620   5.791  11.981 -0.6495  1.5598 -0.4775
13765TIP3   OH262785   1.753   0.851   5.475 -0.3682  0.1698 -0.0882
13765TIP3    H162786   1.717   0.889   5.555  1.7619  1.3091  0.3647
13765TIP3    H262787   1.716   0.903   5.404 -0.6153  0.5067  0.2885
13766TIP3   OH262788   6.431   2.357   2.657  0.0941  0.0479 -0.3498
13766TIP3    H162789   6.473   2.286   2.708  1.4294 -0.3476 -1.9575
13766TIP3    H262790   6.337   2.341   2.667  0.3626 -1.1410  0.4285
13767TIP3   OH262791   5.082   6.672  11.994  0.0257  0.0775  0.0449
13767TIP3    H162792   5.156   6.678  11.934  0.9227 -0.1150  1.1099
13767TIP3    H262793   5.117   6.628  12.071 -0.8667  1.1465  1.0851
13768TIP3   OH262794   2.960   1.526  12.354  0.0995 -0.2795  0.3901
13768TIP3    H162795   3.043   1.560  12.321 -0.3690  0.0549 -0.4652
13768TIP3    H262796   2.960   1.548  12.447  0.7603  0.1319  0.2932
13769TIP3   OH262797   2.889   2.023  15.295 -0.0245 -0.2094 -0.1014
13769TIP3    H162798   2.836   2.016  15.375  0.4703 -0.2101  0.2281
13769TIP3    H262799   2.961   1.961  15.308  1.4324  1.5608  0.5257
13770TIP3   OH262800   4.601   4.965   4.955 -0.4085  0.6661 -0.0058
13770TIP3    H162801   4.510   4.943   4.977  0.2843 -1.5483  0.7788
13770TIP3    H262802   4.628   5.025   5.025 -0.3401 -1.0552  1.4946
13771TIP3   OH262803   0.966   4.362  16.672  0.1196  0.1080  0.6094
13771TIP3    H162804   1.044   4.396  16.716  0.5848 -0.5564  0.3036
13771TIP3    H262805   0.951   4.277  16.712  0.0099 -0.1071  0.1109
13772TIP3   OH262806   5.201   0.698   5.761  0.8871 -0.3802  0.3872
13772TIP3    H162807   5.254   0.709   5.840  0.0400  0.6099  0.8417
13772TIP3    H262808   5.249   0.744   5.693 -0.1632  1.9961  1.1725
13773TIP3   OH262809   0.534   0.524  11.639 -0.9359 -0.7283  0.0041
13773TIP3    H162810   0.605   0.553  11.697 -0.5233 -1.0673 -0.3180
13773TIP3    H262811   0.577   0.511  11.554 -2.0001  2.1737 -1.0469
13774TIP3   OH262812   5.930   5.875   0.253 -0.2548  0.7801  0.3429
13774TIP3    H162813   5.912   5.864   0.159  0.2329 -1.5683  0.5021
13774TIP3    H262814   5.847   5.908   0.289 -0.0861  2.8534 -1.0766
13775TIP3   OH262815   3.853   5.953  12.275 -0.6672 -0.1420  0.2994
13775TIP3    H162816   3.817   5.952  12.186  0.2048 -0.7877 -0.0505
13775TIP3    H262817   3.882   6.043  12.288  0.3779 -0.3379 -0.5597
13776TIP3   OH262818   4.461   5.012   4.552 -0.6216  0.1197  0.0463
13776TIP3    H162819   4.483   4.926   4.587  0.2202  1.1038  2.0054
13776TIP3    H262820   4.494   5.011   4.462  1.1913 -0.8954  0.7045
13777TIP3   OH262821   0.736   1.055  16.469 -0.2774 -0.6049  0.2286
13777TIP3    H162822   0.767   0.966  16.450 -0.0268 -0.6544  0.8561
13777TIP3    H262823   0.700   1.086  16.386  2.6202 -0.0623 -0.9085
13778TIP3   OH262824   0.377   6.675  14.226  0.9404  0.8945 -0.3153
13778TIP3    H162825   0.419   6.594  14.257  1.3915  0.7083 -1.3987
13778TIP3    H262826   0.431   6.703  14.153 -0.8278  0.6497 -1.7478
13779TIP3   OH262827   2.931   5.773   1.600  0.2272  0.5383  0.0702
13779TIP3    H162828   2.915   5.821   1.519  1.4407  0.9260  0.0555
13779TIP3    H262829   2.848   5.780   1.648 -0.4594  0.4057 -1.0714
13780TIP3   OH262830   6.694   5.261   2.004 -0.7226 -0.2168 -0.0080
13780TIP3    H162831   6.743   5.340   2.026  1.0748 -1.7627  1.6366
13780TIP3    H262832   6.609   5.274   2.047  1.0431 -1.0263  3.9790
13781TIP3   OH262833   3.550   0.396  12.991 -0.0795  0.1850  0.1219
13781TIP3    H162834   3.508   0.353  13.065 -0.4630  2.7862  1.4801
13781TIP3    H262835   3.601   0.467  13.030 -0.7868  2.0018 -2.1567
13782TIP3   OH262836   0.316   6.451   0.732  0.3321  0.3236 -0.3371
13782TIP3    H162837   0.386   6.476   0.673 -0.8304  0.5865 -1.6257
13782TIP3    H262838   0.327   6.356   0.743  1.2619  0.4602 -0.0060
13783TIP3   OH262839   3.310   5.258   6.175 -0.1504  0.8158 -0.2321
13783TIP3    H162840   3.307   5.224   6.085  0.3150  0.0953  0.0212
13783TIP3    H262841   3.396   5.299   6.182  0.0985  0.2377  0.1094
13784TIP3   OH262842   3.971   1.442  14.025  0.1262 -0.2608  0.1304
13784TIP3    H162843   4.048   1.456  13.970  0.7212 -0.4892  0.8887
13784TIP3    H262844   3.964   1.523  14.076  0.8750 -0.9009  1.2707
13785TIP3   OH262845   3.386   5.165  15.032  0.2055 -0.3618 -0.3965
13785TIP3    H162846   3.362   5.229  14.965  0.5239  1.1665  0.9038
13785TIP3    H262847   3.303   5.126  15.058 -0.0208 -0.3370 -1.0751
13786TIP3   OH262848   6.544   6.439   2.471  0.1784 -0.2850  0.6205
13786TIP3    H162849   6.490   6.381   2.417 -1.4822  1.0485  0.8362
13786TIP3    H262850   6.494   6.520   2.478  2.1366  0.9416  0.9475
13787TIP3   OH262851   3.208   4.656  12.696  0.1419  0.3357 -0.6878
13787TIP3    H162852   3.180   4.747  12.705 -0.7137  0.3021 -2.7538
13787TIP3    H262853   3.304   4.661  12.695  0.1000  1.2380 -0.9945
13788TIP3   OH262854   1.069   2.669   2.613  0.1299 -0.3016  0.0874
13788TIP3    H162855   1.070   2.737   2.545 -2.4372 -0.2803 -0.0007
13788TIP3    H262856   1.033   2.713   2.690 -0.0112 -1.1408  0.5027
13789TIP3   OH262857   2.893   6.119   1.559 -0.7538 -0.1958  0.4334
13789TIP3    H162858   2.811   6.160   1.533 -0.8722 -0.2036  0.7815
13789TIP3    H262859   2.896   6.037   1.510 -1.1360 -0.3717  0.6967
13790TIP3   OH262860   5.089   3.921   0.352 -0.1481 -0.0165  0.0811
13790TIP3    H162861   5.042   3.969   0.420 -0.2839  0.0640 -0.0685
13790TIP3    H262862   5.043   3.838   0.345 -0.0591 -0.0743  0.1708
13791TIP3   OH262863   3.323   2.919   5.806 -0.4785  0.4141  0.3822
13791TIP3    H162864   3.392   2.877   5.857 -0.2487  0.5794  0.2059
13791TIP3    H262865   3.263   2.954   5.872  1.2147  3.0284  0.6115
13792TIP3   OH262866   5.604   6.350   0.683  0.2593  0.1700  0.5587
13792TIP3    H162867   5.699   6.360   0.693  0.3412 -1.0224  1.0567
13792TIP3    H262868   5.573   6.327   0.770 -0.4242  0.0297  0.2802
13793TIP3   OH262869   0.876   1.764   5.061 -0.0540  0.6139  0.2555
13793TIP3    H162870   0.967   1.764   5.089  0.7215  0.3703 -2.1896
13793TIP3    H262871   0.880   1.758   4.966 -2.6779 -1.6504  0.2419
13794TIP3   OH262872   1.478   4.621   5.157  0.1767 -0.3821 -0.0849
13794TIP3    H162873   1.556   4.579   5.193 -0.8285 -2.1869  0.0467
13794TIP3    H262874   1.430   4.653   5.234 -0.8427 -2.2207  0.0637
13795TIP3   OH262875   6.576   4.251   1.697  0.3985 -0.0348  0.4049
13795TIP3    H162876   6.610   4.161   1.696 -2.1338 -1.0499  1.0080
13795TIP3    H262877   6.594   4.284   1.609  0.2296 -1.5935 -0.2368
13796TIP3   OH262878   1.114   6.689   5.507 -0.3353 -0.3714 -0.2258
13796TIP3    H162879   1.155   6.697   5.421 -0.5089  0.5981 -0.2202
13796TIP3    H262880   1.038   6.748   5.504  0.4581  0.7624  1.0629
13797TIP3   OH262881   1.445   6.039  16.610  0.1514  0.2355  0.2806
13797TIP3    H162882   1.495   6.114  16.644  0.0686  0.9217 -1.0488
13797TIP3    H262883   1.370   6.079  16.566 -0.4664 -0.6948  0.4752
13798TIP3   OH262884   5.800   4.803   5.206  0.4227 -0.0977  0.0864
13798TIP3    H162885   5.836   4.890   5.187  0.2044 -0.2663 -1.1487
13798TIP3    H262886   5.863   4.764   5.267  0.9245  0.6270  0.0384
13799TIP3   OH262887   1.226   6.328  15.641 -0.2258  0.3262 -0.0711
13799TIP3    H162888   1.200   6.364  15.556  0.6647 -1.1628 -1.0023
13799TIP3    H262889   1.235   6.234  15.626  2.1516  0.3103  1.0957
13800TIP3   OH262890   0.895   2.651   0.293 -0.6380 -0.7625 -0.2617
13800TIP3    H162891   0.870   2.668   0.202 -1.4022 -2.2327 -0.3462
13800TIP3    H262892   0.854   2.721   0.343 -2.4367 -1.4344 -0.7591
13801TIP3   OH262893   6.241   6.458  14.707  0.0829 -0.4533  0.3717
13801TIP3    H162894   6.160   6.431  14.750  0.7238 -0.1027  1.8256
13801TIP3    H262895   6.286   6.511  14.772  1.9340 -1.4521 -0.0806
13802TIP3   OH262896   0.827   0.186  14.663 -0.3855 -0.2020  0.4496
13802TIP3    H162897   0.787   0.217  14.582 -0.8421  0.2156  0.8316
13802TIP3    H262898   0.802   0.093  14.669 -1.7007  0.1678  0.9148
13803TIP3   OH262899   5.884   1.452   0.326 -0.1763  0.0378 -0.6318
13803TIP3    H162900   5.830   1.374   0.340 -1.3693  1.0296  0.3496
13803TIP3    H262901   5.974   1.419   0.325 -0.6115 -1.2166  0.8096
13804TIP3   OH262902   1.847   2.559   2.900 -0.4946 -0.5096  0.1850
13804TIP3    H162903   1.799   2.510   2.833 -0.8034 -0.6694  0.5235
13804TIP3    H262904   1.778   2.601   2.952 -0.2545 -0.4835  0.4767
13805TIP3   OH262905   6.273   4.285  13.770  0.3253  0.1518  0.0734
13805TIP3    H162906   6.304   4.364  13.813 -0.6534 -0.1201  1.3190
13805TIP3    H262907   6.332   4.273  13.695  1.9937  0.6929  1.2826
13806TIP3   OH262908   5.553   6.289  13.763  0.3042 -0.0514 -0.1143
13806TIP3    H162909   5.556   6.375  13.719  1.9304 -0.7609 -1.4571
13806TIP3    H262910   5.624   6.292  13.826 -1.4229  0.6048  1.8460
13807TIP3   OH262911   0.655   0.072  15.203  0.7256  0.1444  0.3293
13807TIP3    H162912   0.678   0.023  15.124 -1.7056  3.2677 -2.4517
13807TIP3    H262913   0.737   0.114  15.230  1.3059  0.1449 -1.3573
13808TIP3   OH262914   3.749   1.208   1.085 -0.2882  0.3504  0.7608
13808TIP3    H162915   3.806   1.228   1.159  2.2826 -0.4715 -0.9133
13808TIP3    H262916   3.715   1.121   1.103  0.6953 -0.0362  0.7774
13809TIP3   OH262917   1.951   4.814  14.095  0.1291 -0.6045  0.6965
13809TIP3    H162918   1.857   4.821  14.110  0.3614  0.5941  1.7543
13809TIP3    H262919   1.975   4.731  14.135 -0.5393 -1.0651  0.1416
13810TIP3   OH262920   5.477   5.395   3.588  0.3541  0.4563 -0.4005
13810TIP3    H162921   5.466   5.490   3.599 -2.1941  0.0711  0.7511
13810TIP3    H262922   5.494   5.363   3.676  0.1001 -0.2710 -0.6141
13811TIP3   OH262923   2.906   5.005  13.037 -0.7833  0.3505  0.0837
13811TIP3    H162924   2.854   5.035  12.963  0.5829  0.3200 -0.9174
13811TIP3    H262925   2.931   4.916  13.014  0.1860  0.5702  0.2682
13812TIP3   OH262926   2.777   1.267  14.113 -0.1922 -0.5421 -0.2805
13812TIP3    H162927   2.791   1.332  14.044  2.6892 -1.6763 -0.8456
13812TIP3    H262928   2.683   1.248  14.110 -0.8662  2.5432 -1.0168
13813TIP3   OH262929   3.916   6.478  15.101  0.4176 -0.5412  0.0965
13813TIP3    H162930   3.836   6.524  15.076 -0.3085 -0.9365  1.6561
13813TIP3    H262931   3.930   6.500  15.193  1.7511 -1.0011  0.0245
13814TIP3   OH262932   6.390   3.301   1.263  0.3234 -0.5940 -0.0924
13814TIP3    H162933   6.456   3.234   1.283  2.1084  0.7104 -1.4012
13814TIP3    H262934   6.426   3.348   1.187 -2.5762 -0.4422 -1.4169
13815TIP3   OH262935   0.466   2.719  11.212 -1.0052 -0.4056  0.1149
13815TIP3    H162936   0.536   2.735  11.276 -0.0263 -1.0293 -0.7882
13815TIP3    H262937   0.478   2.787  11.146 -1.8054  0.0241  0.4028
13816TIP3   OH262938   3.867   1.184   0.329  0.2822  0.4751 -0.0410
13816TIP3    H162939   3.847   1.162   0.238  0.8616 -0.1338 -0.0232
13816TIP3    H262940   3.873   1.099   0.373 -0.9440  0.8002  0.7704
13817TIP3   OH262941   1.985   0.593   2.728  0.0319 -0.1300 -0.0476
13817TIP3    H162942   2.009   0.527   2.793 -0.4500  0.7232  1.0244
13817TIP3    H262943   1.929   0.546   2.666 -1.1032 -0.5112  1.2435
13818TIP3   OH262944   5.922   1.495  14.023  0.2818  0.0400 -0.2359
13818TIP3    H162945   5.827   1.489  14.013  0.1016 -1.5632  2.0415
13818TIP3    H262946   5.935   1.537  14.108  1.6528  2.4088 -1.5574
13819TIP3   OH262947   2.453   2.603   0.698  0.1954  0.0604 -0.2308
13819TIP3    H162948   2.518   2.669   0.671 -0.1954  0.4205 -0.2927
13819TIP3    H262949   2.436   2.622   0.790 -0.6895  0.7060 -0.5163
13820TIP3   OH262950   4.560   3.966  10.546  0.5749 -0.2881  0.9170
13820TIP3    H162951   4.593   3.940  10.632  1.9850 -0.3001  0.3744
13820TIP3    H262952   4.566   4.062  10.546  0.5382 -0.2858  0.8492
13821TIP3   OH262953   4.263   5.752  17.031 -0.8127 -0.5784  0.7320
13821TIP3    H162954   4.258   5.730  17.124 -2.8812 -0.3287  0.7015
13821TIP3    H262955   4.175   5.784  17.009 -0.0152  0.4759 -1.0287
13822TIP3   OH262956   0.929   4.700  12.954 -0.0931  0.0506  0.3289
13822TIP3    H162957   1.006   4.706  12.897  0.4597  0.9245  1.1567
13822TIP3    H262958   0.881   4.781  12.939 -1.5364 -1.0327 -1.1212
13823TIP3   OH262959   4.348   0.545   3.135 -0.5030  0.2764 -0.2426
13823TIP3    H162960   4.321   0.620   3.187  0.5224  1.1845 -0.9830
13823TIP3    H262961   4.426   0.511   3.179 -0.6020  0.0292 -0.2547
13824TIP3   OH262962   4.768   4.312   5.018  1.1036  0.4004  0.0147
13824TIP3    H162963   4.693   4.254   5.024  2.3694 -1.6245 -2.5721
13824TIP3    H262964   4.734   4.398   5.042 -2.1159 -0.4030 -1.4054
13825TIP3   OH262965   4.038   3.066   3.868 -0.0848  0.3807  0.0230
13825TIP3    H162966   4.107   3.103   3.813  1.0481 -0.9825  0.4821
13825TIP3    H262967   4.056   2.971   3.868 -1.6054  0.0783  0.6339
13826TIP3   OH262968   3.333   6.512  16.615 -0.1065 -0.5017 -0.5122
13826TIP3    H162969   3.397   6.442  16.624 -2.7193 -3.0107 -0.6249
13826TIP3    H262970   3.313   6.515  16.521  1.0383  1.4080 -0.7192
13827TIP3   OH262971   3.555   5.134  11.616  0.3684  0.2397 -0.0174
13827TIP3    H162972   3.567   5.089  11.700  2.3443  0.6167 -0.0893
13827TIP3    H262973   3.551   5.226  11.640 -0.6862  0.2483 -0.1905
13828TIP3   OH262974   6.087   1.522  15.405 -0.0818  0.4105  0.4206
13828TIP3    H162975   6.103   1.611  15.434 -0.9399  0.7232 -0.0627
13828TIP3    H262976   6.021   1.530  15.336 -0.2410 -0.6015  0.4446
13829TIP3   OH262977   1.550   3.196   1.604 -0.0792 -0.8282 -0.5198
13829TIP3    H162978   1.641   3.203   1.633 -0.5002 -1.8945  1.1235
13829TIP3    H262979   1.534   3.277   1.555  1.5210 -0.2980 -0.1988
13830TIP3   OH262980   4.790   1.942   5.019 -0.5285 -0.4192  0.1570
13830TIP3    H162981   4.842   1.973   4.945 -0.9578 -1.4169 -0.5792
13830TIP3    H262982   4.853   1.902   5.079 -0.2851 -0.4151 -0.0989
13831TIP3   OH262983   4.083   2.396   4.785 -0.8603 -0.2424  0.0711
13831TIP3    H162984   4.122   2.394   4.697 -3.2775 -0.4679 -1.0183
13831TIP3    H262985   4.156   2.419   4.842  0.4792  1.2319 -2.1445
13832TIP3   OH262986   5.307   5.520  12.300 -0.2021  0.4459  0.3126
13832TIP3    H162987   5.360   5.445  12.328  1.0462  1.3761  0.4667
13832TIP3    H262988   5.304   5.512  12.205  1.4595  1.1911  0.1751
13833TIP3   OH262989   3.094   4.598  13.884 -0.0380  0.0005  0.2146
13833TIP3    H162990   3.165   4.656  13.914 -0.9211  1.7344 -0.9401
13833TIP3    H262991   3.109   4.587  13.791 -1.3832  0.5509 -0.0822
13834TIP3   OH262992   4.483   2.519  13.635  0.0306 -0.4467  0.0603
13834TIP3    H162993   4.459   2.467  13.558 -1.2043 -2.5165  1.7896
13834TIP3    H262994   4.410   2.580  13.646 -0.4747 -1.1145  0.4250
13835TIP3   OH262995   3.142   3.019  14.607 -0.0857  0.2399  0.1113
13835TIP3    H162996   3.085   3.087  14.572  2.2233  1.6501 -1.0747
13835TIP3    H262997   3.083   2.951  14.639 -2.3882  1.4445 -1.4631
13836TIP3   OH262998   6.211   3.704  11.403  0.0521  0.2537 -0.2291
13836TIP3    H162999   6.120   3.684  11.380 -0.5349  1.6221  0.8465
13836TIP3    H263000   6.227   3.790  11.363  0.3862  0.7042  0.8776
13837TIP3   OH263001   3.784   1.143   2.946 -0.0166 -0.1047  0.8616
13837TIP3    H163002   3.741   1.137   3.031  0.5468  1.6303  1.2875
13837TIP3    H263003   3.877   1.131   2.965  0.1092  0.2515  0.4912
13838TIP3   OH263004   3.371   2.275   4.545  0.5808 -1.0944  0.2042
13838TIP3    H163005   3.317   2.207   4.504  0.1366 -0.3482 -0.4741
13838TIP3    H263006   3.371   2.346   4.481 -0.8784  0.4531  1.8621
13839TIP3   OH263007   6.656   6.593  16.762 -0.5412  0.0941  0.0696
13839TIP3    H163008   6.624   6.529  16.698  1.2477 -1.0826  0.2930
13839TIP3    H263009   6.676   6.671  16.711 -0.4107 -0.3792 -0.6090
13840TIP3   OH263010   4.724   1.682   0.179  0.0449 -0.2028  0.6230
13840TIP3    H163011   4.638   1.660   0.213  0.7363 -2.7836  0.7739
13840TIP3    H263012   4.780   1.609   0.205  1.7864  0.3862 -1.3236
13841TIP3   OH263013   6.571   0.206   0.157  0.0020  0.0972  0.2074
13841TIP3    H163014   6.646   0.202   0.217  0.9091 -0.7810 -0.9539
13841TIP3    H263015   6.608   0.182   0.072 -1.8364 -1.4559 -0.1668
13842TIP3   OH263016   0.103   6.406   2.499 -0.5357  0.1426 -0.1436
13842TIP3    H163017   0.144   6.382   2.582 -2.0537  0.4060  0.7136
13842TIP3    H263018   0.172   6.395   2.434  0.3760 -1.1330  0.9987
13843TIP3   OH263019   2.272   2.408   4.560 -0.3317 -0.1741 -0.0339
13843TIP3    H163020   2.327   2.441   4.488 -1.4266 -0.2110 -0.9065
13843TIP3    H263021   2.259   2.315   4.539 -0.8913 -0.1176  0.0521
13844TIP3   OH263022   2.604   5.593  12.044 -0.1710  0.5804 -0.1648
13844TIP3    H163023   2.578   5.630  11.960 -2.4309 -1.2582 -0.3358
13844TIP3    H263024   2.668   5.525  12.021 -0.8606  0.0107 -0.4238
13845TIP3   OH263025   3.790   0.578   3.944  0.2736 -0.5430 -0.0836
13845TIP3    H163026   3.827   0.662   3.970  0.5896 -0.2845 -1.3188
13845TIP3    H263027   3.849   0.512   3.982  1.1074 -0.1665 -0.7103
13846TIP3   OH263028   4.304   1.118  11.534  0.4020 -0.0707 -0.3656
13846TIP3    H163029   4.322   1.194  11.590  1.8550 -0.5405 -0.1761
13846TIP3    H263030   4.222   1.140  11.489  0.1784  1.0872  0.5936
13847TIP3   OH263031   5.606   6.614  13.475  0.2374  0.1418 -0.4236
13847TIP3    H163032   5.650   6.692  13.443 -0.4034  0.5086 -0.4295
13847TIP3    H263033   5.513   6.637  13.474  0.2540  0.4980  2.6399
13848TIP3   OH263034   5.732   2.356  13.073 -0.1619 -0.2461  0.5711
13848TIP3    H163035   5.644   2.394  13.073 -0.1527 -0.1791  1.8032
13848TIP3    H263036   5.733   2.297  12.997 -1.0611  0.2230  0.1855
13849TIP3   OH263037   3.623   5.557  13.855 -0.3252  0.3544 -0.0179
13849TIP3    H163038   3.718   5.556  13.845 -0.2203  1.6557  0.8070
13849TIP3    H263039   3.590   5.569  13.765  0.2238 -1.7069 -0.5237
13850TIP3   OH263040   1.586   4.733   6.428  0.1172 -0.4289  0.3913
13850TIP3    H163041   1.529   4.669   6.387  1.2953  0.3616 -2.6397
13850TIP3    H263042   1.554   4.818   6.396  1.4816  0.1668  0.5626
13851TIP3   OH263043   3.119   0.419   0.644 -0.3643 -0.2732 -0.4144
13851TIP3    H163044   3.094   0.328   0.635  2.9180 -1.1269 -1.6216
13851TIP3    H263045   3.169   0.439   0.565  0.1608  2.1589  0.4621
13852TIP3   OH263046   4.229   5.905   1.448  0.9477  0.7816  0.3602
13852TIP3    H163047   4.184   5.823   1.467  1.1899  0.3168 -0.9944
13852TIP3    H263048   4.228   5.953   1.531  0.4538 -0.4166  1.0607
13853TIP3   OH263049   6.329   1.763  14.000 -0.2070 -0.2463 -0.1483
13853TIP3    H163050   6.288   1.775  13.914  0.9444  1.3849 -0.4931
13853TIP3    H263051   6.255   1.752  14.060 -1.0568 -0.2288 -1.1695
13854TIP3   OH263052   0.347   6.228  12.335 -0.5094 -0.1049 -0.0450
13854TIP3    H163053   0.346   6.236  12.430  1.5094 -1.4176  0.1314
13854TIP3    H263054   0.295   6.150  12.316 -0.0643 -0.4326  0.0706
13855TIP3   OH263055   0.032   3.343  13.112 -0.6817 -0.0806  0.0658
13855TIP3    H163056   0.109   3.398  13.093 -0.0074 -0.7473  0.8327
13855TIP3    H263057  -0.018   3.344  13.031  0.0927  0.4385 -0.4203
13856TIP3   OH263058   2.193   0.588   1.572 -0.1294 -0.1446 -0.4285
13856TIP3    H163059   2.216   0.669   1.527 -0.7991  0.1909 -0.1816
13856TIP3    H263060   2.248   0.521   1.531  1.0007  0.5639 -0.0965
13857TIP3   OH263061   3.537   4.200  12.366 -0.0820  0.1660  0.7794
13857TIP3    H163062   3.604   4.246  12.418 -0.7152  0.7355  1.0967
13857TIP3    H263063   3.563   4.215  12.275  0.4308  0.0682  0.9052
13858TIP3   OH263064   1.503   0.608  16.719  0.3253 -0.0839 -0.5122
13858TIP3    H163065   1.577   0.575  16.668  1.6527  2.4959 -0.3331
13858TIP3    H263066   1.522   0.701  16.732 -2.0376  0.2195  1.1421
13859TIP3   OH263067   0.975   3.849  16.867 -0.0002  0.0441 -0.1438
13859TIP3    H163068   1.000   3.784  16.802  0.5817 -1.0722  1.1860
13859TIP3    H263069   1.055   3.865  16.917 -0.4586  0.8684  0.3443
13860TIP3   OH263070   0.631   5.974  12.145  0.2589  0.6251 -0.0249
13860TIP3    H163071   0.614   5.929  12.062  0.5508  3.5035 -1.7313
13860TIP3    H263072   0.638   5.904  12.210  1.2756 -1.8063 -2.6493
13861TIP3   OH263073   1.878   1.986  12.847 -0.2125  0.6560 -0.7961
13861TIP3    H163074   1.805   2.022  12.899 -0.3670 -0.0131 -0.5413
13861TIP3    H263075   1.846   1.989  12.757 -0.3469  0.8586 -0.7430
13862TIP3   OH263076   2.932   6.420   1.837 -0.2840  0.7239 -0.3504
13862TIP3    H163077   2.877   6.384   1.906  2.8458 -0.6654  1.5127
13862TIP3    H263078   2.915   6.514   1.838 -2.9027  0.2835 -0.1520
13863TIP3   OH263079   0.330   4.502  15.031  0.0847 -0.1884  0.0654
13863TIP3    H163080   0.361   4.588  15.002  0.7205 -0.5713 -0.3925
13863TIP3    H263081   0.409   4.457  15.061 -0.4542 -0.0491  1.8048
13864TIP3   OH263082   5.568   3.879  13.664  0.9041  0.3770 -0.6444
13864TIP3    H163083   5.655   3.902  13.632  0.6330  0.4212 -1.3680
13864TIP3    H263084   5.584   3.822  13.739  1.5346 -0.9827 -1.8007
13865TIP3   OH263085   0.076   2.251  14.275 -0.5246  0.0096 -0.5385
13865TIP3    H163086   0.061   2.246  14.180  0.1211 -0.8896 -0.6013
13865TIP3    H263087   0.134   2.177  14.294  1.3638  1.6313  0.1610
13866TIP3   OH263088   5.947   2.253   1.725  0.5171 -0.7663 -0.8006
13866TIP3    H163089   5.912   2.177   1.679 -0.0904 -1.0828  0.1905
13866TIP3    H263090   5.972   2.220   1.811  1.6528 -0.1689 -0.8937
13867TIP3   OH263091   2.826   4.311  12.249  0.4423 -0.7222  0.4216
13867TIP3    H163092   2.801   4.374  12.181 -0.0030 -1.5969 -0.2368
13867TIP3    H263093   2.917   4.288  12.228  0.4130 -0.7415  0.3168
13868TIP3   OH263094   5.207   6.383   0.981  0.3640 -0.1473 -0.1807
13868TIP3    H163095   5.197   6.295   1.019  0.4708 -0.6098 -1.2023
13868TIP3    H263096   5.122   6.403   0.943  0.0957  0.5459  0.7687
13869TIP3   OH263097   1.343   4.631   4.286 -0.5035  0.1797  0.3712
13869TIP3    H163098   1.327   4.573   4.361 -1.3227 -0.1915 -0.0837
13869TIP3    H263099   1.352   4.718   4.324  0.5887 -0.2188  1.0519
13870TIP3   OH263100   5.498   3.508  12.227 -0.5878  0.3931  0.3987
13870TIP3    H163101   5.446   3.540  12.301  0.6435  1.1897  0.9233
13870TIP3    H263102   5.450   3.540  12.150 -1.1182  0.7543  0.8655
13871TIP3   OH263103   5.544   1.845   5.098  0.5383 -0.1283 -0.2325
13871TIP3    H163104   5.596   1.923   5.078 -0.0532  0.8096  1.8415
13871TIP3    H263105   5.608   1.782   5.131  0.9199 -0.3244 -1.3128
13872TIP3   OH263106   1.772   6.050  12.071 -0.9274  0.3256  0.3836
13872TIP3    H163107   1.702   6.043  12.136  1.9852 -1.8980  3.3920
13872TIP3    H263108   1.826   6.124  12.101  0.0570 -0.2811  0.1196
13873TIP3   OH263109   5.007   2.829  11.283  0.3375 -0.0022 -0.4165
13873TIP3    H163110   4.945   2.884  11.331  0.0052 -2.6333  2.2905
13873TIP3    H263111   5.093   2.855  11.317  0.3326  0.0890 -0.4720
13874TIP3   OH263112   4.185   3.125   3.192 -0.2422  0.4960  0.6624
13874TIP3    H163113   4.174   3.212   3.229  0.6029  0.4905  0.9202
13874TIP3    H263114   4.242   3.138   3.117 -0.6207  0.2530  0.3278
13875TIP3   OH263115   3.702   0.898   5.568  0.4017 -0.0032  0.0836
13875TIP3    H163116   3.662   0.981   5.594  0.0513  0.0357 -0.5686
13875TIP3    H263117   3.790   0.923   5.538 -0.0388  0.2642 -1.0118
13876TIP3   OH263118   5.847   1.411   2.527  0.1691  0.2338  0.1243
13876TIP3    H163119   5.893   1.493   2.508  1.4657 -0.2570  1.0568
13876TIP3    H263120   5.917   1.350   2.552 -0.9847 -0.5448  1.5186
13877TIP3   OH263121   0.898   4.316  16.047  0.4084  0.0109  0.1462
13877TIP3    H163122   0.929   4.233  16.012 -2.3709 -1.7555  1.7498
13877TIP3    H263123   0.803   4.312  16.039  0.0385  1.8228  2.8827
13878TIP3   OH263124   4.732   4.914   3.663 -0.4141  0.2682  0.0802
13878TIP3    H163125   4.777   4.973   3.722 -1.0767  1.6540 -0.7786
13878TIP3    H263126   4.653   4.889   3.710 -1.3579  2.0295 -0.5214
13879TIP3   OH263127   4.560   6.034   3.945  0.1484 -0.5637 -0.0026
13879TIP3    H163128   4.627   6.097   3.973 -0.2016  0.3199 -1.1595
13879TIP3    H263129   4.479   6.084   3.943  0.1445 -0.6412 -2.5145
13880TIP3   OH263130   0.384   3.509   5.490  0.2757  0.3994  0.0165
13880TIP3    H163131   0.400   3.415   5.502 -0.4848  0.3669  0.8418
13880TIP3    H263132   0.432   3.551   5.562 -3.2205  0.3011  2.4974
13881TIP3   OH263133   0.633   4.261   4.208  0.5183 -0.3916 -0.2874
13881TIP3    H163134   0.576   4.218   4.273  1.2893  0.1455  0.7657
13881TIP3    H263135   0.573   4.305   4.149 -0.1907 -0.1981  0.5564
13882TIP3   OH263136   2.296   6.097  10.951 -0.5260 -0.6732  0.0088
13882TIP3    H163137   2.229   6.083  11.019 -1.4737 -1.3781 -1.0509
13882TIP3    H263138   2.284   6.188  10.925 -1.7917 -1.0907 -0.9185
13883TIP3   OH263139   0.508   5.582  16.791  0.1272 -0.2362 -0.4613
13883TIP3    H163140   0.562   5.642  16.739  0.8642 -0.5820 -0.0906
13883TIP3    H263141   0.514   5.498  16.745 -1.5384  0.1384 -1.4232
13884TIP3   OH263142   4.263   3.520   0.382  0.1493  0.2615 -0.4087
13884TIP3    H163143   4.358   3.511   0.371 -0.1529 -0.3199 -2.6943
13884TIP3    H263144   4.249   3.614   0.393  1.0428  0.2917  0.5429
13885TIP3   OH263145   1.431   1.451  14.779  0.3671 -0.0384 -0.5369
13885TIP3    H163146   1.336   1.438  14.788  0.2842  1.2359  0.6868
13885TIP3    H263147   1.457   1.390  14.710 -1.3157 -0.5298 -0.7740
13886TIP3   OH263148   2.619   3.777  12.428 -0.0925 -0.1018 -0.4038
13886TIP3    H163149   2.622   3.681  12.422 -1.9119 -0.3255  1.4588
13886TIP3    H263150   2.631   3.808  12.339 -0.1953 -2.0981 -1.1298
13887TIP3   OH263151   0.802   2.468   2.629  0.5363 -0.1994 -0.1498
13887TIP3    H163152   0.760   2.397   2.678  2.3432 -2.3227 -1.5767
13887TIP3    H263153   0.895   2.457   2.648  0.8466  1.8108 -0.4106
13888TIP3   OH263154   5.534   4.444   3.066  0.5946 -0.1481 -0.2803
13888TIP3    H163155   5.502   4.527   3.102 -0.4801 -0.4298 -0.5623
13888TIP3    H263156   5.530   4.383   3.140  3.5822  0.5819  0.5559
13889TIP3   OH263157   0.722   4.301  11.810  0.0586 -0.2544 -0.4472
13889TIP3    H163158   0.626   4.301  11.815 -0.0106  0.1180 -1.5304
13889TIP3    H263159   0.750   4.241  11.879 -1.0289 -1.9726 -1.4579
13890TIP3   OH263160   5.192   5.197  13.666 -0.3714 -0.4749 -0.1095
13890TIP3    H163161   5.209   5.131  13.599 -1.9571  0.5883 -1.5859
13890TIP3    H263162   5.210   5.281  13.623 -4.0064  0.3953 -0.1065
13891TIP3   OH263163   3.183   1.912  14.978 -0.3433 -0.5450  0.1371
13891TIP3    H163164   3.175   1.923  15.073 -2.1249  1.0531 -0.1782
13891TIP3    H263165   3.104   1.864  14.953 -0.5532  0.2648 -0.7401
13892TIP3   OH263166   5.847   3.275  13.554 -0.3237  0.5290 -0.0721
13892TIP3    H163167   5.760   3.312  13.567 -0.3353 -0.4727  3.2202
13892TIP3    H263168   5.838   3.216  13.480 -2.5215  0.2612  0.3840
13893TIP3   OH263169   0.748   4.516   1.104 -0.2952 -1.1672  0.6310
13893TIP3    H163170   0.666   4.564   1.109 -0.7971 -1.8263 -1.0963
13893TIP3    H263171   0.779   4.513   1.195 -0.7286  1.5534  0.9253
13894TIP3   OH263172   4.172   2.787   5.516  0.0767 -0.3019  0.0259
13894TIP3    H163173   4.134   2.788   5.604  1.9292 -1.0111  0.8489
13894TIP3    H263174   4.195   2.696   5.500 -0.0482 -0.1426 -1.1072
13895TIP3   OH263175   0.217   0.987  10.807 -0.0227  0.6128 -0.0035
13895TIP3    H163176   0.131   0.968  10.771  0.6805 -2.2582 -0.2607
13895TIP3    H263177   0.272   1.004  10.731 -0.4811  3.3377  0.1913
13896TIP3   OH263178   1.181   6.424   1.449  0.0710 -0.8186  0.4963
13896TIP3    H163179   1.274   6.403   1.454  0.1279 -1.3000 -1.9707
13896TIP3    H263180   1.174   6.512   1.488  1.2449 -1.4985  2.3247
13897TIP3   OH263181   2.923   6.424   5.044 -0.1940  0.1217  0.4184
13897TIP3    H163182   2.905   6.466   5.128 -0.2349 -2.1522  1.5680
13897TIP3    H263183   3.016   6.440   5.028  0.1307 -0.6030  1.5591
13898TIP3   OH263184   6.506   4.709  11.211 -0.4059  0.0324 -0.4873
13898TIP3    H163185   6.496   4.804  11.220 -0.4567  0.0049 -0.2322
13898TIP3    H263186   6.464   4.688  11.128  0.4846  0.3635 -1.0223
13899TIP3   OH263187   6.568   3.357   3.338  0.7192 -0.7092 -0.3023
13899TIP3    H163188   6.656   3.382   3.367  0.4592  0.6369 -0.6192
13899TIP3    H263189   6.530   3.314   3.414  1.1350  0.0273  0.3355
13900TIP3   OH263190   1.857   3.738  12.555  0.3158  0.7843  0.1648
13900TIP3    H163191   1.913   3.797  12.607  0.8276 -0.1876  0.7485
13900TIP3    H263192   1.911   3.714  12.480  0.8840 -0.5203  0.9635
13901TIP3   OH263193   3.043   5.422   1.333  0.2536  0.1508  0.2437
13901TIP3    H163194   3.118   5.420   1.274  0.2089  0.0144  0.1931
13901TIP3    H263195   3.075   5.469   1.410 -0.1165  1.6532 -0.4959
13902TIP3   OH263196   4.353   2.796   2.022  0.2196  0.0219  0.1107
13902TIP3    H163197   4.305   2.878   2.035 -0.7967 -0.2523 -1.6650
13902TIP3    H263198   4.301   2.730   2.069  0.0708  0.1064  0.0646
13903TIP3   OH263199   4.910   2.922   2.485 -0.2421 -0.0548 -0.4320
13903TIP3    H163200   4.989   2.972   2.466 -2.2014  3.4059  0.1859
13903TIP3    H263201   4.914   2.906   2.580 -0.4126  0.3262 -0.3619
13904TIP3   OH263202   6.432   5.388  13.830  0.4566  0.2659  0.3616
13904TIP3    H163203   6.381   5.390  13.911 -0.6971 -0.0777 -0.3438
13904TIP3    H263204   6.466   5.298  13.825  1.9062  0.7515  1.2950
13905TIP3   OH263205   6.490   2.975  11.726 -0.1930  0.4875  0.1226
13905TIP3    H163206   6.578   2.975  11.763  0.1603 -2.1644 -0.6474
13905TIP3    H263207   6.490   3.049  11.665  2.3448 -0.9812 -1.7664
13906TIP3   OH263208   4.307   3.572  12.270  0.4233  0.1410  0.0046
13906TIP3    H163209   4.232   3.629  12.254  0.0733 -0.7500 -1.6185
13906TIP3    H263210   4.332   3.540  12.184  3.1534  0.9994  0.4378
13907TIP3   OH263211   5.552   0.747  17.053  0.6141  0.0266 -0.0581
13907TIP3    H163212   5.569   0.661  17.090  1.0309  0.4100  0.6367
13907TIP3    H263213   5.593   0.744  16.966 -2.1332 -1.5800 -1.3837
13908TIP3   OH263214   0.295   0.101   5.124  0.2274  0.1313 -0.6515
13908TIP3    H163215   0.380   0.136   5.097 -0.2100 -0.5888 -3.0418
13908TIP3    H263216   0.231   0.162   5.089 -0.2961  0.5681  0.9890
13909TIP3   OH263217   4.342   5.151  13.168 -0.0854  0.0722 -0.2629
13909TIP3    H163218   4.378   5.087  13.106  0.1345  0.3181 -0.3886
13909TIP3    H263219   4.247   5.144  13.157 -0.0257  1.1636 -1.6874
13910TIP3   OH263220   5.870   4.719  16.108  0.4971 -0.0612 -0.2938
13910TIP3    H163221   5.845   4.773  16.183 -1.3134  0.4881 -1.2335
13910TIP3    H263222   5.965   4.717  16.109  0.5508  2.0798  0.5238
13911TIP3   OH263223   4.236   6.555  12.913 -0.3147 -0.6209 -0.5717
13911TIP3    H163224   4.242   6.521  12.824  0.4678  1.2394 -1.2426
13911TIP3    H263225   4.222   6.649  12.903 -0.0322 -0.3475  1.2703
13912TIP3   OH263226   2.335   2.463  11.488  0.5815 -0.5845  0.2129
13912TIP3    H163227   2.408   2.460  11.427  0.0862 -0.4779 -0.3892
13912TIP3    H263228   2.360   2.406  11.560  0.9926 -1.0243 -0.2849
13913TIP3   OH263229   5.149   1.410   2.020 -0.3818 -0.5297  0.1922
13913TIP3    H163230   5.086   1.423   1.949  0.7777 -0.0693 -0.7749
13913TIP3    H263231   5.135   1.484   2.079 -0.1828  0.0239 -0.4522
13914TIP3   OH263232   4.067   4.393  15.768 -0.4539 -0.3878 -0.2030
13914TIP3    H163233   4.048   4.309  15.727  1.6469 -0.0153 -2.0381
13914TIP3    H263234   4.079   4.453  15.694 -2.3446  1.6628  1.0800
13915TIP3   OH263235   5.291   2.581  13.296  0.4040  0.2136  0.5989
13915TIP3    H163236   5.215   2.559  13.241 -0.2903 -0.9369  1.9848
13915TIP3    H263237   5.252   2.618  13.375  1.3492  0.6939  0.8375
13916TIP3   OH263238   2.899   2.440  17.164  0.4840 -0.2020  0.4463
13916TIP3    H163239   2.897   2.345  17.179  0.1694 -0.0447  1.4741
13916TIP3    H263240   2.920   2.476  17.250 -0.5827  0.7259  0.3178
13917TIP3   OH263241   4.574   3.326   2.687  0.1586 -0.7676  0.0532
13917TIP3    H163242   4.526   3.261   2.636  0.1357  0.2980 -1.2913
13917TIP3    H263243   4.508   3.365   2.745  0.3554 -2.5777  1.5390
13918TIP3   OH263244   4.516   2.438   2.519 -0.2109 -0.7211 -0.3737
13918TIP3    H163245   4.458   2.376   2.475 -1.5012  0.7396 -0.7890
13918TIP3    H263246   4.515   2.515   2.463  0.6786 -0.0034  0.5786
13919TIP3   OH263247   5.420   5.759   6.677 -0.2230 -0.8466  0.6045
13919TIP3    H163248   5.400   5.846   6.709 -3.1341 -1.0931 -0.4111
13919TIP3    H263249   5.376   5.700   6.739  0.1584 -1.5417  0.2191
13920TIP3   OH263250   4.866   3.662   0.398 -0.0885  0.3515  0.5684
13920TIP3    H163251   4.892   3.587   0.344 -1.3793  1.1369 -1.1742
13920TIP3    H263252   4.772   3.653   0.408 -0.1975  1.5396  0.6602
13921TIP3   OH263253   0.201   2.561  12.855 -0.1935  0.2125 -0.3497
13921TIP3    H163254   0.223   2.500  12.784 -0.0361 -0.6059  0.3826
13921TIP3    H263255   0.131   2.517  12.903  0.1467  0.4655  0.3755
13922TIP3   OH263256   4.325   0.072  15.980  0.1203  0.1670 -0.7964
13922TIP3    H163257   4.324  -0.004  16.039  0.8914  0.1809 -0.7559
13922TIP3    H263258   4.410   0.066  15.935 -0.8175 -0.3363 -2.5567
13923TIP3   OH263259   5.184   4.050   3.320 -0.0369  0.4447  0.4583
13923TIP3    H163260   5.148   3.971   3.359  2.7994 -0.6166  1.0798
13923TIP3    H263261   5.262   4.020   3.273 -0.6930  2.4165 -2.0253
13924TIP3   OH263262   4.682   1.355  11.482  0.1467 -0.3181  0.3149
13924TIP3    H163263   4.758   1.387  11.433 -0.3924 -0.7103 -0.7992
13924TIP3    H263264   4.641   1.291  11.424 -1.7862  0.8466  0.3303
13925TIP3   OH263265   1.938   3.207   0.516  0.2993  0.7509  0.7273
13925TIP3    H163266   1.883   3.276   0.553  1.5621  2.2456 -0.1252
13925TIP3    H263267   2.022   3.217   0.560  0.9079  0.6519 -0.3843
13926TIP3   OH263268   1.749   2.849   5.257 -0.4301  0.1844  0.1010
13926TIP3    H163269   1.685   2.804   5.202 -1.1259  1.4902 -0.1679
13926TIP3    H263270   1.736   2.811   5.344 -0.0750 -1.1058 -0.3962
13927TIP3   OH263271   5.569   0.570  14.662  0.0302  0.9236 -0.1719
13927TIP3    H163272   5.474   0.576  14.654  0.1715  1.8866 -1.4296
13927TIP3    H263273   5.601   0.568  14.571  1.1982  0.6264  0.2303
13928TIP3   OH263274   3.575   1.262  14.373  0.0074 -0.0962 -0.1293
13928TIP3    H163275   3.595   1.355  14.376 -0.5081 -0.0617  2.8046
13928TIP3    H263276   3.613   1.226  14.453 -0.7131 -2.2254 -0.7034
13929TIP3   OH263277   4.861   1.685   2.346 -0.3040  0.3457  0.5783
13929TIP3    H163278   4.951   1.661   2.323 -1.3138 -2.9777 -0.2192
13929TIP3    H263279   4.843   1.765   2.296  2.6319  1.8880  1.8764
13930TIP3   OH263280   1.336   3.693   0.425 -0.1206 -0.3712 -0.4712
13930TIP3    H163281   1.356   3.786   0.423 -2.3842  0.2906  3.1297
13930TIP3    H263282   1.253   3.684   0.379 -1.2248 -0.1602  1.4192
13931TIP3   OH263283   0.579   6.535  15.017  0.3579 -0.0495 -0.1400
13931TIP3    H163284   0.658   6.571  15.058 -0.5907  1.6599  0.2219
13931TIP3    H263285   0.601   6.529  14.924  0.5065  1.6090 -0.2297
13932TIP3   OH263286   6.197   2.949  11.406  0.0303 -0.4335  0.4851
13932TIP3    H163287   6.276   2.920  11.361 -1.5423 -1.3342 -1.8232
13932TIP3    H263288   6.183   3.038  11.374 -0.6668 -0.8022 -0.2765
13933TIP3   OH263289   6.315   1.519   3.038 -0.4741 -0.1794  0.2236
13933TIP3    H163290   6.289   1.430   3.060  0.8224 -0.3878  0.9579
13933TIP3    H263291   6.258   1.575   3.092 -1.0885 -0.5623 -0.0253
13934TIP3   OH263292   0.019   5.546  11.690  0.2302  0.1253  0.3616
13934TIP3    H163293   0.012   5.636  11.720 -1.7523 -0.4798  1.8747
13934TIP3    H263294  -0.037   5.542  11.612  0.0086  0.1323  0.5169
13935TIP3   OH263295   4.796   1.991   5.417 -0.4471 -0.5024 -0.3618
13935TIP3    H163296   4.790   1.944   5.501 -0.8789 -0.4470 -0.3599
13935TIP3    H263297   4.862   2.058   5.432  0.4320 -1.3280 -0.4667
13936TIP3   OH263298   1.674   1.096  17.122 -0.3525 -0.0481 -0.4518
13936TIP3    H163299   1.756   1.061  17.158 -1.0996 -1.0610  0.3035
13936TIP3    H263300   1.700   1.142  17.042  0.8412 -1.1170 -0.6890
13937TIP3   OH263301   3.482   5.566   6.350 -0.2694  0.7301  0.4782
13937TIP3    H163302   3.418   5.592   6.416 -1.4267 -0.4931 -0.1267
13937TIP3    H263303   3.441   5.590   6.267  0.1463  0.1416  0.1000
13938TIP3   OH263304   6.316   1.581  16.604  0.2219 -0.2129  0.0323
13938TIP3    H163305   6.313   1.607  16.512  0.0725 -0.3541  0.0009
13938TIP3    H263306   6.368   1.500  16.604  1.8857  0.8181  0.3007
13939TIP3   OH263307   5.672   4.779   5.666  0.5482 -0.3700 -0.0522
13939TIP3    H163308   5.647   4.714   5.600  0.8750 -1.1671  0.5997
13939TIP3    H263309   5.766   4.769   5.675  0.8189  1.2134 -1.0088
13940TIP3   OH263310   6.669   4.791  13.895 -0.3373 -0.0679  0.2302
13940TIP3    H163311   6.691   4.740  13.973 -0.8680  0.3447  0.6641
13940TIP3    H263312   6.710   4.876  13.910  0.4387 -0.3199 -0.4315
13941TIP3   OH263313   4.467   2.019   4.381 -0.0460 -0.0542  0.0892
13941TIP3    H163314   4.557   2.046   4.398  0.1784 -1.5690  1.3445
13941TIP3    H263315   4.468   1.991   4.289  0.8688 -0.4597  0.2134
13942TIP3   OH263316   1.587   0.441  11.870 -1.0779 -0.4118  0.6104
13942TIP3    H163317   1.576   0.512  11.807  0.5065 -0.5776  0.1361
13942TIP3    H263318   1.552   0.364  11.825 -0.7511 -0.3625  0.2693
13943TIP3   OH263319   4.510   4.451   3.241  0.1934  0.4747  0.7474
13943TIP3    H163320   4.538   4.370   3.198 -1.1180  0.1137  0.5368
13943TIP3    H263321   4.590   4.487   3.280  1.1846  0.1418 -0.9053
13944TIP3   OH263322   0.571   3.366   3.196 -0.2297 -0.5947 -0.3509
13944TIP3    H163323   0.514   3.375   3.272  1.3007 -0.0905  0.7710
13944TIP3    H263324   0.652   3.329   3.231  0.6770  0.1184 -1.6493
13945TIP3   OH263325   5.226   5.214   2.320  0.1541 -0.1435 -0.4410
13945TIP3    H163326   5.271   5.177   2.244 -1.8329 -2.5065 -0.5097
13945TIP3    H263327   5.240   5.150   2.390 -1.1094  0.2322  0.1772
13946TIP3   OH263328   6.171   3.465   1.739  0.0942 -0.6457  0.7570
13946TIP3    H163329   6.102   3.509   1.689 -0.4155 -0.9950  1.1503
13946TIP3    H263330   6.238   3.446   1.674 -0.0279  0.0023  0.4351
13947TIP3   OH263331   5.295   1.287  14.122  0.1029 -0.0448  0.1135
13947TIP3    H163332   5.201   1.278  14.133 -0.0941  2.7615  1.1802
13947TIP3    H263333   5.306   1.361  14.063  1.6616 -0.3718 -0.0437
13948TIP3   OH263334   2.617   3.245  14.520 -0.3769 -0.1378 -0.6483
13948TIP3    H163335   2.559   3.172  14.500 -0.7119 -0.5180  1.5748
13948TIP3    H263336   2.586   3.316  14.463 -1.7273 -0.9332 -0.9399
13949TIP3   OH263337   2.202   0.684  13.659  0.1066  0.0068 -0.2045
13949TIP3    H163338   2.291   0.710  13.685 -0.2319  1.8320 -0.7757
13949TIP3    H263339   2.151   0.764  13.668 -1.4313 -0.9688 -0.1653
13950TIP3   OH263340   1.626   4.688  16.172 -0.5522 -0.4159  0.0338
13950TIP3    H163341   1.574   4.609  16.166 -0.2123 -0.5073 -2.0524
13950TIP3    H263342   1.582   4.750  16.113  0.5567  0.1330 -0.2264
13951TIP3   OH263343   0.799   0.793   2.894  0.0035  0.3557  0.2952
13951TIP3    H163344   0.763   0.828   2.812  0.3359 -0.9041 -0.4017
13951TIP3    H263345   0.886   0.833   2.901  0.0025  0.4069  0.0039
13952TIP3   OH263346   4.779   0.445  12.817 -0.2463 -0.4196  0.5289
13952TIP3    H163347   4.748   0.426  12.728  1.2546 -0.7140  0.0540
13952TIP3    H263348   4.860   0.396  12.825 -1.0887 -1.5583  2.6029
13953TIP3   OH263349   3.939   0.570   1.783 -0.1401 -0.0682  0.1931
13953TIP3    H163350   3.966   0.544   1.871  1.6877 -2.0634 -0.9220
13953TIP3    H263351   3.877   0.642   1.797 -0.1291 -0.5829  3.1057
13954TIP3   OH263352   0.398   2.495  14.567 -0.3062 -0.0235  0.0346
13954TIP3    H163353   0.348   2.521  14.644 -0.2490  0.5459 -0.1147
13954TIP3    H263354   0.453   2.423  14.597  1.6835  1.9484  1.2160
13955TIP3   OH263355   6.450   0.086  16.631 -0.3958 -0.3363  0.2432
13955TIP3    H163356   6.538   0.049  16.622  0.3014  0.6501  2.5418
13955TIP3    H263357   6.397   0.038  16.568  1.3800 -2.2601  0.1557
13956TIP3   OH263358   6.683   0.013   4.142 -0.1412  0.3329 -0.3032
13956TIP3    H163359   6.603   0.060   4.164 -0.7891 -0.4819 -0.8892
13956TIP3    H263360   6.736   0.076   4.093 -1.5009  0.1048 -2.0974
13957TIP3   OH263361   4.372   6.383   5.039  0.4345  0.4338  0.4598
13957TIP3    H163362   4.429   6.365   5.114  1.4340 -0.3229 -0.4427
13957TIP3    H263363   4.332   6.298   5.019 -0.5397  0.8346  0.7115
13958TIP3   OH263364   0.213   4.121   5.075  0.4867 -0.0015  0.3488
13958TIP3    H163365   0.285   4.063   5.097  1.3430  0.8042 -0.3195
13958TIP3    H263366   0.203   4.113   4.980 -0.5658 -0.4078  0.4778
13959TIP3   OH263367   6.322   1.376  13.253  0.0751  0.1271  0.3033
13959TIP3    H163368   6.373   1.409  13.179  0.3409 -0.3122  0.2928
13959TIP3    H263369   6.371   1.301  13.286  0.8331  1.3355  1.9996
13960TIP3   OH263370   3.714   5.339   0.708  0.0877  0.0581  0.5308
13960TIP3    H163371   3.640   5.282   0.686  0.3861 -0.1418  0.0583
13960TIP3    H263372   3.749   5.367   0.624  0.3656  0.3977  0.7577
13961TIP3   OH263373   3.942   0.967   5.471 -1.0706  0.4662 -0.2337
13961TIP3    H163374   3.932   0.977   5.377 -0.3576 -1.3824 -0.5241
13961TIP3    H263375   4.025   0.921   5.482 -1.1048  0.7307  1.2947
13962TIP3   OH263376   2.025   0.171  15.371 -0.2096  0.1971  0.4989
13962TIP3    H163377   2.077   0.241  15.410  1.0371 -0.3203 -0.2029
13962TIP3    H263378   1.955   0.155  15.434  1.4437 -0.2376  2.2821
13963TIP3   OH263379   3.691   4.654  14.665  0.8036  0.0831  0.0244
13963TIP3    H163380   3.691   4.715  14.739 -1.6205 -0.0350  0.1494
13963TIP3    H263381   3.601   4.654  14.633  1.3719 -1.3989 -1.6820
13964TIP3   OH263382   5.226   2.332   2.250 -0.8920  0.3447 -0.0919
13964TIP3    H163383   5.170   2.264   2.214  1.2093 -1.9110  0.7501
13964TIP3    H263384   5.296   2.343   2.185 -1.3272  1.8506 -0.3170
13965TIP3   OH263385   3.816   2.505  11.896  0.3380  0.3637  0.0795
13965TIP3    H163386   3.750   2.551  11.844  0.2516 -1.8131 -1.8103
13965TIP3    H263387   3.770   2.430  11.932  0.9412  0.7037  1.6001
13966TIP3   OH263388   3.477   6.004  15.244 -0.4104 -0.1860 -0.2579
13966TIP3    H163389   3.409   5.961  15.295  0.5618 -0.4392  0.8363
13966TIP3    H263390   3.531   5.933  15.210 -0.7247  0.0086 -1.1790
13967TIP3   OH263391   4.965   5.160  15.542 -0.3823 -0.3786 -0.6100
13967TIP3    H163392   4.870   5.164  15.551 -0.2637 -0.5661  0.7376
13967TIP3    H263393   4.989   5.076  15.582  0.5203  0.4210  0.5276
13968TIP3   OH263394   3.177   0.399   2.446  0.6419 -0.0459 -0.1644
13968TIP3    H163395   3.201   0.307   2.430  1.7534  0.5517 -2.0641
13968TIP3    H263396   3.111   0.394   2.515  1.0690 -2.2427  0.1426
13969TIP3   OH263397   4.515   5.272  14.887 -0.8911  0.3341  0.0283
13969TIP3    H163398   4.448   5.317  14.835 -0.4251  1.2092  0.1795
13969TIP3    H263399   4.534   5.193  14.837 -1.4560  0.4741 -0.4230
13970TIP3   OH263400   1.153   0.135  12.179  0.9062 -0.1986 -0.4936
13970TIP3    H163401   1.070   0.177  12.200  0.8659 -0.4494 -0.1381
13970TIP3    H263402   1.207   0.205  12.142  1.2911  0.4821  1.3073
13971TIP3   OH263403   2.911   3.796   6.096 -0.1277  0.3770  0.8037
13971TIP3    H163404   2.956   3.731   6.042 -1.7731  0.0381 -0.1950
13971TIP3    H263405   2.982   3.846   6.137  1.1469 -0.4076 -0.3920
13972TIP3   OH263406   1.700   2.890   2.780  0.0057 -0.2747 -0.6484
13972TIP3    H163407   1.720   2.899   2.873 -0.5816  1.0908 -0.6384
13972TIP3    H263408   1.623   2.945   2.766 -0.4786 -1.2005 -1.7658
13973TIP3   OH263409   3.016   4.972   4.907 -0.5240  0.2238  0.4046
13973TIP3    H163410   3.054   5.051   4.944  1.2417 -0.0668 -0.7337
13973TIP3    H263411   3.031   4.904   4.973 -0.3128  0.4209  0.5590
13974TIP3   OH263412   0.493   4.109   1.302 -0.3762  0.0019  0.8718
13974TIP3    H163413   0.519   4.023   1.336 -0.9049 -0.0543  1.1346
13974TIP3    H263414   0.574   4.145   1.265 -0.4267 -1.1582 -0.4166
13975TIP3   OH263415   3.924   5.785  16.709 -0.0961  0.0441 -0.2299
13975TIP3    H163416   3.838   5.819  16.732  0.2041  1.0025 -0.4595
13975TIP3    H263417   3.982   5.821  16.777  0.2246 -0.0224 -0.4698
13976TIP3   OH263418   2.189   5.404   4.571  0.0423 -0.0264 -0.5949
13976TIP3    H163419   2.212   5.347   4.644  0.4751  2.2652  1.0925
13976TIP3    H263420   2.272   5.426   4.531 -0.0044  0.6175 -0.3343
13977TIP3   OH263421   1.842   4.237   1.851 -0.3888 -0.0961  0.1131
13977TIP3    H163422   1.831   4.143   1.861  0.5466 -0.1598  0.5615
13977TIP3    H263423   1.921   4.246   1.797 -1.0984  0.4102 -0.8602
13978TIP3   OH263424   1.903   1.062   5.119 -0.3271 -0.2351  0.3321
13978TIP3    H163425   1.971   1.039   5.056 -0.4207  1.5035 -0.4294
13978TIP3    H263426   1.839   0.992   5.113  0.1334 -0.5587 -0.8235
13979TIP3   OH263427   4.889   2.421  12.539 -0.8949  0.0881  0.1357
13979TIP3    H163428   4.873   2.366  12.462 -0.9260 -1.5244  1.2586
13979TIP3    H263429   4.982   2.409  12.557 -0.6894  1.1682 -0.1651
13980TIP3   OH263430   2.234   5.536   1.076 -1.0759 -0.0419 -0.2132
13980TIP3    H163431   2.237   5.549   1.171 -0.1918 -1.1281 -0.0755
13980TIP3    H263432   2.257   5.621   1.039  1.5055 -0.3487  0.5985
13981TIP3   OH263433   1.806   0.511   0.511  0.3897  0.3450 -0.3909
13981TIP3    H163434   1.755   0.442   0.469 -0.0030  0.4690 -0.1136
13981TIP3    H263435   1.793   0.587   0.455  0.9192  0.1653 -0.7633
13982TIP3   OH263436   2.406   6.108  11.915  0.3336 -0.1663 -0.4016
13982TIP3    H163437   2.488   6.109  11.963 -0.8252 -1.0560  1.6504
13982TIP3    H263438   2.409   6.187  11.860  2.7257 -0.4396 -0.7051
13983TIP3   OH263439   1.180   6.658   2.048  0.5536  0.2741  0.5557
13983TIP3    H163440   1.094   6.644   2.088  1.1427 -0.2382  1.6703
13983TIP3    H263441   1.171   6.741   2.001 -0.1851  0.8914  1.7504
13984TIP3   OH263442   3.683   4.357   6.289  0.0699  0.2442  0.0770
13984TIP3    H163443   3.593   4.387   6.274  0.5424  2.1191  0.7890
13984TIP3    H263444   3.679   4.262   6.277 -2.2015  0.1768  1.0430
13985TIP3   OH263445   0.408   4.341  12.350  0.0050 -0.5689  0.1250
13985TIP3    H163446   0.470   4.340  12.423 -1.2801  0.7717  1.2846
13985TIP3    H263447   0.406   4.251  12.318  1.7816 -0.8264  0.7219
13986TIP3   OH263448   5.685   6.794  12.447  0.0247 -0.0301 -0.2536
13986TIP3    H163449   5.771   6.820  12.480 -0.6486 -0.9520  2.3398
13986TIP3    H263450   5.624   6.857  12.486 -0.9399 -1.8943  1.3303
13987TIP3   OH263451   5.992   6.621   4.664 -0.6372  0.4607 -0.3103
13987TIP3    H163452   5.990   6.716   4.650  0.5857  0.1918 -2.5592
13987TIP3    H263453   5.984   6.611   4.758 -0.4939  2.8183 -0.0054
13988TIP3   OH263454   3.239   5.855  12.139 -0.5036 -0.4402 -0.2714
13988TIP3    H163455   3.282   5.926  12.091 -0.4783 -1.1845 -1.3532
13988TIP3    H263456   3.165   5.897  12.182  0.3781  0.5426  0.3211
13989TIP3   OH263457   1.507   4.267  16.042  0.0961 -0.0674  1.0450
13989TIP3    H163458   1.549   4.181  16.042  1.8531  0.7691  0.3384
13989TIP3    H263459   1.444   4.263  15.970  2.2944  0.1995 -0.9672
13990TIP3   OH263460   0.995   0.839   2.519 -0.0089 -0.2280  0.4381
13990TIP3    H163461   0.917   0.863   2.469 -0.7932 -2.6092  0.4680
13990TIP3    H263462   1.036   0.922   2.541 -0.0302  0.9548 -3.5381
13991TIP3   OH263463   3.520   5.049   1.632  0.2313  0.6798 -0.3961
13991TIP3    H163464   3.545   5.139   1.610  0.2716  0.4475 -1.3267
13991TIP3    H263465   3.596   5.014   1.678  0.9808  0.5142 -1.7302
13992TIP3   OH263466   2.792   4.859   4.033 -0.4517 -0.4208 -0.6363
13992TIP3    H163467   2.716   4.811   4.001  0.1936 -0.3962 -2.2655
13992TIP3    H263468   2.854   4.790   4.059 -0.7930 -0.4422  0.1333
13993TIP3   OH263469   1.962   4.584   6.651  0.0745  0.4468  0.0374
13993TIP3    H163470   1.980   4.490   6.651 -0.1828  0.3921 -0.3062
13993TIP3    H263471   2.048   4.625   6.650  0.1944  0.1980 -1.2716
13994TIP3   OH263472   0.917   5.157  12.334  0.5066 -0.0165  0.1528
13994TIP3    H163473   0.971   5.187  12.260  0.3217  0.1789  0.0968
13994TIP3    H263474   0.839   5.119  12.292 -0.0839  1.0292  0.2700
13995TIP3   OH263475   5.142   4.039  11.750 -0.3593 -0.1857  0.3040
13995TIP3    H163476   5.120   4.132  11.748  2.1172  0.4389  0.1821
13995TIP3    H263477   5.198   4.025  11.673  0.5300 -1.4200  1.1375
13996TIP3   OH263478   3.352   1.183  14.246  0.3355 -0.2065 -0.3051
13996TIP3    H163479   3.388   1.098  14.221  1.6921 -0.4593  2.3442
13996TIP3    H263480   3.420   1.224  14.299 -0.3156  2.5474 -1.4747
13997TIP3   OH263481   5.039   6.797  13.009 -0.4956 -0.0761 -0.1806
13997TIP3    H163482   5.080   6.762  13.088 -3.8503 -0.1204  1.6151
13997TIP3    H263483   5.099   6.865  12.979  0.9546 -0.2400  2.2572
13998TIP3   OH263484   1.624   0.123  13.003  0.1899 -0.1405 -0.2680
13998TIP3    H163485   1.634   0.146  13.096  0.0906  0.1189 -0.3183
13998TIP3    H263486   1.674   0.042  12.992 -0.3460 -0.5313  0.1615
13999TIP3   OH263487   6.743   1.356   3.438  0.1195  0.3318 -0.2026
13999TIP3    H163488   6.780   1.268   3.439  0.4569  0.4722  0.5889
13999TIP3    H263489   6.730   1.377   3.530 -2.0871  0.2475 -0.4802
14000TIP3   OH263490   1.311   6.562  11.353  0.5274 -0.1707 -0.2101
14000TIP3    H163491   1.275   6.600  11.433  0.0169  0.8200 -0.9034
14000TIP3    H263492   1.297   6.629  11.286  2.6573 -0.2117 -0.7338
14001TIP3   OH263493   1.912   5.493  12.809  0.7786 -0.2488  0.3381
14001TIP3    H163494   1.864   5.574  12.795  0.4433  0.0578  2.9908
14001TIP3    H263495   1.859   5.426  12.765  0.7100  0.8457 -1.2834
14002TIP3   OH263496   5.877   3.769  16.693 -0.1226 -0.4917 -0.3839
14002TIP3    H163497   5.944   3.816  16.644  0.0487  0.4850  0.7638
14002TIP3    H263498   5.820   3.838  16.727 -2.2312 -1.3462 -2.0717
14003TIP3   OH263499   2.966   5.877  16.248 -0.1368  0.0033  0.0869
14003TIP3    H163500   3.020   5.801  16.271  0.9299  1.5614  2.9625
14003TIP3    H263501   3.018   5.926  16.185 -0.2510 -0.9057 -0.7332
14004TIP3   OH263502   3.353   3.154   6.197 -0.1507 -0.2511 -0.3048
14004TIP3    H163503   3.330   3.065   6.222 -0.7061 -0.2665 -0.8581
14004TIP3    H263504   3.440   3.147   6.159  0.9192 -0.1531  2.0408
14005TIP3   OH263505   0.642   3.294  16.642  0.2745  0.3043 -0.4478
14005TIP3    H163506   0.582   3.238  16.690  0.2727  0.8287  0.1708
14005TIP3    H263507   0.667   3.243  16.565  0.2897 -0.5504  0.1165
14006TIP3   OH263508   3.017   5.757  16.782  0.4224 -0.5879 -0.0527
14006TIP3    H163509   3.008   5.852  16.773 -1.3589 -0.6791  0.5200
14006TIP3    H263510   2.941   5.730  16.834  2.1286 -2.0577  1.7583
14007TIP3   OH263511   2.861   5.060   0.720  0.1687  0.4129  0.2384
14007TIP3    H163512   2.915   5.067   0.641  0.1431 -0.1661  0.1687
14007TIP3    H263513   2.925   5.057   0.792  0.4550 -4.2195 -0.0641
14008TIP3   OH263514   3.206   3.036   3.681 -0.3468  1.0379  0.0409
14008TIP3    H163515   3.146   2.961   3.678 -0.3265  1.0760 -2.0051
14008TIP3    H263516   3.263   3.024   3.605  1.2483  1.8474  1.0662
14009TIP3   OH263517   5.112   6.074   3.733 -0.4271  0.0367  0.2136
14009TIP3    H163518   5.076   6.081   3.822 -0.1019 -0.1030  0.3543
14009TIP3    H263519   5.199   6.036   3.745 -0.7584 -0.8819 -0.2428
14010TIP3   OH263520   5.800   3.950  13.510 -0.0433  0.1066  0.1294
14010TIP3    H163521   5.794   4.013  13.437  0.4659 -0.0511 -0.0540
14010TIP3    H263522   5.864   3.990  13.570 -0.6478  0.3575  0.6166
14011TIP3   OH263523   5.984   1.543  11.263 -0.1935  0.0217 -0.5945
14011TIP3    H163524   6.062   1.504  11.223  0.2806  0.7739 -0.4168
14011TIP3    H263525   5.914   1.524  11.202  0.4103  0.6311 -1.4786
14012TIP3   OH263526   3.010   2.387   2.064 -0.5570 -0.3766  0.0638
14012TIP3    H163527   2.931   2.404   2.013 -0.1030  1.9104  0.0849
14012TIP3    H263528   3.050   2.473   2.076  0.8691 -1.2481  1.7947
14013TIP3   OH263529   5.395   3.438  15.970 -0.0602 -0.0198  0.5213
14013TIP3    H163530   5.333   3.399  16.032  0.0801  0.9322  1.2713
14013TIP3    H263531   5.344   3.452  15.890 -0.1527 -1.5876  0.2747
14014TIP3   OH263532   4.402   6.045  14.910  0.0999 -0.2530  0.2242
14014TIP3    H163533   4.467   5.974  14.910 -1.2914 -1.5733 -0.9308
14014TIP3    H263534   4.318   6.000  14.899 -0.7039  1.6921 -1.9058
14015TIP3   OH263535   2.592   0.674  13.331 -0.5779  0.5195 -0.6078
14015TIP3    H163536   2.623   0.698  13.419  0.3977 -2.2194 -0.1658
14015TIP3    H263537   2.512   0.726  13.320  0.6921  2.8724  0.8238
14016TIP3   OH263538   5.144   0.117  15.146 -0.0539 -0.2614  0.0193
14016TIP3    H163539   5.148   0.088  15.237 -1.3247  1.0913  0.5373
14016TIP3    H263540   5.161   0.211  15.150  1.2663 -0.4310 -1.3072
14017TIP3   OH263541   3.516   3.918   5.449  0.2036 -0.4268  0.4509
14017TIP3    H163542   3.554   3.956   5.370 -2.0274  0.4552 -0.2353
14017TIP3    H263543   3.545   3.975   5.520  1.4565 -0.6869  0.1555
14018TIP3   OH263544   1.011   5.282  12.117 -0.0453  0.1114  0.2587
14018TIP3    H163545   1.080   5.307  12.056 -0.1028 -2.0385 -0.7485
14018TIP3    H263546   0.964   5.363  12.135  1.8069  1.3198 -0.2151
14019TIP3   OH263547   4.215   2.978  16.030 -0.4242 -0.1426 -0.2881
14019TIP3    H163548   4.266   2.912  16.076  1.2917  0.0120 -1.9039
14019TIP3    H263549   4.214   2.948  15.939 -0.6758  1.4296 -0.8139
14020TIP3   OH263550   6.501   4.684   0.167  0.1300 -0.1798 -0.0470
14020TIP3    H163551   6.595   4.666   0.167 -0.3161 -2.6697  0.5292
14020TIP3    H263552   6.492   4.762   0.222  1.9279  0.6889 -0.9100
14021TIP3   OH263553   6.229   2.289   0.237  0.4745  0.3697 -0.6576
14021TIP3    H163554   6.159   2.328   0.184  0.2182 -0.8971 -1.2722
14021TIP3    H263555   6.282   2.240   0.174  0.4524 -0.7455  0.1831
14022TIP3   OH263556   5.079   5.855  17.126 -0.3009 -0.0121  0.3418
14022TIP3    H163557   5.127   5.890  17.201 -0.4176  1.0589 -0.0618
14022TIP3    H263558   5.140   5.864  17.052 -0.7071  0.3091  0.0414
14023TIP3   OH263559   2.793   5.246  10.084  0.3448 -0.2595  0.6775
14023TIP3    H163560   2.872   5.294  10.107  0.1444 -0.7592  2.4526
14023TIP3    H263561   2.814   5.154  10.100  0.8279 -0.8652 -3.0198
14024TIP3   OH263562   0.417   1.509   4.807  0.1502 -0.1443  0.8465
14024TIP3    H163563   0.466   1.527   4.887  1.1973  0.5451  0.0703
14024TIP3    H263564   0.401   1.415   4.809  4.1485 -0.9599 -0.3255
14025TIP3   OH263565   4.233   3.890  16.687 -0.3677 -0.4991 -0.2041
14025TIP3    H163566   4.258   3.814  16.738 -0.9886  0.0369  0.9295
14025TIP3    H263567   4.242   3.964  16.748 -1.1079  0.1460 -0.8561
14026TIP3   OH263568   6.662   1.481   1.021  0.0589  0.0232  0.1134
14026TIP3    H163569   6.722   1.423   1.067  0.1564 -0.5079 -0.6706
14026TIP3    H263570   6.600   1.422   0.979  0.1028  0.4922 -0.6139
14027TIP3   OH263571   2.980   1.724  17.244  0.2767  0.2096  0.1716
14027TIP3    H163572   2.892   1.734  17.280  0.8462  4.1255  0.6695
14027TIP3    H263573   3.038   1.722  17.321  1.0704  3.7253 -0.2386
14028TIP3   OH263574   1.982   1.082  14.888 -0.0422 -0.4814 -0.6390
14028TIP3    H163575   2.027   1.065  14.971 -1.0323 -1.8326 -0.3641
14028TIP3    H263576   1.891   1.061  14.906 -0.5086  0.6077 -1.6831
14029TIP3   OH263577   4.660   5.033  12.846  0.4168 -0.3719 -0.0012
14029TIP3    H163578   4.657   5.059  12.938  0.5403  0.7080 -0.2961
14029TIP3    H263579   4.753   5.029  12.825  0.3852 -0.3680 -0.1442
14030TIP3   OH263580   2.852   2.677   1.477 -0.2690 -0.2314  0.9731
14030TIP3    H163581   2.890   2.754   1.435  0.5104 -0.9132  0.4102
14030TIP3    H263582   2.786   2.646   1.414  0.0169 -0.5171  0.8106
14031TIP3   OH263583   2.268   6.302  13.619  0.1751 -0.3050 -0.2811
14031TIP3    H163584   2.257   6.213  13.585  1.7410  0.1351 -2.0102
14031TIP3    H263585   2.355   6.328  13.590  0.2988  1.2872  1.4156
14032TIP3   OH263586   4.233   3.346   2.245 -0.6403  0.0941  0.3019
14032TIP3    H163587   4.182   3.405   2.300 -0.8922 -1.8090  2.1884
14032TIP3    H263588   4.253   3.397   2.167 -3.2630  1.7359  0.6302
14033TIP3   OH263589   1.068   0.011   4.989  0.3736  0.3093 -0.0551
14033TIP3    H163590   1.041  -0.021   4.904 -0.9002  1.1579  0.0209
14033TIP3    H263591   1.119   0.090   4.970  0.1192  0.4788 -0.0390
14034TIP3   OH263592   5.597   1.201   3.221  0.4685  0.0565 -0.6176
14034TIP3    H163593   5.608   1.129   3.283  0.3398  0.6462  0.0829
14034TIP3    H263594   5.608   1.159   3.135 -1.4593 -1.1520 -0.3054
14035TIP3   OH263595   5.615   5.050  14.297 -0.0167 -0.0742 -0.2962
14035TIP3    H163596   5.630   5.107  14.222  1.3163 -0.5441 -0.3960
14035TIP3    H263597   5.524   5.067  14.321  0.4202  2.3286 -0.1338
14036TIP3   OH263598   1.308   4.870  16.885  0.0645  0.3165 -0.0311
14036TIP3    H163599   1.252   4.802  16.924 -0.9328  1.1707  0.0377
14036TIP3    H263600   1.344   4.829  16.806  0.2247 -0.6118  0.5160
14037TIP3   OH263601   4.868   2.599   3.857  0.5954 -0.1999 -0.1039
14037TIP3    H163602   4.833   2.519   3.816 -0.2512  0.6474 -1.0403
14037TIP3    H263603   4.841   2.670   3.799  1.2594  0.7900  0.7823
14038TIP3   OH263604   1.391   1.931  11.676  0.3771  0.1330 -0.0201
14038TIP3    H163605   1.327   1.937  11.605 -0.8069  0.0556  1.0347
14038TIP3    H263606   1.389   2.018  11.717 -1.2762 -0.7995  1.9141
14039TIP3   OH263607   5.967   1.457   1.603  0.4167  0.5329 -0.5443
14039TIP3    H163608   5.969   1.373   1.559  2.5658  0.5162 -0.4759
14039TIP3    H263609   5.984   1.521   1.534 -0.0690  0.8302 -0.3963
14040TIP3   OH263610   5.724   4.827   0.538 -0.0103 -0.0237  0.0753
14040TIP3    H163611   5.752   4.914   0.509 -2.0541  1.2318  1.7524
14040TIP3    H263612   5.691   4.840   0.627 -0.6063 -2.4734  0.2623
14041TIP3   OH263613   2.707   3.158  14.181  0.7328 -0.2659  0.5339
14041TIP3    H163614   2.739   3.157  14.271 -0.3022 -2.1576  0.9128
14041TIP3    H263615   2.685   3.067  14.162 -0.0899  0.2717 -1.2611
14042TIP3   OH263616   5.516   6.353  11.537 -0.4267  0.4303 -0.1593
14042TIP3    H163617   5.574   6.323  11.467  1.1537 -0.4513  1.4548
14042TIP3    H263618   5.516   6.448  11.530 -0.8336  0.3192 -1.7579
14043TIP3   OH263619   3.052   0.129  11.060  0.3798  0.3596 -0.3036
14043TIP3    H163620   3.011   0.122  10.974  1.5338 -0.9827 -0.7747
14043TIP3    H263621   3.146   0.121  11.042  0.5290 -1.9521  1.2411
14044TIP3   OH263622   4.977   4.923  11.650  0.0226 -0.1416  0.0053
14044TIP3    H163623   4.984   5.005  11.600 -1.1668  0.8792  1.4506
14044TIP3    H263624   5.056   4.923  11.705  0.4071 -0.3516 -0.5398
14045TIP3   OH263625   2.320   4.474   0.166  0.2124 -0.0969 -0.1752
14045TIP3    H163626   2.383   4.482   0.095  1.4671  2.1988  1.1073
14045TIP3    H263627   2.237   4.501   0.127  0.0278 -2.8202 -1.7904
14046TIP3   OH263628   5.474   4.364  13.732 -0.8689 -0.2007  0.0185
14046TIP3    H163629   5.456   4.270  13.741  2.6883 -0.7110  2.8152
14046TIP3    H263630   5.542   4.369  13.665 -1.2514  0.4237 -0.3312
14047TIP3   OH263631   4.454   4.275  14.645  0.2186 -0.4111 -0.3130
14047TIP3    H163632   4.548   4.272  14.630  0.3568  2.0241 -0.2066
14047TIP3    H263633   4.416   4.290  14.559  0.0525  0.2540 -0.1278
14048TIP3   OH263634   4.044   3.996   0.604  0.3620  0.3901 -0.2789
14048TIP3    H163635   4.005   3.953   0.528  1.0126  0.9003 -0.9010
14048TIP3    H263636   3.971   4.005   0.666  0.1781 -1.4247 -0.2127
14049TIP3   OH263637   6.410   0.919  11.593  0.2964 -0.0600 -0.7212
14049TIP3    H163638   6.409   0.823  11.598  2.0850  0.0197  1.7288
14049TIP3    H263639   6.497   0.941  11.561 -0.2835  0.7583 -1.7818
14050TIP3   OH263640   6.635   2.512   2.392 -0.0061  0.1572  0.5152
14050TIP3    H163641   6.709   2.458   2.366  0.3079  1.2716 -1.0001
14050TIP3    H263642   6.670   2.570   2.460  0.3261  0.1851  0.3214
14051TIP3   OH263643   1.101   3.350   1.918 -0.4556  0.0832 -0.5593
14051TIP3    H163644   1.085   3.256   1.931  0.7017 -0.2494 -1.4775
14051TIP3    H263645   1.180   3.368   1.968 -1.0432  0.7339  0.1579
14052TIP3   OH263646   3.765   0.195  13.323 -0.1144  0.6008  0.0881
14052TIP3    H163647   3.860   0.195  13.333 -0.0201  0.9758 -0.7429
14052TIP3    H263648   3.743   0.285  13.299 -0.5635  0.2836 -0.7103
14053TIP3   OH263649   0.874   5.021   2.189  0.0749  0.1389 -0.1411
14053TIP3    H163650   0.918   5.047   2.108 -1.3918  0.2610 -0.9180
14053TIP3    H263651   0.799   5.080   2.196 -0.7276 -0.9200  0.4359
14054TIP3   OH263652   0.111   6.122   1.250 -0.1238 -0.0825  0.2060
14054TIP3    H163653   0.163   6.043   1.240 -0.9360 -0.5616 -0.2154
14054TIP3    H263654   0.021   6.095   1.235 -0.7401  0.3569  2.8471
14055TIP3   OH263655   0.698   0.175   2.945  0.2109 -0.1075  0.0752
14055TIP3    H163656   0.741   0.138   3.022 -0.8181  0.7847  1.0990
14055TIP3    H263657   0.770   0.199   2.886  0.9659 -1.5995  0.3799
14056TIP3   OH263658   5.645   3.324  11.897 -0.3251  0.3503 -0.5579
14056TIP3    H163659   5.683   3.250  11.850  1.3878  0.3412  0.8178
14056TIP3    H263660   5.551   3.305  11.898  0.1161 -2.0250  0.1349
14057TIP3   OH263661   6.809   5.585   0.637  0.0804  0.0549 -0.0331
14057TIP3    H163662   6.791   5.494   0.662  0.1753  0.1811  0.4894
14057TIP3    H263663   6.831   5.580   0.544  0.2432 -0.4792  0.0338
14058TIP3   OH263664   1.419   3.302   4.971 -0.1755 -0.2102 -0.2780
14058TIP3    H163665   1.502   3.258   4.957  0.3516  0.3784  0.9043
14058TIP3    H263666   1.443   3.393   4.989 -1.1276  0.1526 -0.8132
14059TIP3   OH263667   6.012   6.427  12.678 -0.3927 -0.5269  0.1810
14059TIP3    H163668   6.070   6.468  12.614  2.3998 -0.5047  2.6120
14059TIP3    H263669   6.053   6.342  12.696 -0.8760 -0.3477  2.2181
14060TIP3   OH263670   5.715   4.370  11.610  0.6536 -0.6979  0.4241
14060TIP3    H163671   5.705   4.345  11.701  0.3859 -1.2708  0.2362
14060TIP3    H263672   5.795   4.326  11.581  1.7344  0.8922  0.8744
14061TIP3   OH263673   0.766   3.537   0.283 -0.2736 -0.4138  0.6388
14061TIP3    H163674   0.737   3.447   0.273 -0.4063 -0.2634 -0.4342
14061TIP3    H263675   0.690   3.583   0.319 -1.7454  0.1460 -2.9301
14062TIP3   OH263676   4.595   5.247   3.844 -0.2512 -0.5421  0.8995
14062TIP3    H163677   4.670   5.189   3.827  0.0734  0.0696  0.1965
14062TIP3    H263678   4.523   5.207   3.794  0.3020  0.3699 -0.6573
14063TIP3   OH263679   0.957   1.264  16.667 -0.1057 -0.0803 -0.3081
14063TIP3    H163680   1.035   1.314  16.690 -1.2340  1.1364  0.9975
14063TIP3    H263681   0.988   1.173  16.660  1.2166  0.1965  1.4229
14064TIP3   OH263682   5.862   6.416   4.565  0.3776 -0.1824 -0.4937
14064TIP3    H163683   5.920   6.473   4.615  1.0514 -1.3651  0.0989
14064TIP3    H263684   5.818   6.363   4.631 -1.7318  0.9927 -0.9110
14065TIP3   OH263685   5.707   5.590   3.537 -0.2400  0.1448  0.4225
14065TIP3    H163686   5.624   5.585   3.489  0.0691  1.2605 -0.2343
14065TIP3    H263687   5.762   5.522   3.499 -0.4309  0.2078  0.0380
14066TIP3   OH263688   3.961   2.371  14.222 -0.4463 -0.0422 -0.5784
14066TIP3    H163689   3.971   2.466  14.216  0.8423  0.0518  2.0178
14066TIP3    H263690   4.044   2.336  14.192 -0.7800 -0.3215 -1.1692
14067TIP3   OH263691   4.829   0.223  14.422 -0.1066 -0.8401  0.3614
14067TIP3    H163692   4.760   0.275  14.464 -0.3121 -0.7854 -0.0417
14067TIP3    H263693   4.806   0.223  14.329  1.4266  0.6941 -0.0376
14068TIP3   OH263694   4.318   6.696  16.743  0.0013  0.0424 -0.6675
14068TIP3    H163695   4.334   6.778  16.697 -0.1683 -0.3088 -1.3583
14068TIP3    H263696   4.405   6.658  16.756  0.2522  1.2618  1.3979
14069TIP3   OH263697   2.460   1.076   0.876 -0.1605  0.3542 -0.0013
14069TIP3    H163698   2.547   1.114   0.891  0.4166 -0.7669 -0.4371
14069TIP3    H263699   2.454   1.007   0.942 -0.2607 -0.3178 -0.7173
14070TIP3   OH263700   2.031   6.539   1.738 -0.0204 -0.2714 -0.0095
14070TIP3    H163701   2.025   6.523   1.833  0.6427 -1.7187 -0.1965
14070TIP3    H263702   2.048   6.453   1.700  2.0707  0.6232 -1.2212
14071TIP3   OH263703   5.712   5.551  15.249 -0.4385 -0.1758  0.2505
14071TIP3    H163704   5.688   5.462  15.220  1.0931 -0.2460 -0.8843
14071TIP3    H263705   5.790   5.572  15.198 -0.6034  1.7127  0.7514
14072TIP3   OH263706   6.326   6.714  16.453 -0.1441 -0.8142 -0.6925
14072TIP3    H163707   6.354   6.628  16.421 -3.3486 -1.4537 -2.0232
14072TIP3    H263708   6.237   6.724  16.418 -1.6085  0.9987  3.3109
14073TIP3   OH263709   2.509   5.772   3.261  0.0116  0.0305 -0.1820
14073TIP3    H163710   2.569   5.846   3.257  0.0720 -0.0223 -0.2755
14073TIP3    H263711   2.479   5.770   3.352  2.0641 -1.4436  0.4873
14074TIP3   OH263712   6.046   2.722  14.109  0.2212 -0.5915 -0.2427
14074TIP3    H163713   6.141   2.724  14.103  0.5014 -0.5761  3.2708
14074TIP3    H263714   6.022   2.810  14.139 -1.0069 -0.3389 -1.8718
14075TIP3   OH263715   6.582   6.097  12.230  0.3983  0.4946  0.1544
14075TIP3    H163716   6.539   6.050  12.159  1.9834  0.3298 -0.7229
14075TIP3    H263717   6.612   6.029  12.290  0.6786  0.5189  0.0440
14076TIP3   OH263718   2.235   5.131  16.680  0.5941 -0.6455  0.5710
14076TIP3    H163719   2.177   5.056  16.693 -0.4289 -0.0979 -0.8014
14076TIP3    H263720   2.317   5.105  16.723  0.5136 -2.8436 -0.5552
14077TIP3   OH263721   3.846   5.524   1.600  0.0386  0.2424  0.2562
14077TIP3    H163722   3.813   5.553   1.685 -1.3089 -2.9371  0.8855
14077TIP3    H263723   3.904   5.450   1.621  0.9466  0.4281 -1.4915
14078TIP3   OH263724   2.766   2.994  13.741 -0.0588 -0.7209  0.1172
14078TIP3    H163725   2.857   2.964  13.732  0.0290  0.2556 -2.7466
14078TIP3    H263726   2.753   3.053  13.667 -2.9891 -0.6696  0.6155
14079TIP3   OH263727   4.660   5.688   0.696  0.4041 -0.3871  0.4312
14079TIP3    H163728   4.705   5.728   0.770 -0.5476 -0.3207  0.9702
14079TIP3    H263729   4.589   5.748   0.674  0.0259 -0.9273  0.1496
14080TIP3   OH263730   2.717   1.997  14.755  0.5342  0.1446  0.3785
14080TIP3    H163731   2.714   1.990  14.660  0.7164 -1.5943  0.4761
14080TIP3    H263732   2.804   2.030  14.775  1.1921 -1.3224  0.0102
14081TIP3   OH263733   3.735   5.940  10.790 -0.2641  0.3524  0.1584
14081TIP3    H163734   3.726   5.851  10.824 -0.7839  0.5713  0.5949
14081TIP3    H263735   3.746   5.994  10.868  0.2968  0.6455 -0.1176
14082TIP3   OH263736   6.566   3.194   6.657  0.8097  0.4489  0.1502
14082TIP3    H163737   6.493   3.157   6.707  0.3239  0.6260 -0.4218
14082TIP3    H263738   6.627   3.227   6.724  0.5523 -0.0563  0.6331
14083TIP3   OH263739   5.855   1.867   2.261  0.0202 -0.5235 -0.1638
14083TIP3    H163740   5.763   1.839   2.256  0.1043 -1.5978  3.1889
14083TIP3    H263741   5.901   1.808   2.202 -1.1052 -1.5411 -0.0478
14084TIP3   OH263742   5.783   0.113   3.640  0.5377 -0.1443 -0.4781
14084TIP3    H163743   5.761   0.167   3.565 -0.3826 -0.2724 -0.3083
14084TIP3    H263744   5.720   0.040   3.637 -0.9392  0.9840  1.6319
14085TIP3   OH263745   2.529   2.519  14.989  0.0602 -0.5908  0.0625
14085TIP3    H163746   2.608   2.494  15.036  0.4979 -0.5455 -0.6356
14085TIP3    H263747   2.458   2.473  15.034  0.7398 -2.4107 -0.6763
14086TIP3   OH263748   4.353   3.141  13.538 -0.3211  0.0364 -0.0413
14086TIP3    H163749   4.260   3.135  13.521  0.0419 -0.4388 -1.9807
14086TIP3    H263750   4.382   3.217  13.487 -0.0490  1.6438  2.4347
14087TIP3   OH263751   6.075   5.114  11.605 -0.2808 -0.5504 -0.5287
14087TIP3    H163752   6.052   5.186  11.546  0.2381  0.8518  0.9349
14087TIP3    H263753   6.017   5.126  11.680  1.1153 -0.5174  0.5649
14088TIP3   OH263754   5.609   2.207  12.882 -0.2924  0.1116  0.2698
14088TIP3    H163755   5.643   2.119  12.895  1.3857  0.8531  1.1070
14088TIP3    H263756   5.652   2.237  12.801 -0.2032  0.4680  0.4498
14089TIP3   OH263757   3.214   0.267  11.858 -0.7486  0.1617  0.1851
14089TIP3    H163758   3.206   0.322  11.935 -3.4371 -0.5387  0.4506
14089TIP3    H263759   3.175   0.318  11.787  1.2624  0.6011 -0.6346
14090TIP3   OH263760   3.832   3.593   1.539  0.2708 -0.1290  0.1718
14090TIP3    H163761   3.923   3.610   1.516  0.0725 -0.1842 -0.6777
14090TIP3    H263762   3.783   3.665   1.497  0.0128  0.3741  1.3250
14091TIP3   OH263763   4.863   4.149   1.486 -0.3692  0.3192 -0.0804
14091TIP3    H163764   4.800   4.221   1.494 -0.3114  0.2077  1.5574
14091TIP3    H263765   4.941   4.190   1.448 -1.2125  0.5784 -1.5623
14092TIP3   OH263766   3.710   0.082   3.415 -0.1634  0.3661  0.3532
14092TIP3    H163767   3.769   0.108   3.345 -0.9450  1.2684  0.0254
14092TIP3    H263768   3.622   0.100   3.381 -0.6832 -1.4923  0.6080
14093TIP3   OH263769   5.754   1.329   1.172  0.4944 -0.4654  0.3580
14093TIP3    H163770   5.693   1.257   1.188  0.0548 -0.3962 -0.9656
14093TIP3    H263771   5.764   1.331   1.077  1.5105  0.3920  0.4812
14094TIP3   OH263772   6.348   5.754  14.932 -0.0483  0.2488 -0.5546
14094TIP3    H163773   6.388   5.687  14.876  0.2204  0.1462 -0.2505
14094TIP3    H263774   6.423   5.796  14.975 -0.3250 -0.8020  0.9871
14095TIP3   OH263775   5.491   5.907  13.425 -0.1721 -0.2000 -0.4430
14095TIP3    H163776   5.515   5.835  13.483  1.2476 -0.2881 -1.1196
14095TIP3    H263777   5.401   5.929  13.450 -0.0808 -1.1809  0.8066
14096TIP3   OH263778   6.570   5.393   5.271  0.1340  0.3284 -0.0148
14096TIP3    H163779   6.557   5.434   5.186  0.4389  1.5021  0.4939
14096TIP3    H263780   6.584   5.466   5.331  1.2158 -0.5538  0.8219
14097TIP3   OH263781   6.002   3.889   4.304 -0.5336 -0.4994 -0.4325
14097TIP3    H163782   6.053   3.833   4.244 -1.3627  0.0010 -1.6263
14097TIP3    H263783   6.054   3.969   4.312  0.4096 -1.2225  0.8814
14098TIP3   OH263784   3.742   4.827   2.294 -0.1375  0.3329 -0.4194
14098TIP3    H163785   3.685   4.858   2.364 -1.5400  1.1724 -1.8796
14098TIP3    H263786   3.810   4.776   2.338 -2.0081 -0.6737  1.3839
14099TIP3   OH263787   1.754   5.795  15.083 -0.2810  0.5504  0.1111
14099TIP3    H163788   1.707   5.858  15.028  0.4860  0.2184 -0.9259
14099TIP3    H263789   1.701   5.790  15.163 -2.0761  0.1149 -1.0706
14100TIP3   OH263790   5.436   0.780   0.601  0.1188  0.2430 -0.1516
14100TIP3    H163791   5.350   0.823   0.603  0.0733  0.1387  0.7043
14100TIP3    H263792   5.445   0.746   0.512 -0.4212  0.8705 -0.4496
14101TIP3   OH263793   0.452   0.149  15.715  0.4137  0.5133 -0.5532
14101TIP3    H163794   0.444   0.119  15.624 -1.2750 -3.3502  0.7779
14101TIP3    H263795   0.374   0.202  15.729 -0.7610 -1.1618 -0.5881
14102TIP3   OH263796   0.530   2.478   3.186  0.1997  0.2119 -0.2679
14102TIP3    H163797   0.516   2.483   3.091  2.1853  0.3455 -0.5921
14102TIP3    H263798   0.610   2.529   3.201 -1.2364  1.9581  1.7804
14103TIP3   OH263799   0.611   0.898   4.064  0.0425 -0.3266 -0.1812
14103TIP3    H163800   0.582   0.849   3.987 -0.0825  0.7581 -0.8330
14103TIP3    H263801   0.678   0.843   4.105  0.0883 -0.9110 -1.0482
14104TIP3   OH263802   1.736   3.682  12.251 -0.2694  0.2398  0.2877
14104TIP3    H163803   1.832   3.676  12.245 -0.2343 -0.8863  1.8080
14104TIP3    H263804   1.718   3.776  12.245  0.7473  0.3154 -2.4015
14105TIP3   OH263805   6.404   1.767  15.845 -0.1528  0.6379 -0.9637
14105TIP3    H163806   6.433   1.680  15.871 -0.9158  0.2601 -1.3404
14105TIP3    H263807   6.310   1.756  15.826 -0.8322  2.0488  1.3370
14106TIP3   OH263808   3.340   3.267   5.760 -0.3377 -0.2442 -0.4714
14106TIP3    H163809   3.413   3.217   5.726 -1.2842 -1.3507 -0.8980
14106TIP3    H263810   3.304   3.213   5.830 -1.9280 -0.6199 -1.5405
14107TIP3   OH263811   3.426   2.636  10.472 -1.0890  0.0061  0.0421
14107TIP3    H163812   3.429   2.726  10.505  0.3379 -0.5167  1.3488
14107TIP3    H263813   3.444   2.645  10.378 -0.6522  1.0614  0.2173
14108TIP3   OH263814   0.005   1.279   5.618  0.6437 -0.1785 -0.6438
14108TIP3    H163815   0.038   1.349   5.674 -0.9914  0.1830 -0.1126
14108TIP3    H263816  -0.075   1.249   5.662  0.6512 -1.5180 -1.5309
14109TIP3   OH263817   3.014   3.939  13.724  0.1514 -0.5737 -0.3548
14109TIP3    H163818   3.080   3.973  13.663 -0.7814  0.9549 -0.5370
14109TIP3    H263819   2.952   3.891  13.668 -0.2857  0.1767 -0.5218
14110TIP3   OH263820   5.083   0.081   0.634  0.5922 -0.2291 -0.2163
14110TIP3    H163821   5.130   0.122   0.707  1.3980 -1.1116 -0.2200
14110TIP3    H263822   5.108  -0.012   0.639  0.0031 -0.4413 -1.1206
14111TIP3   OH263823   6.703   2.360  13.873  0.4002 -0.2424  0.9211
14111TIP3    H163824   6.698   2.424  13.944 -1.2894 -1.4282  1.9162
14111TIP3    H263825   6.633   2.297  13.892 -0.8306  0.0041 -2.3770
14112TIP3   OH263826   4.349   1.410  11.239  0.1374  0.1264 -0.7797
14112TIP3    H163827   4.442   1.432  11.247  0.3853 -0.8646 -0.9229
14112TIP3    H263828   4.328   1.428  11.147  0.2280  0.1888 -0.7876
14113TIP3   OH263829   1.705   2.216   1.171 -0.6391  0.0648 -0.0224
14113TIP3    H163830   1.614   2.232   1.193 -0.4476  0.9277  0.1517
14113TIP3    H263831   1.707   2.215   1.075 -0.4627  2.2176 -0.0507
14114TIP3   OH263832   2.423   1.960   5.097  0.2448 -0.1165  0.1226
14114TIP3    H163833   2.464   1.894   5.152  1.1344 -0.3940 -0.8799
14114TIP3    H263834   2.468   2.041   5.119  0.6688 -0.2457 -0.2608
14115TIP3   OH263835   2.627   2.995  16.913 -0.1523 -0.7475 -0.3244
14115TIP3    H163836   2.584   2.961  16.991 -1.3757  0.3066 -0.5065
14115TIP3    H263837   2.594   3.085  16.905  0.8035 -0.4792 -1.4290
14116TIP3   OH263838   0.878   6.168  12.867 -0.3119  0.2830 -0.0470
14116TIP3    H163839   0.934   6.238  12.901  1.7932 -0.6732 -1.4452
14116TIP3    H263840   0.802   6.213  12.831 -1.1018  1.5126  3.0594
14117TIP3   OH263841   2.515   4.464  11.128 -0.0908  0.7146  0.2411
14117TIP3    H163842   2.579   4.426  11.067 -1.3186  0.5538 -0.9837
14117TIP3    H263843   2.559   4.542  11.163  0.5320  1.0091 -1.1208
14118TIP3   OH263844   1.078   3.345   3.525  0.0544  0.1664 -0.3792
14118TIP3    H163845   1.065   3.379   3.614  1.0718 -1.3563  0.3611
14118TIP3    H263846   1.033   3.261   3.524  0.0315  0.1851 -1.3134
14119TIP3   OH263847   0.616   0.477   0.264  0.0350 -0.9596  0.7770
14119TIP3    H163848   0.528   0.447   0.241 -0.3327 -0.5519  1.6205
14119TIP3    H263849   0.643   0.531   0.190 -1.8470  1.7850  2.0209
14120TIP3   OH263850   0.591   1.036   1.216  0.3216  0.0255 -0.0782
14120TIP3    H163851   0.571   0.975   1.144 -1.6532 -1.5561  1.7156
14120TIP3    H263852   0.519   1.099   1.214  0.8946  0.6663 -0.2378
14121TIP3   OH263853   6.195   5.805   4.877  0.0855  0.2169  0.2640
14121TIP3    H163854   6.189   5.817   4.782 -0.1302 -1.0551  0.1069
14121TIP3    H263855   6.276   5.755   4.889  0.0951  0.3501  0.7457
14122TIP3   OH263856   6.794   1.561   4.735 -0.1818 -0.0133  0.0913
14122TIP3    H163857   6.854   1.552   4.660 -0.5871 -0.0684 -0.2263
14122TIP3    H263858   6.713   1.594   4.696 -0.6125 -0.6987  0.4207
14123TIP3   OH263859   0.650   2.297  11.400 -0.1585  0.1361 -0.5095
14123TIP3    H163860   0.590   2.226  11.421  0.2407 -0.3165 -0.8911
14123TIP3    H263861   0.655   2.296  11.304 -0.2150  0.7275 -0.5201
14124TIP3   OH263862   0.836   6.591   3.206  0.6617  0.2517  1.0053
14124TIP3    H163863   0.808   6.618   3.293 -2.4908  0.0495  0.1056
14124TIP3    H263864   0.871   6.503   3.219  0.5871  0.3715  2.1112
14125TIP3   OH263865   4.748   2.462   1.546 -0.2089 -0.3439 -0.3966
14125TIP3    H163866   4.818   2.526   1.559 -0.3615 -0.6841  2.5905
14125TIP3    H263867   4.782   2.401   1.481  1.4553  0.6316 -0.4629
14126TIP3   OH263868   3.559   6.510  14.364 -0.2351 -0.5554  0.0121
14126TIP3    H163869   3.594   6.463  14.288 -2.5041 -1.8407 -0.2613
14126TIP3    H263870   3.470   6.533  14.339 -1.3150 -1.7679  2.5914
14127TIP3   OH263871   0.122   4.693   2.280 -0.3338  0.0932  0.2197
14127TIP3    H163872   0.084   4.769   2.324  1.5344  1.0335  0.2322
14127TIP3    H263873   0.048   4.633   2.269 -0.9649  0.0118  4.2229
14128TIP3   OH263874   4.733   2.317   0.704 -0.1488  0.4986  0.3871
14128TIP3    H163875   4.746   2.270   0.622 -1.5081 -0.6783  0.8203
14128TIP3    H263876   4.701   2.403   0.678  2.1199  1.1410 -0.4073
14129TIP3   OH263877   4.401   5.578  14.533  0.0135 -0.6727 -0.1413
14129TIP3    H163878   4.436   5.537  14.612  0.8186 -1.0913 -0.7030
14129TIP3    H263879   4.453   5.657  14.521 -0.7898 -0.0781  0.3153
14130TIP3   OH263880   2.678   3.736   6.223 -0.1638 -0.4038  0.1813
14130TIP3    H163881   2.755   3.776   6.181  0.5565 -1.5887  0.3564
14130TIP3    H263882   2.609   3.801   6.212  0.0962 -0.5261 -2.5628
14131TIP3   OH263883   5.886   0.444   3.379 -0.6656  0.2849 -0.4994
14131TIP3    H163884   5.901   0.499   3.455 -0.2822 -0.8656  0.2653
14131TIP3    H263885   5.961   0.460   3.322 -0.3757  0.2781 -0.1165
14132TIP3   OH263886   3.666   0.771   4.651 -0.1037  0.1046  0.3795
14132TIP3    H163887   3.680   0.856   4.609 -0.9445 -0.0119 -0.1367
14132TIP3    H263888   3.690   0.707   4.585  0.8666 -0.0613  0.8890
14133TIP3   OH263889   0.140   4.482  16.271 -0.2756  0.3556 -0.2361
14133TIP3    H163890   0.085   4.531  16.210 -2.2852  0.8385  1.8947
14133TIP3    H263891   0.226   4.523  16.264 -0.7095  1.0013 -2.0286
14134TIP3   OH263892   5.465   3.580   3.074  0.2824  0.2353  0.3258
14134TIP3    H163893   5.508   3.635   3.008  0.0438 -0.9713 -0.8505
14134TIP3    H263894   5.428   3.507   3.024  1.6029 -1.6242  2.0084
14135TIP3   OH263895   0.970   1.962   2.793 -0.0342 -0.0789  0.2850
14135TIP3    H163896   1.022   1.954   2.713  0.7643 -0.8570  0.8710
14135TIP3    H263897   0.951   1.872   2.818 -1.8343  0.2071 -0.0313
14136TIP3   OH263898   4.342   5.290   4.522 -0.8345 -0.4595  0.0599
14136TIP3    H163899   4.394   5.238   4.584 -0.1855 -0.4214 -0.4557
14136TIP3    H263900   4.327   5.232   4.448 -3.5119 -1.2680  1.1815
14137TIP3   OH263901   0.137   0.123  16.859  0.3959 -0.4852  0.6471
14137TIP3    H163902   0.134   0.063  16.933  0.9753  1.0192  1.9120
14137TIP3    H263903   0.047   0.152  16.847  0.9133  2.5695  3.5530
14138TIP3   OH263904   5.815   1.426  14.906  0.0300  0.5453 -0.6140
14138TIP3    H163905   5.868   1.488  14.856 -0.0952  1.0001 -0.1941
14138TIP3    H263906   5.752   1.481  14.953 -0.4681  0.0513 -0.6961
14139TIP3   OH263907   5.295   3.667   4.096 -0.1344  0.3750  0.1847
14139TIP3    H163908   5.222   3.646   4.155 -0.0640 -1.1416 -0.2652
14139TIP3    H263909   5.290   3.762   4.086 -1.4891  0.3928  0.8905
14140TIP3   OH263910   3.080   4.981   6.452 -0.2237 -0.3325 -0.4312
14140TIP3    H163911   3.126   4.949   6.374 -1.9753 -0.0612 -1.6152
14140TIP3    H263912   3.149   5.004   6.513  1.2839  1.5233 -2.7396
14141TIP3   OH263913   0.092   2.918  14.931  0.0842 -0.0008 -0.4941
14141TIP3    H163914   0.160   2.927  14.997 -0.5541 -1.3822  0.3774
14141TIP3    H263915   0.073   2.824  14.928 -0.0038  0.0662 -2.5346
14142TIP3   OH263916   0.564   2.581   3.890 -0.1561  0.6971  0.2238
14142TIP3    H163917   0.653   2.610   3.911 -0.4626  1.4807  0.4644
14142TIP3    H263918   0.516   2.662   3.874 -0.7487  0.2589 -0.2373
14143TIP3   OH263919   3.699   4.835   3.575  0.3786 -0.0285  0.0762
14143TIP3    H163920   3.614   4.800   3.548  1.1774 -1.3212 -0.8366
14143TIP3    H263921   3.758   4.812   3.503  2.0551 -1.4496  1.8734
14144TIP3   OH263922   3.904   6.762   1.000 -0.3292  0.5755 -0.7906
14144TIP3    H163923   3.987   6.726   0.968 -0.3647 -0.3472  0.1193
14144TIP3    H263924   3.846   6.686   1.005 -0.3924  0.7180  1.2096
14145TIP3   OH263925   2.978   3.061   4.435 -0.1260 -0.0170  0.1952
14145TIP3    H163926   3.011   3.041   4.347 -0.8163 -2.9580  0.5537
14145TIP3    H263927   2.940   3.149   4.427  1.9748  0.7640 -1.8119
14146TIP3   OH263928   5.315   3.842   3.156 -0.4038  0.3207  0.3881
14146TIP3    H163929   5.300   3.786   3.080  0.2370  0.1576  0.3744
14146TIP3    H263930   5.402   3.880   3.141 -0.0357 -0.1340  1.2938
14147TIP3   OH263931   1.169   3.190  12.489 -0.1205 -0.1631  0.5457
14147TIP3    H163932   1.179   3.257  12.422 -1.8172  0.0300  0.4486
14147TIP3    H263933   1.079   3.201  12.521  0.2834 -0.9872  2.0450
14148TIP3   OH263934   2.374   1.969  15.679 -0.1184 -0.8060  0.2877
14148TIP3    H163935   2.458   2.013  15.693 -0.4595 -0.2549  0.6315
14148TIP3    H263936   2.355   1.928  15.763 -0.3210 -0.7050  0.2916
14149TIP3   OH263937   3.282   4.550   5.113 -0.0106 -0.0567 -0.3327
14149TIP3    H163938   3.375   4.575   5.119 -0.3713  1.2044  0.1149
14149TIP3    H263939   3.261   4.515   5.199  0.2709 -1.1455 -0.6995
14150TIP3   OH263940   3.815   2.437   0.708 -0.2819  0.5194 -0.2697
14150TIP3    H163941   3.768   2.356   0.730  3.0693 -1.2697  0.5363
14150TIP3    H263942   3.818   2.484   0.791  1.5417 -0.5498  0.2925
14151TIP3   OH263943   2.198   1.257   0.030  0.3719 -0.0525  0.6841
14151TIP3    H163944   2.148   1.304   0.097  0.2013  1.0182 -0.1686
14151TIP3    H263945   2.273   1.314   0.012 -1.2160  1.2708 -2.2703
14152TIP3   OH263946   1.865   0.366  16.019  0.2579 -0.6584  0.0131
14152TIP3    H163947   1.839   0.456  15.996  3.3271 -0.3047 -2.3911
14152TIP3    H263948   1.783   0.324  16.047 -1.9477  1.7615 -2.4841
14153TIP3   OH263949   0.591   1.680  12.469  0.0502 -0.3355 -0.2030
14153TIP3    H163950   0.521   1.630  12.427  0.0389 -0.6538  0.2005
14153TIP3    H263951   0.672   1.633  12.446 -0.1831 -2.1171  2.4389
14154TIP3   OH263952   1.730   1.862   2.568 -0.8203 -0.5141  0.1496
14154TIP3    H163953   1.760   1.940   2.615 -1.0304  0.0281 -0.5891
14154TIP3    H263954   1.804   1.802   2.571  0.5046  0.9378 -1.9614
14155TIP3   OH263955   0.495   0.704  16.184 -0.5957  0.0934 -0.1031
14155TIP3    H163956   0.403   0.681  16.169 -0.2272 -1.6765  0.1609
14155TIP3    H263957   0.504   0.706  16.279 -0.5134  0.9510 -0.1245
14156TIP3   OH263958   1.500   4.940  15.367 -0.7411 -0.8116 -0.0001
14156TIP3    H163959   1.489   4.939  15.462 -1.5810  0.8676 -0.0607
14156TIP3    H263960   1.569   5.005  15.351  0.3978 -2.1103 -0.4594
14157TIP3   OH263961   0.952   6.512   5.087 -0.1505  0.0347  0.1098
14157TIP3    H163962   0.892   6.540   5.018  0.2986  1.3932  0.2467
14157TIP3    H263963   1.040   6.529   5.051  0.1065 -0.0402  0.6955
14158TIP3   OH263964   6.617   1.584   0.194 -0.6730 -0.4228 -0.4216
14158TIP3    H163965   6.562   1.522   0.146 -1.7204  0.1358  0.0378
14158TIP3    H263966   6.557   1.625   0.257  0.2583  0.2427  0.0328
14159TIP3   OH263967   4.545   4.767   3.131  0.0480 -0.5544 -0.2834
14159TIP3    H163968   4.530   4.691   3.074 -0.2976  2.2492 -4.1225
14159TIP3    H263969   4.611   4.818   3.085  1.8063  0.5376  3.2682
14160TIP3   OH263970   6.123   6.351  16.240  0.1416  0.0515 -0.4748
14160TIP3    H163971   6.139   6.415  16.309 -0.9134  0.8818 -0.9972
14160TIP3    H263972   6.048   6.301  16.271 -0.7243  0.8303 -1.2934
14161TIP3   OH263973   5.996   0.258   2.228 -0.5020 -0.4923 -0.1220
14161TIP3    H163974   6.017   0.199   2.155 -0.0301 -1.2338  0.6089
14161TIP3    H263975   6.041   0.219   2.304 -0.3608  0.6855  0.4055
14162TIP3   OH263976   0.541   4.729  10.960  0.0894 -0.9512  0.5222
14162TIP3    H163977   0.449   4.734  10.933 -0.3217  2.3954  2.2498
14162TIP3    H263978   0.586   4.790  10.902  1.1848 -2.3035 -0.0738
14163TIP3   OH263979   5.520   1.670   3.060  0.2486 -0.2271  0.0060
14163TIP3    H163980   5.530   1.586   3.015  1.0877 -0.2873  0.2976
14163TIP3    H263981   5.577   1.730   3.011 -0.9532  0.3582 -0.6791
14164TIP3   OH263982   0.571   5.818   5.973 -0.1862  0.4639 -0.3418
14164TIP3    H163983   0.631   5.801   6.046 -0.2064  2.7354  0.2362
14164TIP3    H263984   0.484   5.802   6.009 -0.0786 -0.3826 -0.4546
14165TIP3   OH263985   3.497   2.572  13.936 -0.0941 -0.9048 -0.3185
14165TIP3    H163986   3.518   2.665  13.925 -2.7690 -0.3210 -0.7641
14165TIP3    H263987   3.456   2.567  14.022  1.9291 -2.0585  0.6221
14166TIP3   OH263988   0.580   6.089   2.664  0.2853  0.3251 -0.2987
14166TIP3    H163989   0.647   6.126   2.608  0.2014 -0.1409 -0.7089
14166TIP3    H263990   0.583   5.995   2.647 -0.6602  0.3276 -0.5366
14167TIP3   OH263991   1.457   0.858   2.092 -0.0726 -0.2018 -0.3756
14167TIP3    H163992   1.410   0.874   2.173  1.5450  2.4476  0.0985
14167TIP3    H263993   1.436   0.933   2.036  3.6677  1.2072 -0.0493
14168TIP3   OH263994   4.904   5.605  12.778 -0.5129  0.2478 -0.1670
14168TIP3    H163995   4.938   5.562  12.699 -2.3829 -0.1161 -0.8041
14168TIP3    H263996   4.909   5.537  12.845  1.5418  0.7080  0.1704
14169TIP3   OH263997   2.800   5.454  12.366  0.2990 -0.3334 -0.0325
14169TIP3    H163998   2.864   5.427  12.300  1.4688  0.5270  0.7347
14169TIP3    H263999   2.840   5.431  12.450 -0.5512 -0.1106  0.4394
14170TIP3   OH264000   4.609   1.235   4.259 -0.1997 -0.4401 -0.1838
14170TIP3    H164001   4.699   1.264   4.242 -1.2501  1.7170 -2.4875
14170TIP3    H264002   4.577   1.296   4.326  0.4458 -2.0533  1.6282
14171TIP3   OH264003   0.088   2.926  10.348 -0.2184 -0.5357  0.1109
14171TIP3    H164004   0.144   2.849  10.336 -0.8183 -1.2279  1.6129
14171TIP3    H264005   0.098   2.950  10.440 -0.0336  1.2064 -0.3434
14172TIP3   OH264006   6.575   5.838  13.476 -0.2096  0.2434 -0.9198
14172TIP3    H164007   6.610   5.902  13.537 -1.4866 -0.4377  0.5689
14172TIP3    H264008   6.618   5.858  13.393  0.8883  1.7486 -0.0179
14173TIP3   OH264009   0.979   2.844  14.451 -0.1681 -0.2751 -0.4019
14173TIP3    H164010   0.952   2.834  14.360 -0.5522 -0.7661 -0.2317
14173TIP3    H264011   1.011   2.757  14.477 -2.0398 -0.6836  0.5797
14174TIP3   OH264012   1.419   5.589   1.351 -0.2742 -0.1214  0.2856
14174TIP3    H164013   1.396   5.662   1.293 -0.1143 -0.5099 -0.2696
14174TIP3    H264014   1.373   5.609   1.433 -1.7200 -0.3392 -0.4496
14175TIP3   OH264015   0.221   4.028   5.601 -0.3718 -0.3702  0.0622
14175TIP3    H164016   0.293   3.965   5.601  0.7774  0.9320  0.7915
14175TIP3    H264017   0.178   4.016   5.686 -0.5401 -0.5983 -0.0540
14176TIP3   OH264018   5.641   2.841   1.619 -0.3909 -0.1865  0.5068
14176TIP3    H164019   5.572   2.892   1.661  2.1717  2.4511  1.7306
14176TIP3    H264020   5.597   2.796   1.547 -3.5239  0.6997  1.7549
14177TIP3   OH264021   2.280   1.956   5.458 -0.3878 -0.2383  0.1222
14177TIP3    H164022   2.305   2.047   5.475 -0.6347 -0.3796  1.3290
14177TIP3    H264023   2.348   1.905   5.503 -0.7185 -0.6385  0.1649
14178TIP3   OH264024   2.493   6.816   0.446  0.3129  0.2333 -0.2631
14178TIP3    H164025   2.471   6.901   0.409  1.2303  0.7533  0.3753
14178TIP3    H264026   2.462   6.753   0.381  1.3332  1.1137 -1.6260
14179TIP3   OH264027   1.587   6.588   1.985  0.8345  0.0264 -0.1599
14179TIP3    H164028   1.608   6.673   2.023  0.0032 -0.1134  0.6222
14179TIP3    H264029   1.553   6.608   1.897  1.8636  0.4079 -0.4799
14180TIP3   OH264030   4.782   2.677   4.783 -0.7913 -0.3320  0.2319
14180TIP3    H164031   4.781   2.618   4.709 -0.5368  0.4691 -0.4142
14180TIP3    H264032   4.824   2.627   4.854 -0.5036 -0.8840 -0.3288
14181TIP3   OH264033   1.846   2.770   5.519 -0.5238 -0.2244 -0.6070
14181TIP3    H164034   1.918   2.821   5.482 -1.9083  0.9102 -1.7996
14181TIP3    H264035   1.834   2.806   5.607 -0.9222  0.9881 -1.1303
14182TIP3   OH264036   0.662   5.172  14.091 -0.6663 -0.7508 -0.2834
14182TIP3    H164037   0.666   5.251  14.037  0.3854 -2.0639 -2.1838
14182TIP3    H264038   0.740   5.122  14.066 -0.5077 -1.6866  2.0124
14183TIP3   OH264039   6.594   6.798  16.177  0.1972  1.1282  0.0335
14183TIP3    H164040   6.630   6.717  16.140  0.1291  0.5499  1.2306
14183TIP3    H264041   6.582   6.779  16.270 -0.9133  2.1304  0.1017
14184TIP3   OH264042   3.205   0.871  14.524 -0.1171  0.3404  0.3842
14184TIP3    H164043   3.117   0.856  14.559 -0.3977 -1.3194 -0.9697
14184TIP3    H264044   3.197   0.954  14.476 -0.5550  0.9418  1.4758
14185TIP3   OH264045   6.102   1.947   1.767 -0.1457  0.7054  0.5921
14185TIP3    H164046   6.177   1.987   1.812 -1.5960  1.0392  2.8109
14185TIP3    H264047   6.141   1.881   1.710  1.8829  1.2794  1.2559
14186TIP3   OH264048   2.587   3.209   3.903  0.4929 -0.4332  0.5601
14186TIP3    H164049   2.629   3.123   3.896  1.5554  0.3515 -4.0016
14186TIP3    H264050   2.655   3.271   3.878 -1.2926  1.4279  0.2058
14187TIP3   OH264051   3.768   5.776   2.060 -0.5199 -0.3160 -0.1091
14187TIP3    H164052   3.792   5.684   2.059 -0.5537 -0.3271 -1.0685
14187TIP3    H264053   3.788   5.807   1.971  0.5754  0.8794  0.5282
14188TIP3   OH264054   0.624   1.353  12.409  0.3810  0.8259 -0.6984
14188TIP3    H164055   0.628   1.404  12.490  0.6638  1.7928 -1.3086
14188TIP3    H264056   0.577   1.273  12.433  1.2152  0.7169  0.6162
14189TIP3   OH264057   0.793   4.513  10.875  0.0533  0.3005 -0.3491
14189TIP3    H164058   0.740   4.592  10.861 -0.6643 -0.2343 -0.7255
14189TIP3    H264059   0.859   4.516  10.805  2.8078  2.8009  2.2144
14190TIP3   OH264060   0.173   6.377   1.506 -0.1317 -0.1857  0.0397
14190TIP3    H164061   0.158   6.286   1.530 -2.1513 -0.1213 -0.8335
14190TIP3    H264062   0.114   6.392   1.433  2.3763  0.9962 -1.7926
14191TIP3   OH264063   1.384   2.679   3.410  0.1836 -0.7253  0.4135
14191TIP3    H164064   1.479   2.689   3.414  0.1335 -0.0202 -0.0900
14191TIP3    H264065   1.355   2.696   3.499  0.4866 -0.4969  0.4704
14192TIP3   OH264066   6.166   0.262   0.336  0.0454 -0.2101 -0.0667
14192TIP3    H164067   6.128   0.181   0.369 -0.8462  0.3183  0.2276
14192TIP3    H264068   6.212   0.299   0.411 -1.2568  0.5626  0.3580
14193TIP3   OH264069   1.682   2.333   0.062  0.0089 -0.1266 -0.4807
14193TIP3    H164070   1.766   2.294   0.086  0.1242  0.4491  0.0688
14193TIP3    H264071   1.672   2.314  -0.031 -0.8278 -3.1356  0.1577
14194TIP3   OH264072   5.052   5.648  11.518  0.8397  0.2096  0.1433
14194TIP3    H164073   5.126   5.595  11.490  0.9769  0.9471 -0.9200
14194TIP3    H264074   4.981   5.586  11.530  0.9256 -0.1844 -1.3554
14195TIP3   OH264075   0.786   0.097  16.608 -0.3247 -0.1647 -0.0474
14195TIP3    H164076   0.836   0.064  16.533  0.8738  0.2925  0.5357
14195TIP3    H264077   0.725   0.161  16.570 -1.6157 -1.9086 -0.9759
14196TIP3   OH264078   0.470   1.675  12.773 -0.3510  0.3569  0.2216
14196TIP3    H164079   0.385   1.631  12.780 -0.4261  0.6466  1.1844
14196TIP3    H264080   0.448   1.766  12.749 -0.2142 -0.0019 -1.3678
14197TIP3   OH264081   1.753   3.790  14.358  0.2396 -0.3109 -0.1437
14197TIP3    H164082   1.661   3.791  14.384  0.5402 -0.6819  0.9575
14197TIP3    H264083   1.790   3.867  14.402  1.1776 -2.0262  2.1756
14198TIP3   OH264084   1.120   0.689   6.552  0.3670 -0.0192 -0.0234
14198TIP3    H164085   1.179   0.707   6.479  0.2814 -3.1159 -0.9179
14198TIP3    H264086   1.137   0.598   6.575 -1.7648  0.0012  1.8343
14199TIP3   OH264087   1.108   1.108  12.913  0.2689  0.0137 -0.3723
14199TIP3    H164088   1.186   1.131  12.963 -0.0705  0.2364  0.0553
14199TIP3    H264089   1.052   1.062  12.975  0.8723 -1.8530 -1.1640
14200TIP3   OH264090   1.560   2.272  12.421 -0.0531 -0.2374  0.0555
14200TIP3    H164091   1.501   2.347  12.427 -0.9965 -0.9206 -0.6098
14200TIP3    H264092   1.639   2.299  12.469 -0.1671  1.3822 -0.6704
14201TIP3   OH264093   3.801   2.880   0.301  0.0677 -0.2204 -0.0413
14201TIP3    H164094   3.836   2.930   0.375  1.9805  0.2122 -1.2133
14201TIP3    H264095   3.795   2.790   0.333  0.3391  0.0623  0.8067
14202TIP3   OH264096   3.537   0.467  13.537 -0.0535 -0.2352 -0.1555
14202TIP3    H164097   3.452   0.505  13.556  1.1580  1.7111  1.5843
14202TIP3    H264098   3.529   0.375  13.564 -1.4612  0.0356  0.3721
14203TIP3   OH264099   5.310   5.826  16.858  0.5910  0.1997  0.2995
14203TIP3    H164100   5.308   5.745  16.808  1.7084  0.0860  0.4304
14203TIP3    H264101   5.254   5.887  16.808 -2.1643 -1.3254  1.4195
14204TIP3   OH264102   3.386   4.311   3.547  0.0800 -0.1158 -0.3726
14204TIP3    H164103   3.335   4.314   3.466  0.5485  0.5573 -0.6449
14204TIP3    H264104   3.322   4.331   3.615 -0.4509 -1.3044 -0.5064
14205TIP3   OH264105   3.133   4.596  14.706  0.1568  0.4815  0.1407
14205TIP3    H164106   3.120   4.656  14.633 -0.0075  1.5945  1.0622
14205TIP3    H264107   3.182   4.647  14.770 -0.5886 -0.1481  1.2302
14206TIP3   OH264108   0.538   6.039   0.996 -0.5534  0.2790 -0.3130
14206TIP3    H164109   0.452   6.073   0.972 -1.1686  0.3227  1.8514
14206TIP3    H264110   0.590   6.118   1.015 -0.2897  0.2151 -0.7531
14207TIP3   OH264111   1.603   6.663   4.522 -0.7604  0.5766 -0.4113
14207TIP3    H164112   1.644   6.716   4.590  0.1597  1.2315 -1.4732
14207TIP3    H264113   1.582   6.724   4.452 -1.9167 -0.0569 -0.6445
14208TIP3   OH264114   0.333   0.980  10.347 -0.4586  0.3341  0.6625
14208TIP3    H164115   0.245   0.959  10.315  0.0464  0.5529 -0.9182
14208TIP3    H264116   0.387   0.905  10.322  0.5741  1.8257 -1.7254
14209TIP3   OH264117   3.116   4.360   4.152  0.2749 -0.2945 -0.7682
14209TIP3    H164118   3.199   4.406   4.140 -0.7461  1.5023 -1.1124
14209TIP3    H264119   3.050   4.429   4.150 -1.1330 -1.5498  0.7566
14210TIP3   OH264120   4.135   2.100  14.683  0.1682 -0.4417 -0.8484
14210TIP3    H164121   4.184   2.019  14.667 -1.1909 -1.6186  0.8472
14210TIP3    H264122   4.129   2.106  14.779 -1.6722  0.4947 -1.0098
14211TIP3   OH264123   5.397   1.998   1.486 -0.8361 -0.2965  0.0820
14211TIP3    H164124   5.350   2.045   1.555 -2.7375  0.2830 -1.5454
14211TIP3    H264125   5.368   1.907   1.496 -0.2642 -0.4112  0.7216
14212TIP3   OH264126   3.486   2.732   1.116  0.0361  0.3643  0.0918
14212TIP3    H164127   3.555   2.708   1.178  0.1163  1.2104  0.3337
14212TIP3    H264128   3.441   2.806   1.157 -1.2368 -0.3953  0.0916
14213TIP3   OH264129   0.066   0.385   3.925 -0.3783  0.7981 -0.2304
14213TIP3    H164130   0.021   0.311   3.885  0.5515 -0.6924  1.3928
14213TIP3    H264131   0.000   0.454   3.929 -1.8162 -0.5552 -0.0951
14214TIP3   OH264132   2.791   5.105  17.175  0.4102 -1.0014 -0.0118
14214TIP3    H164133   2.716   5.093  17.234 -0.4739  0.6233 -0.7592
14214TIP3    H264134   2.809   5.017  17.141 -2.5563 -1.1393 -1.4314
14215TIP3   OH264135   3.072   1.092  11.276 -0.5369  0.6726 -0.2419
14215TIP3    H164136   2.979   1.113  11.267 -0.7430 -0.1474 -0.0320
14215TIP3    H264137   3.117   1.165  11.232 -1.2646  1.1782 -0.1600
14216TIP3   OH264138   2.704   2.306  11.743 -0.1702  0.6186 -0.4957
14216TIP3    H164139   2.763   2.374  11.713  0.1795  0.6310  0.1908
14216TIP3    H264140   2.760   2.245  11.792 -0.6032  0.2540 -0.4428
14217TIP3   OH264141   0.655   4.798  13.201 -0.1035 -0.4415  0.1021
14217TIP3    H164142   0.629   4.718  13.156  0.0422 -0.8540  0.7512
14217TIP3    H264143   0.573   4.841  13.225 -0.1831 -0.2423 -0.5020
14218TIP3   OH264144   0.738   5.544  15.071  0.4332 -0.5277  0.2076
14218TIP3    H164145   0.829   5.519  15.054  0.5133  0.1293 -0.3275
14218TIP3    H264146   0.744   5.630  15.113 -0.0551  0.8638 -2.4681
14219TIP3   OH264147   5.185   2.290  12.020  0.2531  0.5557 -0.2831
14219TIP3    H164148   5.266   2.341  12.023  0.1212  0.7658 -0.3696
14219TIP3    H264149   5.134   2.321  12.095  0.4950  0.0220  0.1155
14220TIP3   OH264150   3.340   2.998   5.524  0.9619 -0.1221 -0.3455
14220TIP3    H164151   3.262   2.955   5.560 -0.5348  1.8643 -1.1472
14220TIP3    H264152   3.379   3.043   5.598  0.0756  0.7384 -0.3993
14221TIP3   OH264153   1.273   5.671  14.983  0.3152  0.3477 -0.0613
14221TIP3    H164154   1.292   5.684  15.076  1.5861  0.8309 -0.3813
14221TIP3    H264155   1.357   5.648  14.945  0.1049  1.6835 -1.3664
14222TIP3   OH264156   1.362   4.954  11.286  0.1090  0.3066  0.3352
14222TIP3    H164157   1.348   4.862  11.310  2.6330  0.0852  1.0714
14222TIP3    H264158   1.328   5.004  11.360 -3.7787  0.1365 -1.2121
14223TIP3   OH264159   1.983   2.732  10.707  0.3478  0.4498  0.0237
14223TIP3    H164160   1.925   2.784  10.762  0.5096  0.1428  0.4928
14223TIP3    H264161   1.981   2.775  10.622 -1.7630 -0.4456 -0.4047
14224TIP3   OH264162   2.542   6.777  17.009  0.4794  0.2463 -0.1944
14224TIP3    H164163   2.512   6.864  17.035 -1.2735 -0.4107  0.0749
14224TIP3    H264164   2.599   6.749  17.080 -0.5292  0.3835  0.6855
14225TIP3   OH264165   5.526   5.720   0.366 -0.4662  0.1832 -0.1668
14225TIP3    H164166   5.587   5.789   0.340 -0.3294 -0.6789 -2.2931
14225TIP3    H264167   5.582   5.643   0.378 -1.0998 -0.6762 -2.3914
14226TIP3   OH264168   1.072   3.046  16.653 -0.0641 -0.4447 -0.2597
14226TIP3    H164169   1.003   3.009  16.598  0.3114  0.3110 -1.2503
14226TIP3    H264170   1.152   3.005  16.622  0.2964  0.8334 -1.0578
14227TIP3   OH264171   6.395   0.170   5.221  0.6400  0.2301 -0.1173
14227TIP3    H164172   6.384   0.254   5.176 -0.6141  0.3439  0.3747
14227TIP3    H264173   6.448   0.191   5.298  0.4568  0.5510 -0.0766
14228TIP3   OH264174   3.230   1.739  11.882  0.4298  0.1766  0.1689
14228TIP3    H164175   3.233   1.818  11.829  0.4691  0.9267  1.2707
14228TIP3    H264176   3.269   1.764  11.966  1.1766 -1.2213  0.2652
14229TIP3   OH264177   3.979   6.154  11.217  0.6597  0.0629 -0.4776
14229TIP3    H164178   3.995   6.065  11.184 -1.5373  0.3366 -2.4114
14229TIP3    H264179   4.066   6.187  11.240  1.9907 -1.1931 -3.4152
14230TIP3   OH264180   3.363   5.657   2.606  0.5666 -0.3141  0.2839
14230TIP3    H164181   3.295   5.590   2.600  1.6061 -1.2568 -1.0945
14230TIP3    H264182   3.443   5.609   2.629  1.1895  0.5150 -0.1143
14231TIP3   OH264183   1.634   1.532  14.366  0.1337  0.2209 -0.0523
14231TIP3    H164184   1.655   1.591  14.293  1.9629  0.7187  0.8537
14231TIP3    H264185   1.719   1.504  14.399 -0.6975 -0.4746  1.5250
14232TIP3   OH264186   2.351   2.347   2.575 -0.1325 -0.3834  0.3877
14232TIP3    H164187   2.432   2.393   2.553  0.7149 -2.3873 -0.7480
14232TIP3    H264188   2.377   2.256   2.588 -1.9181 -0.7215  1.8450
14233TIP3   OH264189   4.628   6.680  11.815  0.2279  0.0942  0.2809
14233TIP3    H164190   4.620   6.735  11.893 -0.7201  1.5702 -0.8363
14233TIP3    H264191   4.718   6.691  11.787  0.5480 -0.3689  1.1003
14234TIP3   OH264192   0.983   4.858  11.648 -0.1426 -0.1737 -0.0366
14234TIP3    H164193   0.941   4.788  11.697  0.5927  0.8262  2.1081
14234TIP3    H264194   1.074   4.831  11.640  0.0701  0.3515  0.5060
14235TIP3   OH264195   0.457   4.530  17.223 -0.5138 -0.1124 -0.0996
14235TIP3    H164196   0.467   4.556  17.315  0.9878  0.6135 -0.4482
14235TIP3    H264197   0.370   4.561  17.199 -0.2030  1.3322  0.5750
14236TIP3   OH264198   0.550   2.051  16.780 -0.0550 -0.4526 -0.7659
14236TIP3    H164199   0.558   2.143  16.754  0.2960 -0.0756  0.6400
14236TIP3    H264200   0.626   2.036  16.836 -0.3987 -1.4616 -0.5698
14237TIP3   OH264201   0.353   4.853   0.863 -0.0034 -0.3099  0.2433
14237TIP3    H164202   0.341   4.759   0.850  2.2202 -0.8235  1.6200
14237TIP3    H264203   0.267   4.891   0.844 -1.6807 -2.9081  2.2575
14238TIP3   OH264204   4.769   4.111  11.356 -0.3537  0.2881 -0.1281
14238TIP3    H164205   4.829   4.134  11.285 -0.6882 -0.5996 -0.7076
14238TIP3    H264206   4.695   4.068  11.312  1.6544 -4.7695  1.1132
14239TIP3   OH264207   4.689   6.253   4.065  0.0765  0.3988 -0.2555
14239TIP3    H164208   4.729   6.237   4.150 -2.2761 -0.4480  0.7493
14239TIP3    H264209   4.755   6.301   4.016  1.6505  0.5101  1.8916
14240TIP3   OH264210   5.027   2.720  10.801  0.0973  0.1046 -0.3221
14240TIP3    H164211   4.938   2.689  10.786  0.7226 -2.6329  1.2336
14240TIP3    H264212   5.031   2.739  10.895  1.8544 -2.4082  0.1720
14241TIP3   OH264213   3.499   0.575   2.192 -0.1718  0.4087 -0.1725
14241TIP3    H164214   3.493   0.596   2.285  0.6756 -1.8351  0.4359
14241TIP3    H264215   3.542   0.651   2.153  1.5256  0.4646  1.6686
14242TIP3   OH264216   5.230   1.921   0.737 -0.1251 -0.2596 -0.2011
14242TIP3    H164217   5.277   1.989   0.688 -0.1548  2.9237  3.9412
14242TIP3    H264218   5.150   1.907   0.686  0.0655  2.5721 -1.3943
14243TIP3   OH264219   4.400   3.508  14.704 -0.1464 -0.6979  0.2881
14243TIP3    H164220   4.356   3.443  14.649  1.5613 -0.1907 -1.7251
14243TIP3    H264221   4.476   3.461  14.739  0.3263 -0.1738 -0.0461
14244TIP3   OH264222   6.085   5.594   4.676  0.0139 -0.5893 -0.6253
14244TIP3    H164223   5.996   5.596   4.641 -0.4935  0.3765  0.6940
14244TIP3    H264224   6.118   5.683   4.664  0.1117 -0.4466  0.6244
14245TIP3   OH264225   4.434   5.151  13.425 -0.3164  0.4160  0.1629
14245TIP3    H164226   4.458   5.092  13.354 -0.8940  0.1057  0.2241
14245TIP3    H264227   4.373   5.214  13.385 -1.9582 -0.7706  0.7713
14246TIP3   OH264228   4.546   1.795   0.539  0.4045  0.3664 -0.6779
14246TIP3    H164229   4.586   1.814   0.624 -0.3437 -0.9884 -0.0048
14246TIP3    H264230   4.469   1.852   0.535 -0.3939 -0.6192  0.2162
14247TIP3   OH264231   3.248   5.977  12.877  0.6750  0.5335  0.4595
14247TIP3    H164232   3.300   6.000  12.800  0.8124 -0.3344  0.2916
14247TIP3    H264233   3.234   6.060  12.922  0.5565  1.0594 -0.5305
14248TIP3   OH264234   4.512   1.189   4.827  0.5701 -0.0707 -0.0960
14248TIP3    H164235   4.441   1.220   4.771  0.8860 -1.0540 -1.0595
14248TIP3    H264236   4.470   1.126   4.886  0.5471 -0.2934 -0.3479
14249TIP3   OH264237   4.729   2.235  15.711  0.2687 -0.2996  0.5180
14249TIP3    H164238   4.776   2.312  15.744 -0.6431 -0.2178  1.6506
14249TIP3    H264239   4.793   2.164  15.716  1.4142  0.5506 -1.4079
14250TIP3   OH264240   1.228   0.427   5.377 -0.1549 -0.0250  0.1066
14250TIP3    H164241   1.212   0.429   5.472 -1.2538 -0.8387 -0.0515
14250TIP3    H264242   1.226   0.519   5.351 -0.0988  0.1909  0.8317
14251TIP3   OH264243   1.344   2.962   4.278  0.4574  0.0043 -0.0798
14251TIP3    H164244   1.436   2.988   4.288  0.2221  1.1161 -0.6726
14251TIP3    H264245   1.325   2.911   4.357  1.1073  1.2107  0.8765
14252TIP3   OH264246   1.665   4.132   3.078  0.3227  0.0488  0.5201
14252TIP3    H164247   1.678   4.171   3.164 -2.1578  0.3084  0.8354
14252TIP3    H264248   1.648   4.206   3.020  1.7059 -0.1453 -0.1306
14253TIP3   OH264249   1.316   6.404  16.090  0.0661  0.2253 -0.4120
14253TIP3    H164250   1.355   6.489  16.111 -0.7911  0.9347 -1.6206
14253TIP3    H264251   1.233   6.426  16.048 -0.0489 -1.2085 -0.9558
14254TIP3   OH264252   0.945   2.814  11.601 -0.3919  0.5854  0.0118
14254TIP3    H164253   0.960   2.908  11.594 -0.5324  0.6609  0.6488
14254TIP3    H264254   0.959   2.781  11.513 -2.7991  1.5577 -0.7703
14255TIP3   OH264255   1.998   2.095  17.029  0.2884  0.4054  0.0989
14255TIP3    H164256   1.973   2.158  16.962  0.2868  0.3977  0.0913
14255TIP3    H264257   2.063   2.140  17.082 -1.0510  1.0762  1.2146
14256TIP3   OH264258   5.485   2.068  14.439  0.2770  0.1476 -0.0973
14256TIP3    H164259   5.539   2.136  14.398  2.5981  0.2464  2.9431
14256TIP3    H264260   5.462   2.104  14.524  0.2540 -2.2587  0.9461
14257TIP3   OH264261   2.538   5.984  13.971 -0.1209  0.3862  0.0413
14257TIP3    H164262   2.488   6.062  13.946  0.6495  0.4362 -1.4219
14257TIP3    H264263   2.621   6.019  14.004  0.8535  0.1879 -2.0617
14258TIP3   OH264264   1.139   3.751  15.411  0.0633 -0.5737  0.2805
14258TIP3    H164265   1.207   3.762  15.477  0.6837 -0.2210 -0.4078
14258TIP3    H264266   1.183   3.709  15.337 -0.7764 -1.5650  0.3351
14259TIP3   OH264267   0.491   4.386   2.413 -0.4362 -0.1715  0.0673
14259TIP3    H164268   0.537   4.398   2.496 -1.2123  0.5931  0.3886
14259TIP3    H264269   0.398   4.393   2.435 -0.5959  2.0724 -1.1719
14260TIP3   OH264270   5.549   3.370  16.976  0.5651 -0.2733  0.2751
14260TIP3    H164271   5.499   3.432  16.923  1.9810  1.1843  0.6246
14260TIP3    H264272   5.640   3.396  16.965  1.1767 -2.1626  0.6149
14261TIP3   OH264273   6.776   5.063  14.802  0.4362  0.3656  0.4735
14261TIP3    H164274   6.800   4.980  14.758  0.4223  1.3332 -1.4296
14261TIP3    H264275   6.853   5.085  14.854 -0.0393 -1.4923  2.0464
14262TIP3   OH264276   1.470   1.076   4.501 -0.0469 -0.3397 -0.6918
14262TIP3    H164277   1.519   0.994   4.503  0.1187 -0.2270  0.3245
14262TIP3    H264278   1.420   1.076   4.583  0.1019  0.6599 -0.5927
14263TIP3   OH264279   4.141   5.631  12.656 -0.0815 -0.4803 -0.1469
14263TIP3    H164280   4.180   5.709  12.696 -2.3018  0.2500  0.6513
14263TIP3    H264281   4.161   5.641  12.562  0.6347  0.4443  0.0891
14264TIP3   OH264282   2.183   6.554  15.402 -0.3026  0.1180  0.7023
14264TIP3    H164283   2.266   6.588  15.435  0.0560 -2.0244  2.1593
14264TIP3    H264284   2.208   6.476  15.352 -1.2232  0.9264 -1.0142
14265TIP3   OH264285   6.325   1.081   0.523 -0.5351  0.4440 -0.6418
14265TIP3    H164286   6.329   1.172   0.551 -0.1443  1.0386 -2.5507
14265TIP3    H264287   6.236   1.053   0.545 -0.0999  0.7539  1.5246
14266TIP3   OH264288   5.591   0.474  14.397  0.0261 -0.0244  0.5693
14266TIP3    H164289   5.503   0.472  14.359  1.1009  1.4098 -2.1114
14266TIP3    H264290   5.622   0.384  14.388 -1.0259 -0.4626  1.2039
14267TIP3   OH264291   1.290   3.729   2.961 -0.9494 -0.2173  0.5689
14267TIP3    H164292   1.238   3.808   2.945 -0.3619 -0.2881 -1.9941
14267TIP3    H264293   1.244   3.683   3.030 -2.4460  1.3652  0.6646
14268TIP3   OH264294   5.344   6.436  14.422  0.2180  0.3399 -0.5461
14268TIP3    H164295   5.413   6.403  14.365  0.8867 -0.0090  0.4570
14268TIP3    H264296   5.262   6.410  14.379  0.7257 -0.6171 -0.9239
14269TIP3   OH264297   3.519   6.021   1.929  0.2492  0.8287  0.3678
14269TIP3    H164298   3.582   5.950   1.914  0.5383  0.6281  2.3839
14269TIP3    H264299   3.480   6.037   1.843  0.0879 -1.8623 -0.1075
14270TIP3   OH264300   0.013   3.252  15.056  0.1939  0.5383  0.0169
14270TIP3    H164301   0.030   3.343  15.031 -0.5885  0.7853  0.3576
14270TIP3    H264302  -0.033   3.215  14.981 -0.1639  0.6397  0.1874
14271TIP3   OH264303   5.246   0.872  12.715 -0.3724 -0.1233  0.5088
14271TIP3    H164304   5.252   0.950  12.659  0.4817 -0.4723  0.1179
14271TIP3    H264305   5.190   0.812  12.667 -0.4310 -0.0456  0.4802
14272TIP3   OH264306   5.058   3.748   3.378 -0.7733 -0.2933 -0.2421
14272TIP3    H164307   4.990   3.806   3.345 -0.5975 -0.6192 -1.1983
14272TIP3    H264308   5.033   3.661   3.346 -0.1121 -0.4733 -0.2823
14273TIP3   OH264309   0.097   5.226   2.249  0.5864  0.9429 -0.5092
14273TIP3    H164310   0.126   5.274   2.172 -2.5412  0.2391 -2.2252
14273TIP3    H264311   0.107   5.134   2.225  1.1681  0.7179  0.5680
14274TIP3   OH264312   5.781   0.404  12.772  0.8108 -0.2185 -0.1605
14274TIP3    H164313   5.727   0.398  12.693 -1.2772 -2.0891  1.3410
14274TIP3    H264314   5.751   0.484  12.815  0.0063 -0.6671  0.1153
14275TIP3   OH264315   4.551   4.987  14.743 -0.0525 -0.2673 -0.3341
14275TIP3    H164316   4.635   4.952  14.715  0.5974 -0.5139  1.7967
14275TIP3    H264317   4.490   4.964  14.673  1.5239 -0.6198 -1.6088
14276TIP3   OH264318   3.925   3.320   3.927 -0.0004 -0.2409  0.4332
14276TIP3    H164319   3.975   3.240   3.912 -1.0473 -1.0642  1.2873
14276TIP3    H264320   3.951   3.348   4.015 -0.7850 -0.4857  0.7427
14277TIP3   OH264321   0.677   3.597  11.098  0.8840 -0.2611  0.0960
14277TIP3    H164322   0.762   3.608  11.139  0.5657  0.0247  0.6938
14277TIP3    H264323   0.665   3.502  11.090  0.7976 -0.3331  0.9996
14278TIP3   OH264324   1.418   3.076  14.488 -0.1257  0.2450 -0.0538
14278TIP3    H164325   1.431   3.156  14.436 -1.1260 -0.1765 -0.9813
14278TIP3    H264326   1.491   3.020  14.464  1.1847  1.2853  1.4127
14279TIP3   OH264327   5.747   0.979   0.198 -0.0623  0.3536 -0.2005
14279TIP3    H164328   5.769   1.019   0.114 -1.4126  2.6339  0.4874
14279TIP3    H264329   5.832   0.954   0.236  0.6374  0.4673 -1.6493
14280TIP3   OH264330   6.635   1.961  15.441 -0.0436 -0.0293  0.3481
14280TIP3    H164331   6.559   1.925  15.486 -0.3649 -0.6900 -0.7291
14280TIP3    H264332   6.710   1.921  15.486 -0.3640 -0.7842  0.2126
14281TIP3   OH264333   2.233   2.932  14.684 -0.6732  0.1689 -0.3087
14281TIP3    H164334   2.304   2.937  14.620 -0.7838 -0.3609 -0.4743
14281TIP3    H264335   2.214   2.839  14.692 -1.0991  0.2811  0.0098
14282TIP3   OH264336   1.690   3.387   0.967 -0.2968 -0.1277  0.5571
14282TIP3    H164337   1.706   3.296   0.945  1.1690 -0.3083  2.2478
14282TIP3    H264338   1.625   3.384   1.038  1.4273 -0.0026  2.1824
14283TIP3   OH264339   3.421   2.669  17.155 -0.5699 -0.4512  0.0073
14283TIP3    H164340   3.364   2.718  17.214  0.5185  1.7394 -0.6826
14283TIP3    H264341   3.465   2.605  17.211 -0.4154  0.8193  1.3735
14284TIP3   OH264342   3.588   6.610  11.385 -0.2758 -0.0888 -0.1554
14284TIP3    H164343   3.635   6.569  11.313 -1.0283 -0.4452 -0.4503
14284TIP3    H264344   3.638   6.586  11.463  0.1631 -0.2650 -0.4908
14285TIP3   OH264345   3.825   1.903   0.252 -0.3104 -0.2632 -0.3798
14285TIP3    H164346   3.856   1.968   0.315  1.4310 -0.5642 -0.9013
14285TIP3    H264347   3.820   1.950   0.169  0.6662 -0.6870 -0.6965
14286TIP3   OH264348   2.862   0.920   4.622  0.4783  0.3622  0.5242
14286TIP3    H164349   2.840   1.008   4.653  1.0075  0.0703  1.7446
14286TIP3    H264350   2.930   0.935   4.556  0.1261  0.9082  0.2808
14287TIP3   OH264351   2.098   1.015  16.352 -0.5786 -0.2937 -0.2325
14287TIP3    H164352   2.048   0.993  16.431 -0.3480 -1.1073 -0.3144
14287TIP3    H264353   2.127   0.931  16.317  0.2804  0.1354 -0.5679
14288TIP3   OH264354   5.368   2.356  10.682  0.1695 -0.6548  0.0531
14288TIP3    H164355   5.303   2.407  10.633  1.3846 -0.1403 -1.0491
14288TIP3    H264356   5.324   2.273  10.700 -0.9529 -0.1533 -0.3116
14289TIP3   OH264357   0.243   3.086  16.554  0.1683 -0.1994 -0.1077
14289TIP3    H164358   0.228   3.091  16.459 -0.0039 -0.0138 -0.0686
14289TIP3    H264359   0.156   3.097  16.592  0.3845  0.7711  0.1086
14290TIP3   OH264360   5.374   4.758  15.089 -0.3149  0.1208 -0.2383
14290TIP3    H164361   5.379   4.847  15.125 -0.5439 -0.0624  0.2565
14290TIP3    H264362   5.424   4.704  15.151 -0.4051 -0.1377 -0.3883
14291TIP3   OH264363   0.196   0.849   3.787  0.2600 -0.1173 -0.2213
14291TIP3    H164364   0.140   0.923   3.762 -0.0020 -0.1270  0.3295
14291TIP3    H264365   0.187   0.843   3.882 -0.5675 -1.5369 -0.3726
14292TIP3   OH264366   3.497   0.446   5.081  0.0697 -0.0892 -0.1553
14292TIP3    H164367   3.429   0.402   5.029  0.8083 -1.1648 -0.2387
14292TIP3    H264368   3.469   0.433   5.172  0.9680 -1.9504 -0.1128
14293TIP3   OH264369   4.420   2.808  14.867  0.6289  0.0812 -0.1817
14293TIP3    H164370   4.370   2.774  14.941  0.6620 -2.0911 -1.1310
14293TIP3    H264371   4.512   2.798  14.894  0.6573 -1.3906 -0.7905
14294TIP3   OH264372   3.961   3.294   6.767  0.0154  0.3492  0.5435
14294TIP3    H164373   4.052   3.273   6.745  0.0169 -0.6876  1.4744
14294TIP3    H264374   3.956   3.389   6.762  0.7947  0.3397 -0.8724
14295TIP3   OH264375   4.112   3.264  14.376  0.0707  0.0664 -0.1166
14295TIP3    H164376   4.072   3.238  14.459  0.3890  1.2995  0.4345
14295TIP3    H264377   4.048   3.238  14.309 -0.9359  0.5537  0.6354
14296TIP3   OH264378   1.535   2.760  15.778 -0.5044 -0.2399  0.6188
14296TIP3    H164379   1.547   2.827  15.711 -1.3450 -2.1931 -1.5314
14296TIP3    H264380   1.455   2.786  15.823 -0.7878  0.2323 -0.1476
14297TIP3   OH264381   2.086   5.076  11.898  0.6647 -0.2727  0.5737
14297TIP3    H164382   2.057   5.153  11.947  3.3393  1.6959 -0.7837
14297TIP3    H264383   2.053   5.091  11.809  0.8935 -0.8950  0.3846
14298TIP3   OH264384   1.179   1.308  13.598 -0.3174  0.3976 -0.0923
14298TIP3    H164385   1.253   1.363  13.572  0.2573 -0.4638 -0.2832
14298TIP3    H264386   1.132   1.361  13.662  0.7766  0.7413  0.4410
14299TIP3   OH264387   6.466   1.387   3.397  0.1746 -0.4658  0.8880
14299TIP3    H164388   6.458   1.478   3.424 -1.0279 -0.7875  1.6460
14299TIP3    H264389   6.555   1.380   3.362 -0.4089  1.4683 -1.0457
14300TIP3   OH264390   6.586   2.489  13.140 -1.0436  0.2935  0.4197
14300TIP3    H164391   6.667   2.533  13.114 -0.6573  0.0521  1.1822
14300TIP3    H264392   6.587   2.491  13.236 -0.4709 -2.2980  0.5000
14301TIP3   OH264393   6.238   5.759  11.513 -0.2619  0.5324  0.4168
14301TIP3    H164394   6.153   5.782  11.474 -0.0600  1.2034  0.3639
14301TIP3    H264395   6.268   5.840  11.553  1.0335  0.6806 -0.8259
14302TIP3   OH264396   2.998   3.023   0.053  0.6696 -0.2767  0.1778
14302TIP3    H164397   2.972   3.032   0.145 -0.5018 -1.4464 -0.0163
14302TIP3    H264398   3.029   2.933   0.046  2.8333  0.4775 -0.0937
14303TIP3   OH264399   6.084   3.746   4.054  0.2498  0.4718 -0.5471
14303TIP3    H164400   6.109   3.785   3.970 -0.9344 -0.2453 -1.2486
14303TIP3    H264401   5.989   3.739   4.050  0.3085 -0.9418  0.2422
14304TIP3   OH264402   2.717   1.050  15.058 -0.1659 -0.0790 -0.0723
14304TIP3    H164403   2.658   1.097  15.000  0.9530  0.1178 -1.0815
14304TIP3    H264404   2.804   1.084  15.035  0.3537 -0.4654  1.2710
14305TIP3   OH264405   3.857   2.606  15.659 -0.2791 -0.0333 -0.1123
14305TIP3    H164406   3.802   2.601  15.580 -0.6104  1.3461  0.0138
14305TIP3    H264407   3.803   2.567  15.727 -0.3009 -0.5210 -0.4044
14306TIP3   OH264408   4.305   2.265  15.136  0.5778 -0.1400  0.7699
14306TIP3    H164409   4.370   2.196  15.122 -0.0686 -0.4537 -0.8167
14306TIP3    H264410   4.355   2.346  15.132  0.9467 -0.3985 -0.1429
14307TIP3   OH264411   0.958   5.357   4.915  0.0222  0.0015 -0.3574
14307TIP3    H164412   0.945   5.452   4.918 -2.2419 -0.3175  0.6040
14307TIP3    H264413   1.009   5.337   4.993 -0.6044  0.2852  0.1309
14308TIP3   OH264414   6.296   1.545  15.602 -0.2632 -0.0163  0.4232
14308TIP3    H164415   6.260   1.505  15.681 -2.5438  1.4001  0.1365
14308TIP3    H264416   6.253   1.500  15.530 -1.2577  1.4611  0.0749
14309TIP3   OH264417   5.388   0.934  11.630 -0.5084  0.2461 -0.4389
14309TIP3    H164418   5.483   0.948  11.634 -0.6653  0.8486  2.0102
14309TIP3    H264419   5.368   0.933  11.537  1.9426 -0.1124 -0.9908
14310TIP3   OH264420   6.637   1.228   0.622 -0.0815  0.4121 -0.0642
14310TIP3    H164421   6.589   1.241   0.704 -0.5545  2.1704 -0.6083
14310TIP3    H264422   6.720   1.273   0.636 -0.0875  0.5548 -0.5019
14311TIP3   OH264423   6.280   2.210  12.203 -0.2319 -0.2335 -0.4793
14311TIP3    H164424   6.318   2.186  12.288 -1.0747 -0.5432 -0.1729
14311TIP3    H264425   6.299   2.135  12.147 -0.0508 -0.2194 -0.4368
14312TIP3   OH264426   6.514   1.010   2.189  0.5291  0.5585  0.1326
14312TIP3    H164427   6.420   0.996   2.197  0.3343  1.2095 -0.8396
14312TIP3    H264428   6.527   1.026   2.095  1.4311  1.7139  0.4492
14313TIP3   OH264429   2.860   3.980  14.304 -0.0751  0.0799  0.0255
14313TIP3    H164430   2.827   3.903  14.258  0.5170 -0.8119  1.0571
14313TIP3    H264431   2.799   3.992  14.377  1.5841 -1.3287  1.7024
14314TIP3   OH264432   1.642   2.171  13.841 -0.6361  0.0269  0.2303
14314TIP3    H164433   1.679   2.130  13.919 -0.8726 -0.1051  0.2716
14314TIP3    H264434   1.650   2.265  13.857  0.2140 -0.0004 -0.0105
14315TIP3   OH264435   0.563   3.529  11.757  0.7489 -0.4538 -0.2348
14315TIP3    H164436   0.484   3.581  11.765  0.7969 -0.3894 -0.1795
14315TIP3    H264437   0.532   3.441  11.734  0.8026  0.1942 -2.9333
14316TIP3   OH264438   3.781   4.019  15.325 -0.2501 -0.3947 -0.5880
14316TIP3    H164439   3.871   4.029  15.354 -0.1115 -0.2454 -1.0772
14316TIP3    H264440   3.739   4.102  15.347 -0.0350 -0.1215 -1.2227
14317TIP3   OH264441   6.692   2.136   2.377 -0.1071  0.3279  0.2224
14317TIP3    H164442   6.744   2.150   2.456  0.4027  0.1423 -0.0841
14317TIP3    H264443   6.729   2.195   2.312 -0.0221 -0.0960 -0.1149
14318TIP3   OH264444   2.467   5.025  16.747 -0.4131 -0.2699 -0.6785
14318TIP3    H164445   2.487   4.961  16.679 -0.0743 -0.5139 -0.3538
14318TIP3    H264446   2.528   5.004  16.818 -1.2066 -0.4461 -0.0415
14319TIP3   OH264447   4.661   0.406  10.755 -0.2871  0.0670 -0.1518
14319TIP3    H164448   4.718   0.444  10.821  1.5648 -2.1458 -0.4350
14319TIP3    H264449   4.705   0.425  10.672 -0.2281 -1.1941 -0.4069
14320TIP3   OH264450   1.370   2.303  16.958  0.2321 -0.3546  0.0808
14320TIP3    H164451   1.328   2.388  16.940  2.0435  0.4096 -0.6290
14320TIP3    H264452   1.388   2.305  17.052 -0.9323 -0.5330  0.3222
14321TIP3   OH264453   2.889   0.165   6.080 -0.1758  0.3642  0.1686
14321TIP3    H164454   2.951   0.219   6.030  0.0060 -0.3595 -0.3836
14321TIP3    H264455   2.807   0.170   6.030  0.1729 -0.8493 -0.5230
14322TIP3   OH264456   2.948   0.252  11.323  0.1976  0.6321  0.5774
14322TIP3    H164457   2.878   0.306  11.286 -1.0337 -1.0513  0.3323
14322TIP3    H264458   2.983   0.205  11.248 -0.2461 -0.5282  1.0828
14323TIP3   OH264459   1.153   5.196   5.823  0.0118  0.3160 -0.8425
14323TIP3    H164460   1.203   5.273   5.795  0.8339  0.6420  1.4139
14323TIP3    H264461   1.200   5.164   5.900 -1.5632 -1.1624 -0.4714
14324TIP3   OH264462   6.429   5.854   0.477 -0.1745 -0.2069 -0.6163
14324TIP3    H164463   6.388   5.934   0.510  1.2913  0.2747  0.0827
14324TIP3    H264464   6.362   5.787   0.487 -0.5624  0.4104  1.1900
14325TIP3   OH264465   3.068   0.793  17.090 -0.4123 -0.0199  0.0037
14325TIP3    H164466   3.135   0.817  17.026 -0.4758  2.2256  0.7270
14325TIP3    H264467   3.060   0.698  17.082  1.2728 -0.0537 -1.6392
14326TIP3   OH264468   5.431   5.481   3.176  0.3975  0.2006  0.7071
14326TIP3    H164469   5.353   5.528   3.145  1.9586  2.5455  0.2115
14326TIP3    H264470   5.468   5.442   3.097 -0.4618 -1.2680  1.0041
14327TIP3   OH264471   4.623   4.673  15.348 -0.3905  0.3642  0.1344
14327TIP3    H164472   4.708   4.676  15.304 -1.3533  0.9544 -1.7545
14327TIP3    H264473   4.624   4.749  15.406  0.7464 -0.2048  0.8941
14328TIP3   OH264474   5.248   6.447  14.043 -0.8956  0.0426  0.5429
14328TIP3    H164475   5.305   6.370  14.049 -1.0673 -0.0123  1.5414
14328TIP3    H264476   5.199   6.447  14.126  0.1786  2.0788  1.2005
14329TIP3   OH264477   5.286   4.314  16.206  0.0178 -0.7614  0.1268
14329TIP3    H164478   5.217   4.351  16.261  2.2165 -0.5539  2.8087
14329TIP3    H264479   5.251   4.229  16.178 -1.7197 -0.2166  0.6153
14330TIP3   OH264480   0.946   2.760  13.550 -0.5927  0.2274  0.6151
14330TIP3    H164481   0.961   2.667  13.534 -1.5255  0.1623  0.1003
14330TIP3    H264482   1.023   2.803  13.511 -1.0663 -0.2006 -0.8380
14331TIP3   OH264483   6.323   2.794   6.799 -0.0536 -0.1678 -0.5517
14331TIP3    H164484   6.398   2.828   6.848  0.4289 -0.0956 -1.3306
14331TIP3    H264485   6.341   2.700   6.791  0.0603 -0.1117 -0.9332
14332TIP3   OH264486   4.149   6.293  16.379  0.0623 -0.3013  0.0697
14332TIP3    H164487   4.199   6.265  16.455 -0.9138  0.2858  0.9423
14332TIP3    H264488   4.071   6.336  16.416  1.0461  2.7270 -1.2184
14333TIP3   OH264489   0.224   5.742  14.227  0.2834  0.0959  0.5697
14333TIP3    H164490   0.193   5.804  14.161  1.1901  0.4905  0.5119
14333TIP3    H264491   0.284   5.684  14.179  1.4543  0.7870  1.1780
14334TIP3   OH264492   5.698   5.591  16.870  0.0865 -0.2421 -0.2511
14334TIP3    H164493   5.669   5.652  16.802 -1.4516 -1.2607 -0.5462
14334TIP3    H264494   5.632   5.599  16.939  0.3049 -0.9960  0.0476
14335TIP3   OH264495   4.278   3.436   1.985 -0.2260  0.0194 -0.0166
14335TIP3    H164496   4.226   3.371   1.937 -2.0737  0.1160  1.7567
14335TIP3    H264497   4.294   3.506   1.922  1.2158 -1.8047 -1.7689
14336TIP3   OH264498   5.402   6.435  16.555 -0.0769 -0.6419  0.0382
14336TIP3    H164499   5.308   6.426  16.571  0.0464 -1.9992  0.1081
14336TIP3    H264500   5.408   6.484  16.473 -0.8363 -0.3614  0.1462
14337TIP3   OH264501   1.880   4.453  13.249  0.3796 -0.2243 -0.0237
14337TIP3    H164502   1.878   4.527  13.190 -2.2045 -1.0114 -0.9889
14337TIP3    H264503   1.967   4.456  13.289  2.1960  0.2980 -3.8440
14338TIP3   OH264504   4.262   4.469   2.144  0.0530 -0.1092  0.2125
14338TIP3    H164505   4.218   4.552   2.162  0.5252 -0.5093  3.6316
14338TIP3    H264506   4.355   4.489   2.148  0.2092 -1.1672  3.4370
14339TIP3   OH264507   0.568   5.940  14.610  0.0885  0.7524  0.2632
14339TIP3    H164508   0.485   5.898  14.588  0.4866 -0.5825  1.2408
14339TIP3    H264509   0.594   5.986  14.529 -1.3584  0.8155 -0.1792
14340TIP3   OH264510   3.244   1.613   3.061  0.0887 -0.1622  0.7168
14340TIP3    H164511   3.212   1.587   3.147  0.9074  0.5063  1.2285
14340TIP3    H264512   3.265   1.706   3.070 -4.2747  1.2023 -1.4978
14341TIP3   OH264513   6.498   4.867   5.862 -0.0122 -0.3720  0.2463
14341TIP3    H164514   6.425   4.806   5.850 -1.2107  1.1836 -0.4039
14341TIP3    H264515   6.542   4.835   5.941 -1.1289 -1.5776  0.3971
14342TIP3   OH264516   0.731   3.035   6.262 -0.1682 -0.3001 -0.3734
14342TIP3    H164517   0.715   3.016   6.170  0.2811  0.7255 -0.6730
14342TIP3    H264518   0.805   3.096   6.261 -0.2821 -0.1398  0.6584
14343TIP3   OH264519   5.640   2.338  14.999 -0.5087 -0.3841 -0.6803
14343TIP3    H164520   5.629   2.385  14.916 -0.5756 -1.5411 -1.3353
14343TIP3    H264521   5.620   2.247  14.978  1.3213 -1.0046  0.1713
14344TIP3   OH264522   3.490   0.054  16.510 -0.2234  0.2924  0.5552
14344TIP3    H164523   3.483   0.145  16.540 -0.5895  0.1622  0.8731
14344TIP3    H264524   3.407   0.039  16.464  0.2640  0.4394 -0.3682
14345TIP3   OH264525   6.149   4.766  16.070 -0.1631 -0.8350 -0.2848
14345TIP3    H164526   6.236   4.804  16.082  0.0207 -1.2405 -0.3593
14345TIP3    H264527   6.162   4.672  16.073 -0.5352 -0.9032 -0.7684
14346TIP3   OH264528   5.538   3.536   5.327 -0.2933 -0.1208  0.1318
14346TIP3    H164529   5.545   3.440   5.335 -0.2058 -0.0704  0.6737
14346TIP3    H264530   5.573   3.569   5.409 -1.4352  0.3456  0.4337
14347TIP3   OH264531   6.485   2.136   2.825  0.3013 -0.2151 -0.0447
14347TIP3    H164532   6.566   2.085   2.826  0.6555  0.3416  1.5585
14347TIP3    H264533   6.423   2.083   2.875  0.2649  0.2509  0.4170
14348TIP3   OH264534   1.646   4.852  14.979 -0.2114 -0.0471 -0.5230
14348TIP3    H164535   1.560   4.891  14.964  0.5729  1.6394 -0.7588
14348TIP3    H264536   1.633   4.758  14.963 -2.6689 -0.2655  2.2361
14349TIP3   OH264537   3.392   5.767   1.148 -0.3035 -0.1139  0.4000
14349TIP3    H164538   3.326   5.835   1.157 -3.5244 -3.4994  3.9883
14349TIP3    H264539   3.466   5.799   1.199 -1.1456  1.3911  0.6947
14350TIP3   OH264540   3.634   5.326   1.702  0.2389 -0.3273 -0.8037
14350TIP3    H164541   3.573   5.369   1.642 -1.2125 -0.0609  0.8143
14350TIP3    H264542   3.700   5.392   1.721 -0.6997  0.4325 -0.1442
14351TIP3   OH264543   3.809   3.931   4.644 -0.5844 -0.2336 -0.2107
14351TIP3    H164544   3.904   3.933   4.647 -0.6351  2.1264  0.4622
14351TIP3    H264545   3.787   3.952   4.554 -0.4978  0.8496  0.0199
14352TIP3   OH264546   5.469   1.324  14.346 -0.0895  0.6934 -0.2019
14352TIP3    H164547   5.410   1.293  14.278  0.5787  0.7808 -0.8242
14352TIP3    H264548   5.538   1.371  14.299  0.8232  0.0392  0.4696
14353TIP3   OH264549   6.435   1.822  16.570 -0.2299 -0.0147  0.4683
14353TIP3    H164550   6.392   1.754  16.622  0.1142 -0.5572  0.0492
14353TIP3    H264551   6.528   1.799  16.572 -0.0639  0.6404  0.6123
14354TIP3   OH264552   4.366   2.824  12.616  0.5667  0.3124  0.4575
14354TIP3    H164553   4.404   2.842  12.530 -1.4762  0.6076 -0.4055
14354TIP3    H264554   4.274   2.802  12.598 -0.2889  1.8517  2.6967
14355TIP3   OH264555   6.795   3.579   4.078  0.1901 -0.1639 -0.8487
14355TIP3    H164556   6.726   3.512   4.072 -0.5150  0.4656  0.0295
14355TIP3    H264557   6.747   3.662   4.079  1.0475  0.3506 -1.7073
14356TIP3   OH264558   2.057   4.492  17.131 -0.0852 -0.5003 -0.3269
14356TIP3    H164559   2.038   4.497  17.037  1.2966  1.1887 -0.5508
14356TIP3    H264560   2.035   4.580  17.163  0.8902 -0.6154  0.6462
14357TIP3   OH264561   2.881   6.731  17.202  0.0044 -0.1883 -0.5422
14357TIP3    H164562   2.808   6.686  17.245  0.8839 -1.1981 -0.0794
14357TIP3    H264563   2.872   6.708  17.109  0.5491 -1.4720 -0.2801
14358TIP3   OH264564   0.410   4.838  16.365 -0.1395  0.0394  0.0728
14358TIP3    H164565   0.376   4.748  16.362  1.3775 -0.6335  2.0303
14358TIP3    H264566   0.494   4.834  16.319  0.6190  0.1038  1.4106
14359TIP3   OH264567   3.028   4.199  16.047  0.1507  0.5416 -0.2318
14359TIP3    H164568   3.027   4.105  16.029  2.0657  0.5006 -0.1758
14359TIP3    H264569   2.958   4.234  15.992  0.3538 -0.7228 -1.3224
14360TIP3   OH264570   6.795   4.738   5.392  0.0232  0.3938  0.0407
14360TIP3    H164571   6.867   4.680   5.418 -1.1788 -0.4640  1.5732
14360TIP3    H264572   6.779   4.792   5.469 -3.0212 -1.5835  0.8991
14361TIP3   OH264573   5.523   6.204  12.944  0.4623  0.2501 -0.3293
14361TIP3    H164574   5.582   6.185  13.018  0.2693  1.1664  0.0618
14361TIP3    H264575   5.582   6.225  12.872  0.6473 -0.3920 -0.3680
14362TIP3   OH264576   5.227   0.247  14.108 -0.1038 -0.3115 -0.0504
14362TIP3    H164577   5.255   0.309  14.175  0.1403  1.7006 -1.9703
14362TIP3    H264578   5.145   0.212  14.141  0.5630 -0.1727  1.8139
14363TIP3   OH264579   6.770   5.333  16.082  0.1700 -0.2216  0.6048
14363TIP3    H164580   6.812   5.252  16.051  0.1269 -0.0951  0.2118
14363TIP3    H264581   6.829   5.403  16.054 -1.3909  0.1549 -1.9984
14364TIP3   OH264582   4.653   6.125  15.356 -0.0721  0.1710  0.2428
14364TIP3    H164583   4.612   6.160  15.277 -1.0429  1.2913  1.2194
14364TIP3    H264584   4.747   6.126  15.338 -0.3352 -0.6755 -1.3249
14365TIP3   OH264585   2.566   2.177  14.927 -0.2473 -0.4692  1.0546
14365TIP3    H164586   2.599   2.097  14.886  2.6399  0.5953  1.1720
14365TIP3    H264587   2.568   2.157  15.021 -0.3429 -0.5689  1.0359
14366TIP3   OH264588   5.023   6.041  12.163 -0.9476 -0.6173 -0.3742
14366TIP3    H164589   4.971   5.981  12.217 -1.6364  0.3458  0.0607
14366TIP3    H264590   5.111   6.035  12.199 -1.6910  1.1106  1.8818
14367TIP3   OH264591   2.510   4.072  17.149  0.1017  0.2012  0.2186
14367TIP3    H164592   2.540   4.139  17.087  0.6013  1.5802  1.9353
14367TIP3    H264593   2.449   4.019  17.098 -0.8339  2.3675 -1.0020
14368TIP3   OH264594   1.149   5.457  17.123 -0.1827 -0.0071  0.2690
14368TIP3    H164595   1.098   5.538  17.129  1.1100  0.7791  0.6476
14368TIP3    H264596   1.175   5.437  17.213 -0.2739 -0.7120  0.1484
14369TIP3   OH264597   2.660   3.419  10.567 -0.0132 -0.4054 -0.6120
14369TIP3    H164598   2.592   3.358  10.595 -0.3886 -0.0863 -0.8263
14369TIP3    H264599   2.717   3.366  10.510  1.7216 -1.5135  2.0378
14370TIP3   OH264600   0.698   1.406   6.560  0.3675  0.0752  0.5748
14370TIP3    H164601   0.762   1.465   6.520 -0.9712  1.6406  0.7155
14370TIP3    H264602   0.641   1.463   6.611 -0.6308 -1.4070  1.1420
14371TIP3   OH264603   1.512   0.164  11.797  0.5768  1.0809 -0.1004
14371TIP3    H164604   1.425   0.131  11.772  0.0411  3.0674 -0.9633
14371TIP3    H264605   1.571   0.128  11.730  0.0235  1.7343 -0.9561
14372TIP3   OH264606   5.339   1.240  16.741  0.5528  0.0706  0.4866
14372TIP3    H164607   5.414   1.268  16.689  1.4124  0.5255  1.9475
14372TIP3    H264608   5.370   1.162  16.788  0.3969  0.7297  1.7159
14373TIP3   OH264609   6.285   4.112  14.358  0.1196 -0.0613 -0.1755
14373TIP3    H164610   6.304   4.019  14.341  1.4904  0.0118  0.8559
14373TIP3    H264611   6.231   4.110  14.437 -2.7468 -0.1581 -2.0751
14374TIP3   OH264612   0.687   0.807   2.411 -0.1289 -0.4629  0.5792
14374TIP3    H164613   0.608   0.841   2.369  1.0041  1.7730  0.2115
14374TIP3    H264614   0.656   0.734   2.465 -2.3603  0.0623  0.0361
14375TIP3   OH264615   3.051   3.750   3.326  0.3406 -0.4863 -0.5090
14375TIP3    H164616   3.095   3.831   3.298 -0.0452  0.5068  1.6678
14375TIP3    H264617   3.121   3.698   3.366 -0.0479  0.3339  1.3256
14376TIP3   OH264618   0.876   4.126  12.001 -0.0360 -0.0398  0.3586
14376TIP3    H164619   0.924   4.147  12.081  0.5354  3.3481 -0.7891
14376TIP3    H264620   0.942   4.133  11.932 -1.2336  0.3228 -0.7558
14377TIP3   OH264621   4.106   5.955   5.728  0.2626  0.3445 -0.7224
14377TIP3    H164622   4.149   5.941   5.644 -0.3115  0.8773 -1.1127
14377TIP3    H264623   4.119   6.048   5.746  0.0025  0.3251 -0.4329
14378TIP3   OH264624   4.119   5.916  15.591  0.0038 -0.4933  0.5660
14378TIP3    H164625   4.162   5.983  15.644 -1.0601  0.0771  0.7105
14378TIP3    H264626   4.076   5.859  15.655  0.3696 -0.9551  0.4106
14379TIP3   OH264627   4.896   6.597  14.940  0.3896 -0.1533  0.6454
14379TIP3    H164628   4.905   6.539  15.015  2.7758 -1.1704 -0.3696
14379TIP3    H264629   4.892   6.685  14.978  0.8458 -0.7053  2.0038
14380TIP3   OH264630   0.803   1.212   3.825 -0.1306  0.0983 -0.4915
14380TIP3    H164631   0.757   1.138   3.786 -1.2470  0.5149  0.0032
14380TIP3    H264632   0.797   1.196   3.920  2.6928 -0.9955 -0.4673
14381TIP3   OH264633   6.718   6.331  11.956  0.1147 -0.2318 -0.1644
14381TIP3    H164634   6.790   6.349  11.895 -1.5574 -2.0839 -2.7776
14381TIP3    H264635   6.727   6.238  11.976 -0.8900 -0.2026  0.4026
14382TIP3   OH264636   5.429   3.869   0.512 -0.8451  0.5522  0.0308
14382TIP3    H164637   5.510   3.826   0.539  0.6800  2.2027 -1.7218
14382TIP3    H264638   5.362   3.801   0.520  1.2235 -1.7632 -1.3449
14383TIP3   OH264639   1.626   3.798   6.523 -0.5075  0.7768 -0.1660
14383TIP3    H164640   1.556   3.810   6.588 -0.4655  0.8383 -0.1320
14383TIP3    H264641   1.686   3.736   6.564 -1.5514 -0.8367 -1.0017
14384TIP3   OH264642   5.141   4.137   2.502 -0.3387 -0.4746 -0.1923
14384TIP3    H164643   5.137   4.042   2.495 -1.1916 -0.5031  0.5016
14384TIP3    H264644   5.087   4.169   2.430  0.3976 -0.5016 -0.7579
14385TIP3   OH264645   3.835   0.412   0.245  0.2731 -0.0588 -0.5505
14385TIP3    H164646   3.796   0.468   0.178 -1.6578 -0.4696  0.1868
14385TIP3    H264647   3.924   0.446   0.257 -0.3565  1.8519 -1.2176
14386TIP3   OH264648   4.008   5.171   4.823  0.2597 -0.4564  0.1363
14386TIP3    H164649   4.006   5.090   4.772 -0.1629  1.2290 -2.6556
14386TIP3    H264650   4.100   5.183   4.847  0.1469 -2.3606  1.6656
14387TIP3   OH264651   3.143   3.248  17.171  0.0191 -0.1432 -0.4355
14387TIP3    H164652   3.140   3.184  17.099 -0.8214  0.5839 -1.0498
14387TIP3    H264653   3.091   3.207  17.240  1.8190 -1.3877  0.2212
14388TIP3   OH264654   5.098   3.232  14.843 -0.0187 -0.2451  0.4798
14388TIP3    H164655   5.056   3.290  14.780 -0.0892 -0.8375 -0.0193
14388TIP3    H264656   5.028   3.176  14.875  0.5962 -2.1416 -1.3402
14389TIP3   OH264657   2.064   2.371  13.941  0.0686 -0.4808  0.0530
14389TIP3    H164658   2.066   2.320  14.022 -2.3156  0.0126  0.4635
14389TIP3    H264659   2.025   2.312  13.876  0.1215 -0.1858 -0.2495
14390TIP3   OH264660   5.438   6.666   2.086 -0.2262  0.4167  0.0581
14390TIP3    H164661   5.503   6.598   2.073  0.2298  0.9943 -0.7119
14390TIP3    H264662   5.483   6.732   2.139 -0.4175  0.4873  0.1319
14391TIP3   OH264663   0.847   0.917   2.000 -0.5525 -0.0269 -0.3141
14391TIP3    H164664   0.810   0.983   2.059  1.1749 -1.3133  2.2923
14391TIP3    H264665   0.772   0.869   1.967 -1.5805  1.0246  0.4649
14392TIP3   OH264666   0.497   6.410   2.206  0.1093 -0.2146  0.4364
14392TIP3    H164667   0.566   6.393   2.143 -1.0093 -2.9971 -0.0717
14392TIP3    H264668   0.422   6.439   2.153 -0.3298 -0.9866  0.6348
14393TIP3   OH264669   4.140   0.190   1.392 -0.2044 -0.6602 -0.2298
14393TIP3    H164670   4.080   0.115   1.391  0.0648 -0.8862  0.5012
14393TIP3    H264671   4.116   0.239   1.470  0.4167 -0.6265 -0.0599
14394TIP3   OH264672   0.245   6.072  15.019 -0.0756  0.1930 -0.3650
14394TIP3    H164673   0.199   6.154  15.032 -1.2879 -0.7488  1.5281
14394TIP3    H264674   0.230   6.049  14.927 -1.2808  1.1372 -0.4048
14395TIP3   OH264675   0.859   1.074   1.115 -0.4707  0.1043  0.8512
14395TIP3    H164676   0.783   1.127   1.139  0.4523  1.7232  0.3360
14395TIP3    H264677   0.931   1.110   1.167  0.4110  0.1150 -0.3338
14396TIP3   OH264678   6.585   1.462  11.388  0.1202  0.0217  0.2124
14396TIP3    H164679   6.520   1.433  11.453 -0.9039  2.1102  0.1391
14396TIP3    H264680   6.540   1.453  11.304  0.6880 -0.5927 -0.0274
14397TIP3   OH264681   3.583   2.273   1.441 -0.5967 -0.6208  0.4940
14397TIP3    H164682   3.557   2.273   1.534  0.7927 -1.1985  0.8871
14397TIP3    H264683   3.566   2.183   1.412  1.3474 -1.1143  0.8657
14398TIP3   OH264684   2.740   2.817  11.351  0.5078  0.1264 -0.4859
14398TIP3    H164685   2.746   2.841  11.443 -1.4918 -1.2739  0.0473
14398TIP3    H264686   2.724   2.900  11.305 -0.6907  0.5603  0.6856
14399TIP3   OH264687   4.445   2.926   5.530 -0.5926 -0.4679 -0.5058
14399TIP3    H164688   4.423   2.837   5.557  0.3865 -0.8028 -0.7690
14399TIP3    H264689   4.366   2.977   5.547 -0.9033 -1.2318  0.3796
14400TIP3   OH264690   6.393   1.759   4.065 -0.0294  0.5874 -0.2999
14400TIP3    H164691   6.298   1.765   4.051 -0.0565  1.2814  0.1632
14400TIP3    H264692   6.406   1.671   4.101 -0.8075  1.3805  2.0130
14401TIP3   OH264693   4.151   5.394   6.174  0.3527 -0.4005 -0.2181
14401TIP3    H164694   4.207   5.373   6.248  1.2190 -0.3492 -0.8473
14401TIP3    H264695   4.071   5.429   6.213  0.8416 -0.2849  0.6886
14402TIP3   OH264696   6.355   1.440   0.798  0.3537  0.1893  0.3026
14402TIP3    H164697   6.261   1.434   0.781 -0.0182  0.6126  2.1055
14402TIP3    H264698   6.381   1.350   0.817  0.3844  0.0172 -0.5434
14403TIP3   OH264699   6.246   1.446   5.985  0.7861 -0.2200  0.0963
14403TIP3    H164700   6.326   1.422   6.032 -0.1518  1.8836  2.9186
14403TIP3    H264701   6.179   1.454   6.053 -1.0403  1.3126 -1.7884
14404TIP3   OH264702   4.243   2.589  16.172  0.3854  0.0677  0.7139
14404TIP3    H164703   4.174   2.614  16.111  1.5770  0.8114 -0.3420
14404TIP3    H264704   4.292   2.520  16.127  1.9173  1.3521  0.3831
14405TIP3   OH264705   5.627   2.334   6.632  0.0434  0.0074  0.1241
14405TIP3    H164706   5.618   2.349   6.726 -0.8884  1.2244 -0.1511
14405TIP3    H264707   5.625   2.421   6.593  0.3446 -0.4919 -1.0365
14406TIP3   OH264708   4.218   1.655  17.088 -0.2787  0.0363  0.5313
14406TIP3    H164709   4.239   1.569  17.051  1.2406  0.8653 -0.5769
14406TIP3    H264710   4.187   1.706  17.014  2.3558  1.5570  0.4070
14407TIP3   OH264711   0.526   2.479   2.855 -0.1810 -0.5684  0.1224
14407TIP3    H164712   0.609   2.496   2.900  0.2649  2.1733 -1.6154
14407TIP3    H264713   0.512   2.556   2.800 -3.5896 -1.2455 -0.0899
14408TIP3   OH264714   2.483   6.415  15.146  0.9687 -0.3309 -0.6876
14408TIP3    H164715   2.394   6.425  15.112  0.7867 -0.0696 -0.1432
14408TIP3    H264716   2.496   6.321  15.152  0.4911 -0.3653 -0.1546
14409TIP3   OH264717   5.018   5.326   2.142  0.0910 -0.3120 -0.5965
14409TIP3    H164718   5.068   5.258   2.186 -0.5020 -0.0392  0.5033
14409TIP3    H264719   5.005   5.293   2.053 -0.0348 -1.5441 -0.1191
14410TIP3   OH264720   3.708   4.432   1.424 -0.0847  0.0745  0.6112
14410TIP3    H164721   3.693   4.418   1.331  0.6914  0.3665  0.4423
14410TIP3    H264722   3.769   4.505   1.428 -0.6053  0.4867  1.3663
14411TIP3   OH264723   4.789   3.751   5.581  0.1527 -0.2121  0.2436
14411TIP3    H164724   4.826   3.806   5.511  1.0209 -0.1463  0.7432
14411TIP3    H264725   4.865   3.707   5.619 -0.5713 -2.1239 -0.4521
14412TIP3   OH264726   1.470   1.456  16.214  0.1216  0.2018 -0.0796
14412TIP3    H164727   1.530   1.421  16.280  0.4652  0.2299 -0.3741
14412TIP3    H264728   1.451   1.545  16.242 -0.8147 -0.2380  0.7131
14413TIP3   OH264729   3.944   1.064   5.210 -0.3856  0.0380  0.0361
14413TIP3    H164730   3.920   0.986   5.161  1.6156  0.2141 -1.2565
14413TIP3    H264731   3.996   1.116   5.149  1.1715  0.7923  1.9711
14414TIP3   OH264732   5.666   4.333  15.998  0.0307 -0.3036 -0.1068
14414TIP3    H164733   5.601   4.281  15.951  0.0786 -0.3150 -0.1587
14414TIP3    H264734   5.658   4.421  15.960 -0.5099 -0.1104  0.4393
14415TIP3   OH264735   3.933   5.598   4.996  0.1414 -0.0102 -0.4533
14415TIP3    H164736   3.890   5.635   5.074 -1.0807  1.0532 -1.6030
14415TIP3    H264737   3.893   5.511   4.987 -0.8584  0.4744 -0.7806
14416TIP3   OH264738   1.581   6.262   1.243  0.4638  0.2736 -0.1302
14416TIP3    H164739   1.668   6.255   1.203  1.6049  1.3288  2.0446
14416TIP3    H264740   1.562   6.175   1.276  2.1564  0.7150  2.1778
14417TIP3   OH264741   4.620   6.492   3.570 -0.1185  0.3042  1.2121
14417TIP3    H164742   4.565   6.570   3.573 -0.9443 -0.2015 -0.2709
14417TIP3    H264743   4.589   6.438   3.643  1.1811  1.8193  2.9094
14418TIP3   OH264744   4.074   2.081   1.271 -0.1494  0.0319 -0.7214
14418TIP3    H164745   4.013   2.153   1.287  0.2669  0.5312 -1.3392
14418TIP3    H264746   4.139   2.118   1.211  0.5018 -0.6318 -0.4294
14419TIP3   OH264747   5.524   1.054   3.674  0.3154  0.0654  0.0515
14419TIP3    H164748   5.492   0.987   3.614  0.1440  0.3846 -0.2186
14419TIP3    H264749   5.557   1.124   3.617 -1.7030  1.2608  0.2820
14420TIP3   OH264750   5.395   1.554   0.151  0.3301  0.1496  0.3262
14420TIP3    H164751   5.355   1.572   0.236  0.9676 -0.8838  0.8580
14420TIP3    H264752   5.398   1.639   0.107 -2.1992  0.2828  0.3730
14421TIP3   OH264753   0.207   0.680   2.223 -0.2811 -0.4486 -0.0559
14421TIP3    H164754   0.143   0.698   2.154 -0.4734  0.0643  0.2515
14421TIP3    H264755   0.216   0.585   2.223 -1.2800 -0.5589  0.1007
14422TIP3   OH264756   4.370   1.457  16.347  0.2353 -0.6491 -0.6920
14422TIP3    H164757   4.395   1.382  16.402  0.0208 -0.1472  0.1008
14422TIP3    H264758   4.311   1.508  16.403  1.3733  0.7800 -0.7820
14423TIP3   OH264759   3.921   6.644   5.689  0.1482 -0.8302 -0.2124
14423TIP3    H164760   3.913   6.661   5.595 -0.3297  0.0089 -0.0318
14423TIP3    H264761   3.882   6.557   5.701  1.3388 -1.4791 -0.9607
14424TIP3   OH264762   3.963   4.465  15.406  0.5578  0.3792  0.0199
14424TIP3    H164763   3.919   4.528  15.349  1.2198  0.8275 -0.0026
14424TIP3    H264764   4.011   4.518  15.469 -2.2204 -0.1274  2.6294
14425TIP3   OH264765   5.719   3.210   5.046 -0.2375  0.0748 -0.3807
14425TIP3    H164766   5.755   3.277   5.105 -1.2961 -0.0470  0.4117
14425TIP3    H264767   5.794   3.154   5.026 -0.2297 -0.9780  2.3546
14426TIP3   OH264768   1.648   5.496  15.911 -0.0265  0.6732 -0.3393
14426TIP3    H164769   1.561   5.481  15.948  0.2028 -1.0201 -0.4038
14426TIP3    H264770   1.707   5.447  15.968  0.9360  2.1134 -0.0838
14427TIP3   OH264771   4.920   6.768   2.678 -0.2232 -0.0256  0.3191
14427TIP3    H164772   4.882   6.750   2.592 -2.1152 -0.7357  1.2843
14427TIP3    H264773   4.877   6.848   2.707  0.0882 -0.0374  0.8133
14428TIP3   OH264774   3.058   5.322   2.039 -0.2487 -0.5461 -0.1498
14428TIP3    H164775   2.965   5.344   2.030 -0.2998 -0.2075  1.1735
14428TIP3    H264776   3.081   5.282   1.955 -1.8499 -1.5837 -0.1011
14429TIP3   OH264777   4.152   2.739   5.227  0.2395 -0.5807 -0.4028
14429TIP3    H164778   4.141   2.694   5.311  1.3078  0.8144  0.5127
14429TIP3    H264779   4.239   2.713   5.196  1.2820  1.5483  0.6088
14430TIP3   OH264780   1.091   4.101   0.697 -0.6270  0.1257 -0.2031
14430TIP3    H164781   1.166   4.048   0.673  0.1401  1.8329 -1.7675
14430TIP3    H264782   1.126   4.169   0.754 -1.2517  0.0310  0.2979
14431TIP3   OH264783   3.763   5.074  14.219  0.1704 -0.1248  0.1976
14431TIP3    H164784   3.749   5.166  14.241 -0.6642 -0.1053 -0.3695
14431TIP3    H264785   3.771   5.074  14.123 -1.2479 -0.8034  0.0616
14432TIP3   OH264786   6.051   3.460   5.007  0.9135 -0.7408 -0.0455
14432TIP3    H164787   5.996   3.502   4.941 -0.0995 -0.5921  0.8739
14432TIP3    H264788   6.128   3.516   5.012  0.1426  0.3270  0.2605
14433TIP3   OH264789   6.136   6.126   4.475  0.4124 -0.0790  0.2788
14433TIP3    H164790   6.062   6.149   4.419  0.3051 -0.5188  0.2427
14433TIP3    H264791   6.106   6.147   4.563  0.6749  0.8569  0.1512
14434TIP3   OH264792   0.848   2.639  11.805  0.2124  0.3645 -0.1706
14434TIP3    H164793   0.923   2.582  11.824  0.5799  1.1008  0.6233
14434TIP3    H264794   0.879   2.697  11.735  1.3738  2.5168  2.0175
14435TIP3   OH264795   3.487   0.949  13.067 -0.1505  0.0142  0.2420
14435TIP3    H164796   3.471   0.984  12.979 -1.9158 -0.2028  0.4599
14435TIP3    H264797   3.400   0.925  13.099  0.4525  0.3307  2.1481
14436TIP3   OH264798   5.824   1.335  13.346 -0.1042 -0.1697  0.0864
14436TIP3    H164799   5.911   1.365  13.371 -0.2535 -0.5767  1.1570
14436TIP3    H264800   5.814   1.360  13.254  1.0194  0.1441  0.0492
14437TIP3   OH264801   6.485   0.895  16.365 -0.4009  0.3618 -0.0658
14437TIP3    H164802   6.526   0.963  16.312 -1.8882  2.3372  1.2500
14437TIP3    H264803   6.533   0.899  16.448  0.3621 -1.1165 -0.4147
14438TIP3   OH264804   2.729   2.819  16.409 -0.0072 -0.2789 -0.1041
14438TIP3    H164805   2.652   2.866  16.440 -0.3267 -0.0235 -1.2770
14438TIP3    H264806   2.758   2.768  16.485 -1.1820 -0.1892  0.4152
14439TIP3   OH264807   5.473   2.550   0.166  0.6176  0.2808  0.4533
14439TIP3    H164808   5.543   2.497   0.203  1.1912  0.7235  0.0178
14439TIP3    H264809   5.413   2.487   0.127  1.3070 -0.0624 -0.0778
14440TIP3   OH264810   4.669   0.723   1.184 -0.3434  0.0331  0.8544
14440TIP3    H164811   4.597   0.693   1.129  0.7476 -0.1914 -0.4817
14440TIP3    H264812   4.714   0.643   1.211  0.2573  0.2380  0.4851
14441TIP3   OH264813   5.019   4.291   5.535  0.5535 -0.1789 -0.2726
14441TIP3    H164814   5.001   4.326   5.448  0.4746  0.1275 -0.1351
14441TIP3    H264815   5.114   4.288   5.542  0.5611  0.4643 -0.1035
14442TIP3   OH264816   6.375   1.059  11.046 -0.1519 -0.5411 -0.6061
14442TIP3    H164817   6.345   0.968  11.048  0.3587 -0.7352 -1.4725
14442TIP3    H264818   6.470   1.053  11.058  0.4725 -0.4445 -4.7231
14443TIP3   OH264819   4.533   3.488   5.296 -0.6371 -0.0055 -0.3867
14443TIP3    H164820   4.613   3.496   5.244 -1.0599 -2.2778 -1.4551
14443TIP3    H264821   4.553   3.418   5.359 -0.7872  1.4358  1.2780
14444TIP3   OH264822   4.357   5.840   1.946 -0.3014  0.2078 -0.0579
14444TIP3    H164823   4.393   5.804   2.028  1.2894  1.2367 -0.2852
14444TIP3    H264824   4.387   5.779   1.879  1.1992  1.1562 -0.2682
14445TIP3   OH264825   5.609   0.602   5.260 -0.4261 -0.1077 -0.8835
14445TIP3    H164826   5.623   0.576   5.351  1.0568 -1.2236 -1.4104
14445TIP3    H264827   5.686   0.655   5.238 -0.0083 -1.1184 -1.9331
14446TIP3   OH264828   3.604   1.535  10.535  0.9480 -0.5697 -0.0646
14446TIP3    H164829   3.652   1.616  10.518  0.6193 -0.5122 -0.7246
14446TIP3    H264830   3.589   1.497  10.449 -0.0849 -0.6473  0.1450
14447TIP3   OH264831   2.976   1.154  15.604 -0.5077 -0.0233 -0.1525
14447TIP3    H164832   2.957   1.061  15.617 -1.2876  0.1060 -0.3424
14447TIP3    H264833   3.068   1.164  15.629 -0.1036 -1.0656 -1.2147
14448TIP3   OH264834   6.592   5.493  17.088  0.3233 -0.9252 -0.2164
14448TIP3    H164835   6.602   5.519  16.997 -0.5450  0.2011  0.0079
14448TIP3    H264836   6.682   5.477  17.118  0.7686  0.4871 -0.7524
14449TIP3   OH264837   4.874   3.847  12.837  0.3111 -0.4938  0.1171
14449TIP3    H164838   4.949   3.803  12.877  0.1277  0.3557  1.4305
14449TIP3    H264839   4.810   3.777  12.824  0.8261 -0.9873  0.2211
14450TIP3   OH264840   5.845   4.268   2.772 -0.2545  0.1578  0.5044
14450TIP3    H164841   5.754   4.292   2.754 -0.2479 -0.4548 -0.4046
14450TIP3    H264842   5.893   4.297   2.694 -0.3260 -3.1632 -0.8705
14451TIP3   OH264843   0.880   4.002   4.223 -0.6475  0.3714  0.3055
14451TIP3    H164844   0.933   4.079   4.244 -1.2257  1.1837 -1.1215
14451TIP3    H264845   0.792   4.038   4.206 -1.0264 -0.6539  0.0871
14452TIP3   OH264846   4.630   2.240  12.449  0.0091  0.1198  0.1653
14452TIP3    H164847   4.602   2.171  12.389  0.5942 -0.4259  0.5110
14452TIP3    H264848   4.610   2.321  12.402  1.5639 -0.3040 -1.2986
14453TIP3   OH264849   2.945   3.129  16.301 -0.0914  0.7913 -0.1574
14453TIP3    H164850   2.856   3.158  16.319 -0.7845 -0.4119 -1.4982
14453TIP3    H264851   2.990   3.207  16.268 -1.3370  0.8777 -1.7483
14454TIP3   OH264852   5.029   2.746  16.302  0.2802  0.0117  0.3358
14454TIP3    H164853   4.960   2.734  16.236  0.0043 -1.2980  0.8545
14454TIP3    H264854   5.108   2.764  16.251  0.0366 -0.8439 -0.3531
14455TIP3   OH264855   6.435   0.726   3.381 -0.0923  0.0938 -0.7965
14455TIP3    H164856   6.526   0.696   3.383  0.2217  0.9678 -1.5982
14455TIP3    H264857   6.392   0.676   3.450  1.3159  0.6790  0.5418
14456TIP3   OH264858   4.911   1.272   2.409  0.3808  0.1031 -0.6830
14456TIP3    H164859   4.917   1.275   2.314  1.1515  1.5618 -0.6006
14456TIP3    H264860   4.844   1.337   2.431 -0.8354 -1.2567 -0.3079
14457TIP3   OH264861   1.422   5.592  10.768 -0.1834  0.0582 -0.0757
14457TIP3    H164862   1.332   5.572  10.793  0.3236  1.3766  3.0227
14457TIP3    H264863   1.470   5.510  10.780 -0.7707 -0.4156 -0.9123
14458TIP3   OH264864   2.946   6.592   3.183  0.5445 -0.5363 -0.1679
14458TIP3    H164865   3.018   6.534   3.208  0.8291  0.4899  1.5173
14458TIP3    H264866   2.976   6.636   3.103  1.5018 -0.6402  0.1350
14459TIP3   OH264867   1.007   3.854   3.375 -0.6278  0.6729  0.0044
14459TIP3    H164868   0.990   3.914   3.447  0.7322  0.1579  0.7591
14459TIP3    H264869   1.003   3.909   3.297 -2.7757  1.1097  0.3847
14460TIP3   OH264870   2.558   5.140   0.822 -0.1258 -0.5756  0.2650
14460TIP3    H164871   2.548   5.141   0.727  2.6374  0.9192 -0.0477
14460TIP3    H264872   2.548   5.231   0.849  2.9182 -0.3965  0.9363
14461TIP3   OH264873   6.765   1.705   5.032 -0.4100 -0.2370  0.2777
14461TIP3    H164874   6.713   1.665   4.962 -0.6770  1.3398 -0.4584
14461TIP3    H264875   6.714   1.690   5.112 -0.8592 -0.7131 -0.0971
14462TIP3   OH264876   5.808   4.822  13.133 -0.0399 -0.3880  0.6288
14462TIP3    H164877   5.753   4.806  13.209 -1.7451  0.1555 -0.4729
14462TIP3    H264878   5.747   4.838  13.061  1.5465  0.2902 -0.6086
14463TIP3   OH264879   5.766   4.505  14.723  0.4180 -0.5545  0.1466
14463TIP3    H164880   5.786   4.425  14.772  0.6780 -0.3261  0.4192
14463TIP3    H264881   5.695   4.546  14.772 -0.5233 -1.2147 -0.6603
14464TIP3   OH264882   1.534   2.305  11.242 -0.5378  0.1003 -0.3109
14464TIP3    H164883   1.474   2.312  11.168 -1.0333  1.2978  0.1931
14464TIP3    H264884   1.481   2.264  11.311 -0.1345 -0.8378 -0.5548
14465TIP3   OH264885   2.355   1.747   4.310 -0.5056  0.3926  0.0415
14465TIP3    H164886   2.282   1.687   4.298 -0.0013 -0.4060  0.8624
14465TIP3    H264887   2.433   1.694   4.289 -0.0106  0.5482  1.4188
14466TIP3   OH264888   2.257   6.785  10.766 -0.1255  0.1164 -0.6219
14466TIP3    H164889   2.233   6.723  10.835  2.0866  0.6467  0.7119
14466TIP3    H264890   2.193   6.771  10.697 -0.8973 -2.2080  0.5065
14467TIP3   OH264891   2.215   5.360   1.744 -0.0593  0.1585 -0.0169
14467TIP3    H164892   2.163   5.281   1.728 -0.2216  0.1214  0.7245
14467TIP3    H264893   2.157   5.432   1.722  0.6172  0.0540 -2.3274
14468TIP3   OH264894   4.950   0.282   4.788 -0.0534 -0.4153 -0.4748
14468TIP3    H164895   4.997   0.214   4.741  1.5057  0.3194  0.0022
14468TIP3    H264896   4.971   0.363   4.741 -0.8061 -0.0695 -0.2315
14469TIP3   OH264897   1.159   1.701  11.210  0.0775  0.0170  0.3143
14469TIP3    H164898   1.099   1.738  11.145  1.3032  0.2663 -0.6900
14469TIP3    H264899   1.123   1.728  11.294 -1.5301 -0.2986 -0.2528
14470TIP3   OH264900   6.612   4.432  16.147  0.3209 -0.4191  0.1035
14470TIP3    H164901   6.626   4.522  16.119  1.2964 -1.0942 -1.6848
14470TIP3    H264902   6.528   4.434  16.193  0.6926  1.5246  0.7280
14471TIP3   OH264903   0.763   2.839   1.545 -0.0213  0.4082 -0.1835
14471TIP3    H164904   0.709   2.917   1.529 -1.8764 -0.4990  1.4175
14471TIP3    H264905   0.839   2.872   1.591 -0.2886  1.4172 -0.4530
14472TIP3   OH264906   6.151   1.794  12.738  0.5341 -0.0946  0.1472
14472TIP3    H164907   6.186   1.871  12.783 -0.2330  0.4472 -0.1602
14472TIP3    H264908   6.199   1.790  12.655  0.2961  0.2889 -0.0107
14473TIP3   OH264909   0.612   3.828   1.680  0.3356 -0.2929  0.0750
14473TIP3    H164910   0.656   3.860   1.601 -0.9654  0.5594 -0.3219
14473TIP3    H264911   0.519   3.832   1.659 -0.0373  0.2255  1.7573
14474TIP3   OH264912   3.744   4.652   2.080  0.4894 -0.1913  0.5381
14474TIP3    H164913   3.714   4.688   2.164 -2.7514 -2.4039  0.4346
14474TIP3    H264914   3.779   4.566   2.104 -1.2469 -1.1941 -0.4384
14475TIP3   OH264915   4.807   4.635  14.822  0.8474 -0.0618  0.1203
14475TIP3    H164916   4.854   4.588  14.754  1.1428  0.3035  0.0690
14475TIP3    H264917   4.719   4.648  14.787  1.3253  1.1276 -0.6627
14476TIP3   OH264918   1.839   5.702   3.386  0.2099  1.0806  0.3140
14476TIP3    H164919   1.903   5.712   3.315  0.5099  0.7416  0.5354
14476TIP3    H264920   1.888   5.662   3.457 -0.6342 -0.6787 -0.0764
14477TIP3   OH264921   6.181   0.003   5.228 -0.3378 -0.1742  0.6253
14477TIP3    H164922   6.262   0.053   5.219  0.4867 -1.5171  0.3429
14477TIP3    H264923   6.111   0.067   5.217  0.6883  0.9085  0.3173
14478TIP3   OH264924   1.480   4.292  11.130 -0.2754 -0.3991 -0.3188
14478TIP3    H164925   1.474   4.293  11.034  0.3700 -2.4617 -0.4178
14478TIP3    H264926   1.552   4.351  11.150 -1.5286  1.4024 -0.9728
14479TIP3   OH264927   6.122   4.702  11.505  0.4966 -0.0480  0.0890
14479TIP3    H164928   6.098   4.676  11.416 -1.2014  0.8432  0.2536
14479TIP3    H264929   6.065   4.649  11.561 -0.6731  1.6085  0.5173
14480TIP3   OH264930   4.803   5.715   1.996 -0.2975  0.3102 -0.5331
14480TIP3    H164931   4.805   5.664   2.076 -0.7796  0.5851 -0.3488
14480TIP3    H264932   4.826   5.653   1.927  0.1055  0.0725 -0.1895
14481TIP3   OH264933   2.061   0.373  16.479  0.3585 -0.1050 -0.5725
14481TIP3    H164934   2.051   0.458  16.520 -0.1138 -0.9765  1.1727
14481TIP3    H264935   2.155   0.355  16.482  0.2008 -0.6899  1.2553
14482TIP3   OH264936   2.361   1.842   0.320 -0.3527  0.3082  0.8373
14482TIP3    H164937   2.393   1.910   0.260 -2.9771  1.3966  0.5990
14482TIP3    H264938   2.327   1.773   0.263  0.2519 -0.2011  1.0854
14483TIP3   OH264939   1.918   1.723   3.606  0.1517 -0.0547  0.4203
14483TIP3    H164940   2.008   1.752   3.594 -0.0931  0.9581  1.0168
14483TIP3    H264941   1.916   1.689   3.696 -0.3191  0.8720  0.7578
14484TIP3   OH264942   4.333   2.270   5.477  0.3789  0.1669 -0.1492
14484TIP3    H164943   4.346   2.306   5.564 -0.6447 -2.6226  1.2190
14484TIP3    H264944   4.240   2.288   5.458  1.2048  3.0919 -1.8477
14485TIP3   OH264945   3.437   2.052  14.944  0.4734 -0.3174  0.1290
14485TIP3    H164946   3.346   2.025  14.945  0.5409 -0.5449  0.1447
14485TIP3    H264947   3.436   2.144  14.970  0.3233 -0.5323  0.8660
14486TIP3   OH264948   0.411   4.784   2.671 -0.1142  0.0372  0.2040
14486TIP3    H164949   0.505   4.765   2.675  0.2610  1.6134 -0.7546
14486TIP3    H264950   0.395   4.838   2.749 -0.0190  0.6529 -0.2063
14487TIP3   OH264951   1.862   0.706  16.582  0.1480  0.6197 -0.1684
14487TIP3    H164952   1.954   0.708  16.559 -0.5383 -2.7055 -3.7454
14487TIP3    H264953   1.848   0.619  16.619 -2.0108  0.1091 -2.0405
14488TIP3   OH264954   5.841   6.022   5.722 -0.1256 -0.3656  0.2539
14488TIP3    H164955   5.932   5.995   5.738 -0.2485 -1.0958 -0.2685
14488TIP3    H264956   5.796   5.941   5.699 -0.6604  0.1658 -0.5808
14489TIP3   OH264957   4.134   5.695  13.670  0.2966  0.8126  0.4831
14489TIP3    H164958   4.115   5.720  13.579  0.3165  1.3216  0.6156
14489TIP3    H264959   4.229   5.693  13.675  0.3252 -2.4634 -0.3724
14490TIP3   OH264960   6.514   0.450   6.381 -0.8429  0.1273 -0.4123
14490TIP3    H164961   6.540   0.458   6.289  1.3708 -0.0805  0.1732
14490TIP3    H264962   6.460   0.371   6.383  0.9646 -1.1810 -1.1740
14491TIP3   OH264963   3.234   5.562   3.011  0.2454 -0.4955 -0.3547
14491TIP3    H164964   3.264   5.639   2.962  0.1592 -1.5590 -2.1242
14491TIP3    H264965   3.276   5.571   3.097  0.1113  1.5930 -0.4740
14492TIP3   OH264966   3.478   6.316   2.183  0.0859  0.1425  0.4153
14492TIP3    H164967   3.530   6.365   2.119  0.4633 -1.6091 -0.6808
14492TIP3    H264968   3.389   6.346   2.171 -0.0554 -1.0650 -1.8728
14493TIP3   OH264969   4.321   4.098   1.955  0.3257 -0.3216  0.2374
14493TIP3    H164970   4.240   4.136   1.989  1.6598  3.3027 -0.3382
14493TIP3    H264971   4.368   4.068   2.033 -0.4920 -0.1767  0.7951
14494TIP3   OH264972   5.348   6.777   0.440  0.2290  0.0138 -0.8236
14494TIP3    H164973   5.271   6.746   0.391  0.1672  0.9813 -1.3543
14494TIP3    H264974   5.370   6.705   0.498 -1.1479 -0.2395 -0.5957
14495TIP3   OH264975   5.214   6.710  16.654 -0.6695  0.2204 -0.3655
14495TIP3    H164976   5.247   6.706  16.744  1.2205 -2.3765 -1.1111
14495TIP3    H264977   5.131   6.663  16.657  0.1673 -1.2599 -0.2949
14496TIP3   OH264978   0.979   2.349   3.687  0.2061  0.6145 -0.4585
14496TIP3    H164979   0.905   2.376   3.741 -0.0526 -0.5826 -0.1924
14496TIP3    H264980   1.054   2.348   3.746 -0.3372 -2.0230  0.2299
14497TIP3   OH264981   0.433   0.418  14.542  0.0183 -0.1088 -0.2600
14497TIP3    H164982   0.522   0.440  14.569  0.0288 -1.4344  0.8554
14497TIP3    H264983   0.441   0.395  14.450  0.7523  0.2473 -0.2840
14498TIP3   OH264984   1.566   5.642  13.047 -0.3690  0.1710  0.6379
14498TIP3    H164985   1.494   5.682  12.999 -0.1431  2.4501  2.1314
14498TIP3    H264986   1.639   5.641  12.985 -1.5135 -1.7411 -0.7276
14499TIP3   OH264987   4.835   4.652  16.689  0.0480  0.4947  0.1572
14499TIP3    H164988   4.919   4.678  16.652  1.5213 -3.6861  0.3607
14499TIP3    H264989   4.791   4.604  16.619 -1.9338  2.0233  0.2907
14500TIP3   OH264990   4.034   1.480  12.676  0.2548 -0.0335 -0.4692
14500TIP3    H164991   4.096   1.432  12.621 -0.1777  1.1689 -2.0429
14500TIP3    H264992   3.957   1.492  12.620 -0.9944 -0.5826  1.1062
14501TIP3   OH264993   4.578   4.207   3.121 -0.4465 -0.2212 -0.3153
14501TIP3    H164994   4.526   4.146   3.069 -0.9110  1.0604 -1.3608
14501TIP3    H264995   4.651   4.154   3.153 -2.0471 -1.8847  0.6805
14502TIP3   OH264996   0.925   0.310   4.901 -0.0981 -0.8219  0.5120
14502TIP3    H164997   1.020   0.319   4.912 -0.1857 -0.4175  0.9152
14502TIP3    H264998   0.890   0.319   4.989 -0.5179 -0.9194  0.3536
14503TIP3   OH264999   0.886   5.860   3.561 -0.8331  0.0027  0.1356
14503TIP3    H165000   0.975   5.893   3.567 -0.7345 -0.5810  2.4211
14503TIP3    H265001   0.896   5.764   3.562 -1.4675 -0.0747 -0.2043
14504TIP3   OH265002   3.272   5.157   5.933  0.0038 -0.1824  0.5113
14504TIP3    H165003   3.236   5.186   5.850 -2.0031 -1.6756  0.8069
14504TIP3    H265004   3.325   5.080   5.911 -0.0736 -0.2441  0.5384
14505TIP3   OH265005   2.185   3.453  12.410 -0.6446 -0.0692 -0.1688
14505TIP3    H165006   2.183   3.489  12.499  0.1916  1.5242 -0.7740
14505TIP3    H265007   2.261   3.494  12.369 -1.8120  0.2908 -2.0582
14506TIP3   OH265008   0.616   4.813  15.921 -0.6398 -0.2040  0.1289
14506TIP3    H165009   0.654   4.900  15.938 -1.4652 -0.0775  1.3947
14506TIP3    H265010   0.582   4.819  15.832  0.8009  0.2305 -0.3972
14507TIP3   OH265011   2.005   0.690  17.038  0.1939  0.7337 -0.1346
14507TIP3    H165012   2.044   0.609  17.005  0.6386 -0.9669  4.2336
14507TIP3    H265013   1.913   0.669  17.051  0.2272  1.0451  0.6394
14508TIP3   OH265014   4.179   0.964   3.428 -0.6811  0.8053 -0.4921
14508TIP3    H165015   4.089   0.934   3.441  0.0254 -1.2504 -0.0905
14508TIP3    H265016   4.174   1.059   3.435 -2.9002  0.7591 -0.9595
14509TIP3   OH265017   6.283   5.591   1.509  0.1495  0.8567 -0.2590
14509TIP3    H165018   6.311   5.636   1.430 -1.0500  4.4144  1.2621
14509TIP3    H265019   6.203   5.635   1.536  1.5863  1.1275  4.0458
14510TIP3   OH265020   2.610   0.273  11.857 -0.1939 -0.2498 -0.6498
14510TIP3    H165021   2.607   0.245  11.766 -0.7399 -2.0581 -0.0943
14510TIP3    H265022   2.688   0.329  11.862  1.5300 -2.5117 -1.5730
14511TIP3   OH265023   6.076   3.345   6.231  0.5079  0.3474  0.6084
14511TIP3    H165024   6.117   3.304   6.307  0.1101 -0.4123  0.4192
14511TIP3    H265025   6.015   3.408   6.267  1.4090  1.0527  0.9018
14512TIP3   OH265026   5.859   0.602  15.585  0.0434 -0.1777  0.1192
14512TIP3    H165027   5.881   0.572  15.497 -0.9633  0.2339 -0.2715
14512TIP3    H265028   5.932   0.571  15.639  1.7089  1.3298 -1.1827
14513TIP3   OH265029   4.049   6.780  14.423  0.6302 -0.7156  0.1240
14513TIP3    H165030   4.036   6.811  14.333 -1.3807 -0.2545  0.5361
14513TIP3    H265031   4.030   6.687  14.420 -2.0108 -0.2176  0.5409
14514TIP3   OH265032   5.351   3.636  14.397  0.1509  0.4191 -0.3195
14514TIP3    H165033   5.373   3.543  14.400 -1.5370  0.0425  1.1970
14514TIP3    H265034   5.352   3.658  14.303 -0.1792 -1.3027 -0.7461
14515TIP3   OH265035   0.743   1.721  12.760  0.1194 -0.1308 -0.2009
14515TIP3    H165036   0.767   1.717  12.667 -1.8928  2.4111 -0.8818
14515TIP3    H265037   0.651   1.692  12.762 -0.7603  2.5966  0.5639
14516TIP3   OH265038   0.788   6.560  15.205 -0.4977 -0.1723  0.3829
14516TIP3    H165039   0.728   6.602  15.267 -0.4562 -0.8708  0.8914
14516TIP3    H265040   0.874   6.593  15.228 -0.5747  0.1449  0.2191
14517TIP3   OH265041   4.539   3.632  10.124 -0.0416 -0.3342  0.0407
14517TIP3    H165042   4.518   3.538  10.129 -0.3353 -0.2594  0.2488
14517TIP3    H265043   4.520   3.656  10.033 -1.8253 -0.0515  0.4659
14518TIP3   OH265044   4.268   2.953   0.554  0.6432 -0.2701 -0.1861
14518TIP3    H165045   4.331   2.969   0.484  1.0743  0.9961  0.4824
14518TIP3    H265046   4.320   2.916   0.625  0.5621  0.4122  0.2268
14519TIP3   OH265047   2.782   4.313  12.557  0.0941 -0.3754  0.1581
14519TIP3    H165048   2.803   4.302  12.464  1.1857 -1.6345  0.5216
14519TIP3    H265049   2.699   4.267  12.568 -0.4375  0.4626 -0.3583
14520TIP3   OH265050   1.378   4.814  11.840 -0.0850 -0.0992  0.3400
14520TIP3    H165051   1.369   4.744  11.905 -1.2980  1.2661  1.7127
14520TIP3    H265052   1.444   4.873  11.877  0.4400 -0.1760 -0.4753
14521TIP3   OH265053   3.836   3.454   4.410 -0.3800  0.0199 -0.2507
14521TIP3    H165054   3.789   3.378   4.444  0.3872 -0.4392 -0.2264
14521TIP3    H265055   3.777   3.528   4.428  0.1686 -0.1507  2.4497
14522TIP3   OH265056   1.774   1.381  12.664 -0.6238  0.0227 -0.2094
14522TIP3    H165057   1.690   1.407  12.626 -1.4578  0.6931  1.9699
14522TIP3    H265058   1.840   1.430  12.615 -1.4727 -0.7201 -2.1304
14523TIP3   OH265059   2.337   5.007   3.287 -0.1390  0.2817 -0.1979
14523TIP3    H165060   2.309   4.977   3.373 -2.3918  1.1574 -0.5709
14523TIP3    H265061   2.375   4.930   3.245  1.1315 -0.1064  1.6179
14524TIP3   OH265062   6.580   0.766   4.459 -0.3053 -0.0636  1.1500
14524TIP3    H165063   6.593   0.705   4.532  0.2975  1.6078  2.4578
14524TIP3    H265064   6.620   0.848   4.488 -2.0183  1.2814 -0.1668
14525TIP3   OH265065   6.334   0.714  12.241  0.3131 -0.2814  0.6150
14525TIP3    H165066   6.414   0.767  12.238  0.5842 -0.7137  0.0859
14525TIP3    H265067   6.365   0.624  12.233 -0.4505 -0.2820 -3.3922
14526TIP3   OH265068   2.330   1.333   3.226  0.5647 -0.2207 -0.1441
14526TIP3    H165069   2.365   1.315   3.139 -1.4533 -1.0217 -0.8244
14526TIP3    H265070   2.237   1.353   3.211  0.5007  1.0140  1.6780
14527TIP3   OH265071   0.997   3.315   1.187 -0.4432 -0.1686  0.3227
14527TIP3    H165072   0.949   3.369   1.123 -0.5247 -1.5167 -0.7739
14527TIP3    H265073   0.930   3.290   1.251 -0.8584 -0.6457 -0.2848
14528TIP3   OH265074   3.906   2.915   5.037 -0.6090 -0.2394 -0.1752
14528TIP3    H165075   3.896   2.949   5.126  0.5104 -0.9775  0.2411
14528TIP3    H265076   3.905   2.993   4.982  2.2236  0.5539  0.7970
14529TIP3   OH265077   1.272   3.597  13.205  0.4566  0.1544  0.2061
14529TIP3    H165078   1.239   3.686  13.222  1.1716  0.7804 -1.5274
14529TIP3    H265079   1.329   3.608  13.129  1.4083 -1.6186  0.6541
14530TIP3   OH265080   2.255   2.088  15.419 -0.5341 -0.2402  0.3588
14530TIP3    H165081   2.333   2.034  15.419  0.7275  1.5270 -0.4700
14530TIP3    H265082   2.220   2.081  15.508  1.4892  0.2471  1.2238
14531TIP3   OH265083   6.072   5.046   0.110  0.8563  0.0307 -0.1060
14531TIP3    H165084   6.148   5.008   0.065  1.4492  0.4363  0.5326
14531TIP3    H265085   6.026   4.972   0.147  1.5368 -0.1350  0.4099
14532TIP3   OH265086   6.664   6.250  14.863 -0.0632  0.0778 -0.4598
14532TIP3    H165087   6.572   6.234  14.839  0.4922 -0.4966 -2.2688
14532TIP3    H265088   6.688   6.330  14.814  0.0836  0.8593  0.8697
14533TIP3   OH265089   2.015   5.050   0.753 -0.1502 -0.0162 -0.0775
14533TIP3    H165090   1.929   5.090   0.764 -0.0512  0.8588 -2.2719
14533TIP3    H265091   1.999   4.956   0.756 -1.0398  0.1479  0.4643
14534TIP3   OH265092   6.696   1.204  13.758 -0.1575  0.5282 -0.3699
14534TIP3    H165093   6.628   1.261  13.723 -0.1460  0.6299 -0.2260
14534TIP3    H265094   6.697   1.221  13.852  0.3154  0.7999 -0.4202
14535TIP3   OH265095   3.781   2.093  11.079  0.0640 -0.6559 -0.2830
14535TIP3    H165096   3.687   2.081  11.064 -0.1356 -0.6540  0.9445
14535TIP3    H265097   3.818   2.105  10.991 -0.9705 -1.4404 -0.8351
14536TIP3   OH265098   2.123   5.849  17.011 -0.0157  0.0759 -0.1809
14536TIP3    H165099   2.099   5.877  16.923  1.4818 -0.2220 -0.6945
14536TIP3    H265100   2.064   5.899  17.069 -2.0800 -0.8846 -1.3900
14537TIP3   OH265101   0.864   1.677  16.318 -0.2612 -0.4103 -0.2596
14537TIP3    H165102   0.893   1.618  16.387 -0.6994 -1.1072 -0.6700
14537TIP3    H265103   0.856   1.762  16.361  1.2794 -0.4433  0.1219
14538TIP3   OH265104   1.616   0.257  16.159  0.0799  0.0967 -0.1542
14538TIP3    H165105   1.655   0.281  16.243 -0.2857  0.0398  0.0319
14538TIP3    H265106   1.572   0.337  16.129 -0.5295 -0.1322  0.1258
14539TIP3   OH265107   0.760   1.626  14.275  0.0085  0.3342  0.2741
14539TIP3    H165108   0.795   1.566  14.341 -1.0289 -1.2635 -0.6048
14539TIP3    H265109   0.703   1.571  14.220 -0.7048  2.0524 -0.7395
14540TIP3   OH265110   0.819   6.706  13.862 -0.0315  0.2458  0.1065
14540TIP3    H165111   0.873   6.710  13.783 -0.1225 -1.1516 -0.0380
14540TIP3    H265112   0.879   6.680  13.931 -0.4295 -1.0055  0.0038
14541TIP3   OH265113   6.085   2.947   2.684  0.3643 -0.1365 -0.2834
14541TIP3    H165114   6.165   2.971   2.636  1.1556  0.1017  1.1359
14541TIP3    H265115   6.115   2.929   2.772 -1.1047 -0.5045  0.1442
14542TIP3   OH265116   6.105   1.450  11.542 -0.5236  0.5603 -0.1144
14542TIP3    H165117   6.095   1.367  11.495 -1.9628  0.7677 -0.1877
14542TIP3    H265118   6.016   1.483  11.552 -0.0337  1.6619  0.7165
14543TIP3   OH265119   2.864   6.152   0.705 -0.2897  0.1684  0.0523
14543TIP3    H165120   2.838   6.243   0.699 -0.3583  0.1890  0.6163
14543TIP3    H265121   2.957   6.155   0.730 -0.5744  0.0869  1.1627
14544TIP3   OH265122   5.749   2.935   1.324  0.5364  0.0234 -0.0639
14544TIP3    H165123   5.695   2.992   1.378  1.6543  1.3449 -0.3178
14544TIP3    H265124   5.717   2.948   1.235  0.3031 -0.3227 -0.0339
14545TIP3   OH265125   2.197   4.169   0.278 -0.8813 -0.3178 -0.4970
14545TIP3    H165126   2.275   4.141   0.230 -1.7379 -2.6846 -0.5617
14545TIP3    H265127   2.231   4.217   0.353  0.5641  0.4581 -1.6327
14546TIP3   OH265128   3.959   0.563   2.576  0.2384 -0.1886  0.3353
14546TIP3    H165129   3.988   0.554   2.667 -0.0856 -1.1118  0.3547
14546TIP3    H265130   3.980   0.479   2.536  0.0394  0.0848 -0.3508
14547TIP3   OH265131   1.783   1.734  16.816 -0.5061 -0.2382  0.4525
14547TIP3    H165132   1.791   1.644  16.785 -2.4287 -0.8279  1.6108
14547TIP3    H265133   1.690   1.747  16.830 -0.4075  2.3449 -0.8534
14548TIP3   OH265134   2.483   4.681   1.983 -0.2693 -0.0982 -0.0303
14548TIP3    H165135   2.495   4.617   2.054  1.0814  0.6888  0.4637
14548TIP3    H265136   2.388   4.683   1.970 -0.7740  1.3430  3.2797
14549TIP3   OH265137   4.689   3.614   0.904 -0.1475 -0.4706 -0.0724
14549TIP3    H165138   4.661   3.694   0.860  2.2661  0.5683  0.1780
14549TIP3    H265139   4.652   3.544   0.851 -2.3814  0.7947 -0.2511
14550TIP3   OH265140   3.737   4.974  13.419  0.1248  0.0219  0.0231
14550TIP3    H165141   3.800   4.903  13.406 -0.4046 -0.8463  2.0604
14550TIP3    H265142   3.687   4.948  13.496 -1.7585  1.4095 -0.6800
14551TIP3   OH265143   0.276   3.615   3.378 -0.0477 -0.3769 -0.0977
14551TIP3    H165144   0.273   3.617   3.473  1.9946  0.1923 -0.0155
14551TIP3    H265145   0.282   3.707   3.352  0.0629 -0.5602 -0.7442
14552TIP3   OH265146   2.850   3.944   5.839  0.2155  0.0997 -0.1139
14552TIP3    H165147   2.889   3.965   5.755  1.0961 -0.1328  0.2328
14552TIP3    H265148   2.907   3.877   5.877  0.1217  0.5643  0.8856
14553TIP3   OH265149   4.692   0.913  10.696  0.5022 -0.0655  0.3065
14553TIP3    H165150   4.782   0.890  10.674  0.2406 -0.9491  0.1288
14553TIP3    H265151   4.691   0.918  10.792  1.2049  1.9518  0.2257
14554TIP3   OH265152   4.015   0.687  13.635  0.4540 -0.5883  0.2801
14554TIP3    H165153   4.047   0.764  13.588 -1.3174  0.1073  0.1753
14554TIP3    H265154   3.989   0.626  13.565  0.8168 -0.8522  0.3701
14555TIP3   OH265155   6.404   2.929   3.709 -0.0127 -0.2902  0.4195
14555TIP3    H165156   6.308   2.922   3.705 -0.1162  1.0218  0.1702
14555TIP3    H265157   6.422   2.966   3.796  0.2362 -0.0903  0.2838
14556TIP3   OH265158   1.849   6.544   3.050 -0.2038  0.0873 -0.8687
14556TIP3    H165159   1.789   6.470   3.041 -0.7670  0.6828 -2.0342
14556TIP3    H265160   1.843   6.591   2.967  1.4944  0.4444 -0.8185
14557TIP3   OH265161   2.848   2.013   1.965 -0.2042  0.1697 -0.2820
14557TIP3    H165162   2.806   1.945   1.913 -0.4941 -1.9557  2.5986
14557TIP3    H265163   2.934   2.025   1.924  0.3699 -2.8986 -0.0595
14558TIP3   OH265164   3.682   1.093  16.830  0.8951  0.1264  0.0271
14558TIP3    H165165   3.727   1.155  16.773  0.0354 -0.9512 -1.8715
14558TIP3    H265166   3.591   1.122  16.830  0.7106 -0.4324  0.0792
14559TIP3   OH265167   2.043   4.049  11.403  0.0509  0.0691 -0.1296
14559TIP3    H165168   2.105   4.080  11.469  0.1716 -0.5581  0.0525
14559TIP3    H265169   2.098   4.022  11.329 -0.0796  0.7056 -0.4620
14560TIP3   OH265170   2.178   2.633   5.001  0.6717  0.1245 -0.2986
14560TIP3    H165171   2.211   2.615   4.913  1.2137  0.4501 -0.1618
14560TIP3    H265172   2.105   2.572   5.012  2.4593 -1.9774  0.1440
14561TIP3   OH265173   2.136   6.652  12.886 -0.1254  0.2186  0.3031
14561TIP3    H165174   2.076   6.715  12.926 -0.6007 -0.7407  1.1270
14561TIP3    H265175   2.102   6.639  12.798  0.9189  2.3405 -0.4743
14562TIP3   OH265176   6.462   1.976  13.115  0.4862  0.3595 -0.1579
14562TIP3    H165177   6.525   2.012  13.178  1.1161  0.1914 -0.6830
14562TIP3    H265178   6.440   2.049  13.058  1.4159  0.0315 -0.9438
14563TIP3   OH265179   4.401   3.793   2.019  0.6014 -0.2514  0.6007
14563TIP3    H165180   4.396   3.697   2.016  0.4189 -0.2372  0.4713
14563TIP3    H265181   4.486   3.811   2.060  1.0519 -0.4637 -0.2269
14564TIP3   OH265182   6.015   5.043   1.704 -0.0316  0.1641 -0.3808
14564TIP3    H165183   5.998   4.959   1.662  0.1507 -0.3021  0.4677
14564TIP3    H265184   6.099   5.031   1.748 -0.7534  0.2859  1.0548
14565TIP3   OH265185   1.962   3.576   4.965  0.0751 -0.3280 -0.2871
14565TIP3    H165186   1.939   3.654   4.914 -0.1400  0.4372  0.9289
14565TIP3    H265187   1.932   3.502   4.913 -0.5266  0.4478 -1.0480
14566TIP3   OH265188   5.856   2.374  13.791  0.2329  0.5029  0.0309
14566TIP3    H165189   5.794   2.415  13.732 -1.0986 -2.2833 -0.6104
14566TIP3    H265190   5.874   2.440  13.858 -1.8288  2.0718 -0.9262
14567TIP3   OH265191   0.937   5.327  16.692  0.1940 -0.7822 -0.8151
14567TIP3    H165192   1.007   5.357  16.749  1.6452 -3.7086 -0.9466
14567TIP3    H265193   0.859   5.328  16.747  0.9106 -0.3143  0.2087
14568TIP3   OH265194   2.660   4.870   2.781  0.3602  0.7021  0.2213
14568TIP3    H165195   2.732   4.837   2.835 -0.4028  0.2225  0.9489
14568TIP3    H265196   2.603   4.794   2.767 -0.7144  1.3807  0.8074
14569TIP3   OH265197   5.315   5.805   0.538  0.6314  0.2931 -0.4369
14569TIP3    H165198   5.289   5.720   0.575  0.9057  0.9377  1.2547
14569TIP3    H265199   5.381   5.783   0.472  0.4697 -0.8385 -0.2300
14570TIP3   OH265200   6.427   0.433  14.246 -0.1251 -0.0948 -0.1649
14570TIP3    H165201   6.449   0.509  14.300  2.2560 -0.3377 -0.7477
14570TIP3    H265202   6.414   0.362  14.308 -1.3337  0.5353  0.3216
14571TIP3   OH265203   1.913   2.332   4.600 -0.0378 -0.3410  0.4719
14571TIP3    H165204   1.912   2.428   4.598 -1.7527 -0.3828 -1.1280
14571TIP3    H265205   1.866   2.310   4.680 -0.7559  0.1318  0.1836
14572TIP3   OH265206   1.208   4.174  17.115  0.3671  0.8137  0.0103
14572TIP3    H165207   1.168   4.239  17.172  0.0978  0.3444  0.3677
14572TIP3    H265208   1.282   4.139  17.165  0.4933  0.8248 -0.1656
14573TIP3   OH265209   0.356   6.557  14.808  0.2384 -0.1964 -0.0457
14573TIP3    H165210   0.417   6.625  14.781 -2.3036  1.8782 -0.7961
14573TIP3    H265211   0.349   6.566  14.903 -0.3678  0.8623 -0.1845
14574TIP3   OH265212   5.602   5.854  15.488  0.9426  0.2725 -0.2720
14574TIP3    H165213   5.525   5.910  15.496  0.9584  0.3516 -0.6678
14574TIP3    H265214   5.569   5.774  15.447  1.3565  0.9062 -1.8506
14575TIP3   OH265215   2.112   5.372   3.484 -0.1331  0.5279  0.3780
14575TIP3    H165216   2.110   5.408   3.396  0.2776 -1.2912 -0.4043
14575TIP3    H265217   2.195   5.325   3.489 -0.3006  0.3348  1.6119
14576TIP3   OH265218   0.301   3.448  14.954 -0.3828 -0.3532  0.0308
14576TIP3    H165219   0.302   3.354  14.973  3.4139 -0.4780 -0.4295
14576TIP3    H265220   0.330   3.489  15.035 -0.3068  0.2969 -0.3230
14577TIP3   OH265221   5.317   0.559  17.099  0.0034 -0.1344  0.4725
14577TIP3    H165222   5.321   0.654  17.089  0.0613 -0.1283  0.5534
14577TIP3    H265223   5.229   0.542  17.132 -0.4187 -0.2111 -0.6848
14578TIP3   OH265224   1.579   2.510   4.706 -0.5139  0.0068 -0.0598
14578TIP3    H165225   1.586   2.432   4.760 -0.0523  0.0446 -0.0672
14578TIP3    H265226   1.647   2.569   4.739  0.0846 -0.1497 -0.9836
14579TIP3   OH265227   5.183   6.601   4.642  0.1525  0.1550  0.2456
14579TIP3    H165228   5.184   6.630   4.551 -0.2892 -0.8025 -0.0727
14579TIP3    H265229   5.120   6.528   4.643 -1.7221  1.7538  1.8039
14580TIP3   OH265230   0.362   1.219   2.086 -0.3104  0.3696  0.3578
14580TIP3    H165231   0.359   1.142   2.143  1.4964 -0.5526 -0.7527
14580TIP3    H265232   0.344   1.185   1.999 -2.0851  1.6256  0.2010
14581TIP3   OH265233   0.754   4.370  12.262  0.1018 -0.7273  0.3106
14581TIP3    H165234   0.705   4.316  12.200  1.9269 -2.5297  0.3913
14581TIP3    H265235   0.724   4.340  12.348  0.0485 -0.6007  0.3359
14582TIP3   OH265236   1.129   1.556  14.430 -0.3865 -0.1189 -0.3252
14582TIP3    H165237   1.211   1.513  14.406 -0.3487  0.3473 -1.0537
14582TIP3    H265238   1.107   1.610  14.353 -0.8728  0.4933  0.2393
14583TIP3   OH265239   2.330   2.498  13.610 -0.4484  0.0580  0.3004
14583TIP3    H165240   2.420   2.526  13.627 -1.1857  1.3168  2.2774
14583TIP3    H265241   2.337   2.444  13.531  1.8162  1.3320 -0.4330
14584TIP3   OH265242   2.401   3.214  10.903  0.3694  0.0739  0.6645
14584TIP3    H165243   2.475   3.234  10.960  1.2278  0.9054 -0.7033
14584TIP3    H265244   2.397   3.287  10.842  0.1483 -1.2985 -1.0168
14585TIP3   OH265245   2.825   3.898  16.800 -0.4956  0.8712  0.4486
14585TIP3    H165246   2.748   3.841  16.787 -0.7762  1.1894  0.6977
14585TIP3    H265247   2.853   3.879  16.889  0.7698 -0.5136 -0.2255
14586TIP3   OH265248   6.694   5.441   3.571 -0.0899  0.1713  0.6471
14586TIP3    H165249   6.629   5.496   3.614  0.4424  2.2542 -1.1645
14586TIP3    H265250   6.646   5.396   3.502 -0.2937 -0.8443  1.4373
14587TIP3   OH265251   5.880   6.464   2.347  0.0900  0.8395  0.2385
14587TIP3    H165252   5.893   6.480   2.440 -0.0621  1.1282  0.2102
14587TIP3    H265253   5.959   6.418   2.320 -0.5954 -0.7461  0.8628
14588TIP3   OH265254   4.080   4.719  16.764  0.4685 -0.1469 -0.0963
14588TIP3    H165255   4.083   4.641  16.709 -1.3060  0.0226 -0.4803
14588TIP3    H265256   4.115   4.789  16.709  4.0171 -1.0148  0.9438
14589TIP3   OH265257   6.344   2.331   1.735  0.4912  0.2141 -0.2651
14589TIP3    H165258   6.395   2.250   1.734 -0.3583 -0.3237  0.0879
14589TIP3    H265259   6.380   2.381   1.809 -0.0316 -0.5111  0.4815
14590TIP3   OH265260   5.635   6.167  11.219 -0.0026  0.6974 -0.0489
14590TIP3    H165261   5.593   6.117  11.289 -0.5423 -0.1660 -0.9964
14590TIP3    H265262   5.655   6.103  11.151 -0.3130  1.6787 -1.0869
14591TIP3   OH265263   1.958   4.508  16.875 -0.2289 -0.1417 -0.6311
14591TIP3    H165264   1.875   4.483  16.833  0.3649 -0.7803 -1.4439
14591TIP3    H265265   2.016   4.527  16.801  0.6598 -0.7176 -0.0735
14592TIP3   OH265266   0.811   1.655  13.653 -0.5085  0.0476  0.5238
14592TIP3    H165267   0.810   1.725  13.719 -2.7731  0.3794  0.1735
14592TIP3    H265268   0.762   1.691  13.579 -1.5038 -1.8232  0.2524
14593TIP3   OH265269   5.090   0.347  14.985 -0.5477 -0.0716  0.0658
14593TIP3    H165270   5.176   0.351  14.945 -0.9932  1.0528 -0.7943
14593TIP3    H265271   5.086   0.423  15.043 -0.4626 -0.8757  1.1598
14594TIP3   OH265272   2.259   3.745  15.341 -0.5349  0.0043 -0.1626
14594TIP3    H165273   2.330   3.713  15.396 -1.0327 -0.5487  0.1611
14594TIP3    H265274   2.296   3.821  15.296  0.3680 -0.4897 -0.2616
14595TIP3   OH265275   6.648   3.352  14.760  0.3767  0.3649 -0.6658
14595TIP3    H165276   6.682   3.270  14.796 -0.6162  0.6844  0.9944
14595TIP3    H265277   6.725   3.410  14.757  0.5756  0.1574  0.4044
14596TIP3   OH265278   5.634   1.515  12.497 -0.0523  0.3881  0.2405
14596TIP3    H165279   5.544   1.547  12.502  0.0909  0.9620 -0.8646
14596TIP3    H265280   5.668   1.552  12.416  1.7072  1.5296  1.4679
14597TIP3   OH265281   6.486   0.635  13.858 -0.5525  0.3579  0.0771
14597TIP3    H165282   6.522   0.688  13.929  0.4976 -0.2667  0.0201
14597TIP3    H265283   6.502   0.545  13.885  1.3604  0.1303 -1.6995
14598TIP3   OH265284   4.913   5.089  15.946  0.4011 -0.5644  0.0103
14598TIP3    H165285   4.993   5.036  15.946  1.3021  0.7834  0.1672
14598TIP3    H265286   4.943   5.177  15.924 -1.6115 -0.9012 -4.6134
14599TIP3   OH265287   1.009   0.447  13.087  0.0348  0.5541 -0.2660
14599TIP3    H165288   0.925   0.486  13.063 -0.2783 -0.2651 -0.5322
14599TIP3    H265289   1.069   0.472  13.017 -0.1923  0.4646 -0.4919
14600TIP3   OH265290   6.409   1.232  11.551 -0.1072  0.5649  0.1040
14600TIP3    H165291   6.482   1.170  11.559  0.1524  0.5682 -1.8147
14600TIP3    H265292   6.396   1.241  11.456 -2.0804  1.1817  0.3974
14601TIP3   OH265293   5.422   3.827  13.130 -0.3099  0.0163 -0.1144
14601TIP3    H165294   5.415   3.737  13.100 -0.8425  0.2808 -0.7937
14601TIP3    H265295   5.428   3.879  13.050 -0.0199  0.5857  0.2705
14602TIP3   OH265296   6.761   5.640   4.739  0.1142  0.4922 -0.2567
14602TIP3    H165297   6.766   5.703   4.666  1.3728  1.1486  0.3812
14602TIP3    H265298   6.850   5.636   4.774 -0.2237 -0.7258  0.4956
14603TIP3   OH265299   0.731   5.490  11.280  0.3768  0.2028  0.2499
14603TIP3    H165300   0.782   5.413  11.257  0.8315  0.2815  0.9496
14603TIP3    H265301   0.675   5.507  11.204  1.9547  0.5621 -0.8550
14604TIP3   OH265302   4.960   4.309   2.339 -0.0380 -0.0989 -0.5179
14604TIP3    H165303   5.017   4.369   2.387 -0.5814 -1.0776  1.4047
14604TIP3    H265304   4.874   4.351   2.341 -0.4076 -0.8927  0.7862
14605TIP3   OH265305   4.067   5.650  11.235  0.1713 -0.2930  0.1785
14605TIP3    H165306   4.093   5.673  11.324 -1.2183 -2.9656  1.3578
14605TIP3    H265307   4.149   5.640  11.188  0.9415  0.6245  1.2997
14606TIP3   OH265308   6.309   5.540   2.481 -0.9726 -0.2110 -0.0742
14606TIP3    H165309   6.290   5.615   2.424 -0.5854  0.6553  0.9272
14606TIP3    H265310   6.282   5.464   2.430 -1.1301  0.5939 -1.2071
14607TIP3   OH265311   5.693   5.990   6.074 -0.0458 -0.3064  0.3040
14607TIP3    H165312   5.675   5.900   6.047  1.6286 -0.4261 -0.4486
14607TIP3    H265313   5.771   5.984   6.129 -1.2605  0.4180  2.2091
14608TIP3   OH265314   0.444   4.849  12.549 -0.5491 -0.1651  0.0670
14608TIP3    H165315   0.502   4.889  12.484  0.7785 -1.4318  0.4553
14608TIP3    H265316   0.470   4.888  12.632  0.5398 -1.5644  0.4039
14609TIP3   OH265317   2.097   2.734   3.178 -0.4091 -0.3028 -0.3658
14609TIP3    H165318   2.026   2.745   3.242 -0.9571  0.5391 -1.1072
14609TIP3    H265319   2.154   2.810   3.192  0.2463 -0.8775  0.0975
14610TIP3   OH265320   3.857   1.100  14.654  0.1826 -0.0208  0.0051
14610TIP3    H165321   3.823   1.178  14.697 -0.3674 -0.4333  0.3361
14610TIP3    H265322   3.781   1.065  14.606  0.2611 -0.6918  0.3658
14611TIP3   OH265323   5.920   6.293   0.436 -0.0556  0.1546  0.1374
14611TIP3    H165324   5.839   6.253   0.470  0.4704 -1.7874 -0.8039
14611TIP3    H265325   5.889   6.352   0.367 -0.7176 -0.0235  0.2698
14612TIP3   OH265326   2.187   0.961  15.026 -0.1437  0.0002 -0.1558
14612TIP3    H165327   2.233   0.946  15.109 -0.7826  1.3003  0.4513
14612TIP3    H265328   2.257   0.978  14.962  0.3657 -1.2987  0.0430
14613TIP3   OH265329   4.026   6.627  16.222 -0.3716 -0.2756 -0.2813
14613TIP3    H165330   3.999   6.718  16.237  1.1363 -0.0643  1.3253
14613TIP3    H265331   3.964   6.575  16.273  0.2670  0.0273  0.8442
14614TIP3   OH265332   2.734   0.511   6.263  0.0771 -0.7176 -0.5154
14614TIP3    H165333   2.671   0.467   6.320 -1.7952  1.8616 -0.5245
14614TIP3    H265334   2.818   0.473   6.287 -0.6967  0.0139  3.6632
14615TIP3   OH265335   4.396   3.084  16.207  0.1460  0.2636 -0.3635
14615TIP3    H165336   4.318   3.098  16.152 -1.6401 -3.6649  0.9606
14615TIP3    H265337   4.431   3.001  16.177  1.4877  0.0349  1.7591
14616TIP3   OH265338   5.986   5.827  12.790  0.7241 -0.4756  0.1996
14616TIP3    H165339   6.010   5.818  12.698  1.6612  0.0091  0.3946
14616TIP3    H265340   5.958   5.739  12.816 -1.2170 -0.2518 -0.9912
14617TIP3   OH265341   3.213   5.828  10.633 -0.2511 -0.5316 -0.1630
14617TIP3    H165342   3.266   5.853  10.558  0.6218 -0.8317  0.3485
14617TIP3    H265343   3.273   5.832  10.707 -0.7929 -1.4579  0.3336
14618TIP3   OH265344   2.332   5.704   5.123 -0.9864 -0.3557  0.3726
14618TIP3    H165345   2.354   5.751   5.204 -1.0035 -0.3383  0.3671
14618TIP3    H265346   2.386   5.747   5.056  0.1168 -1.3053  0.6340
14619TIP3   OH265347   3.441   6.369  14.031  0.3896 -0.2961 -0.4718
14619TIP3    H165348   3.448   6.445  14.089  0.8016  0.5440 -1.6077
14619TIP3    H265349   3.347   6.347  14.031  0.5549 -1.1229  1.5198
14620TIP3   OH265350   0.459   0.737   2.177 -0.1459 -0.2584 -0.0116
14620TIP3    H165351   0.374   0.692   2.178 -0.5444  0.3980  3.7210
14620TIP3    H265352   0.519   0.675   2.219  0.7374  0.1752 -0.6092
14621TIP3   OH265353   4.333   0.387  10.922 -0.1676 -0.2829  0.0570
14621TIP3    H165354   4.361   0.402  10.832 -0.6601 -0.3510 -0.1086
14621TIP3    H265355   4.370   0.302  10.945  0.9032  0.2405  0.3008
14622TIP3   OH265356   0.745   0.145  16.063  0.3156  0.6401 -0.0088
14622TIP3    H165357   0.680   0.088  16.022  0.2366 -0.4514  1.5948
14622TIP3    H265358   0.721   0.233  16.034 -1.5408  0.1964  0.0843
14623TIP3   OH265359   0.410   5.608  15.218  0.4733  0.0549 -0.2838
14623TIP3    H165360   0.329   5.655  15.235  1.4528  1.0550  1.8204
14623TIP3    H265361   0.437   5.636  15.131 -0.5147  1.0802 -0.2683
14624TIP3   OH265362   5.955   1.685   2.504 -0.8335 -0.2957  0.4680
14624TIP3    H165363   5.953   1.680   2.408  2.2714  0.2313  0.3530
14624TIP3    H265364   5.978   1.776   2.523 -0.2029 -0.7031  1.6914
14625TIP3   OH265365   3.504   0.916   4.109 -0.3457  0.2771 -0.1920
14625TIP3    H165366   3.423   0.961   4.082 -0.1103  0.2464 -0.9792
14625TIP3    H265367   3.521   0.854   4.038  1.0211  1.1260 -0.6244
14626TIP3   OH265368   4.426   3.328  13.029 -0.5104  0.3762 -0.0118
14626TIP3    H165369   4.413   3.246  13.076 -1.1695  1.0798  1.0660
14626TIP3    H265370   4.391   3.312  12.942  0.8732 -1.0009 -0.3407
14627TIP3   OH265371   6.763   5.085   1.604 -0.7845 -0.0877 -0.2268
14627TIP3    H165372   6.811   5.026   1.546  1.8584  0.4094  1.3405
14627TIP3    H265373   6.827   5.110   1.671 -2.8399  1.8030  1.1227
14628TIP3   OH265374   6.355   4.568   2.587  0.0843 -0.1478  0.4443
14628TIP3    H165375   6.282   4.625   2.561 -1.3597 -1.3243  1.8040
14628TIP3    H265376   6.347   4.491   2.532  0.5321 -0.1152  0.3314
14629TIP3   OH265377   3.406   3.828  12.323 -0.0725 -0.0112 -0.3438
14629TIP3    H165378   3.484   3.869  12.286  0.7437 -0.4267  0.8967
14629TIP3    H265379   3.350   3.811  12.247  1.0953  0.1713 -1.2645
14630TIP3   OH265380   6.122   2.239   1.961 -0.0791 -0.4393 -0.0795
14630TIP3    H165381   6.122   2.278   2.048 -1.2731  0.7824 -0.5978
14630TIP3    H265382   6.185   2.291   1.911  0.9175 -1.4078  0.1645
14631TIP3   OH265383   0.615   3.354   5.456  0.0497  0.4648  0.1681
14631TIP3    H165384   0.673   3.426   5.432  2.9935 -1.7860  0.1865
14631TIP3    H265385   0.618   3.352   5.552 -0.7314  0.8802  0.1987
14632TIP3   OH265386   6.224   6.351   5.206  0.0855  0.4315  0.1012
14632TIP3    H165387   6.299   6.392   5.251 -0.5649  0.9413  0.7269
14632TIP3    H265388   6.184   6.423   5.158  0.0060  0.1492 -0.2544
14633TIP3   OH265389   2.785   6.422  15.061  0.4137 -0.2292 -0.6805
14633TIP3    H165390   2.695   6.456  15.069  1.2139  1.4160  1.7922
14633TIP3    H265391   2.774   6.330  15.037 -1.9075  0.1674 -1.2817
14634TIP3   OH265392   1.531   6.491  10.873 -0.5637 -0.1620 -0.3751
14634TIP3    H165393   1.476   6.566  10.851 -1.0696 -0.5022 -0.2810
14634TIP3    H265394   1.473   6.415  10.866 -0.0367 -0.5540 -0.5432
14635TIP3   OH265395   0.051   4.175   6.090 -0.5329 -0.2169  0.0912
14635TIP3    H165396   0.024   4.178   6.182 -0.8897  0.6473 -0.0424
14635TIP3    H265397   0.044   4.265   6.059  1.2299 -0.2033 -0.3288
14636TIP3   OH265398   6.310   5.068  16.369 -0.0688  0.7280 -0.3742
14636TIP3    H165399   6.329   5.097  16.458  0.0805  0.2837 -0.2648
14636TIP3    H265400   6.363   5.126  16.314 -0.6074  1.3929 -0.2057
14637TIP3   OH265401   5.827   5.969  14.758 -0.1475 -0.0790  0.0882
14637TIP3    H165402   5.747   5.998  14.715 -0.7224 -0.3471  0.9773
14637TIP3    H265403   5.827   5.874  14.747  1.1115  0.0866 -1.7334
14638TIP3   OH265404   5.042   2.384  11.393  0.0660 -0.6243 -0.1052
14638TIP3    H165405   4.999   2.382  11.308 -0.8564 -2.7568  0.3816
14638TIP3    H265406   4.975   2.415  11.453  0.6164  0.5528 -0.0864
14639TIP3   OH265407   1.583   3.363  16.237  0.6981 -0.2507  0.2791
14639TIP3    H165408   1.584   3.326  16.149 -1.5797  1.3311 -0.4742
14639TIP3    H265409   1.494   3.346  16.269  0.0883  3.0265  0.5160
14640TIP3   OH265410   6.631   0.116  13.501  0.2954 -0.2059  0.1054
14640TIP3    H165411   6.611   0.030  13.466  1.4224  0.2156 -1.6276
14640TIP3    H265412   6.724   0.112  13.524 -0.1411 -0.1078  2.0201
14641TIP3   OH265413   0.958   0.275   3.800 -0.0084 -0.1256  0.1147
14641TIP3    H165414   1.020   0.215   3.842 -0.3140 -1.1894 -0.9375
14641TIP3    H265415   0.991   0.362   3.822  0.8790 -0.6732  1.0094
14642TIP3   OH265416   4.984   0.710   1.029 -0.3228  0.4906  0.0079
14642TIP3    H165417   4.963   0.617   1.037 -1.0273  0.6504 -0.0052
14642TIP3    H265418   4.938   0.738   0.950 -1.1659  1.1564  0.7312
14643TIP3   OH265419   2.893   1.391  17.268 -1.0349  0.2980  0.9462
14643TIP3    H165420   2.936   1.312  17.300 -1.3744 -0.0019  0.6713
14643TIP3    H265421   2.906   1.455  17.338  0.1911  0.3366  0.6923
14644TIP3   OH265422   1.621   3.535  13.881 -0.5748 -0.0282 -0.6728
14644TIP3    H165423   1.556   3.470  13.907 -0.1105 -0.6597 -1.0790
14644TIP3    H265424   1.671   3.492  13.812  1.3247 -0.1602  0.7362
14645TIP3   OH265425   0.099   1.709  12.508 -0.2718  0.0857 -0.3425
14645TIP3    H165426   0.021   1.666  12.473 -0.0973 -1.2391  0.8488
14645TIP3    H265427   0.147   1.639  12.551  0.8047  1.1953  0.2792
14646TIP3   OH265428   6.693   2.814   6.452 -0.0973  0.0685 -0.2196
14646TIP3    H165429   6.629   2.770   6.396  0.9486 -1.9715  0.1412
14646TIP3    H265430   6.777   2.798   6.410  0.2985  1.7834 -0.0955
14647TIP3   OH265431   3.560   3.029  14.119  0.5960 -0.4768  0.3095
14647TIP3    H165432   3.512   2.947  14.111 -0.6457  0.4321 -1.9609
14647TIP3    H265433   3.648   3.009  14.090  0.3538 -1.0576 -0.0257
14648TIP3   OH265434   2.720   6.541  10.625  0.3168 -0.0321  0.3094
14648TIP3    H165435   2.728   6.446  10.628  1.0310  0.0334  0.5931
14648TIP3    H265436   2.723   6.564  10.532 -1.4332 -0.4172  0.1524
14649TIP3   OH265437   1.844   1.088   4.100  0.3612 -0.1698 -0.2404
14649TIP3    H165438   1.847   1.022   4.169 -2.2548  1.1765  1.2195
14649TIP3    H265439   1.818   1.040   4.021  0.8144 -1.2731  0.2795
14650TIP3   OH265440   4.105   6.591  12.595  0.4614  0.2737 -0.1552
14650TIP3    H165441   4.052   6.572  12.672 -0.4373  0.5749 -0.6948
14650TIP3    H265442   4.116   6.686  12.595  0.1024  0.3177 -0.6298
14651TIP3   OH265443   6.383   6.678   0.861 -0.1078  0.0716 -0.1260
14651TIP3    H165444   6.318   6.607   0.852 -0.3548  0.2914 -0.0783
14651TIP3    H265445   6.433   6.673   0.779 -1.4563  1.1590 -1.0477
14652TIP3   OH265446   5.521   5.518  15.647  0.2172  0.9659 -0.4558
14652TIP3    H165447   5.578   5.573  15.701 -2.1459  0.3178  2.8450
14652TIP3    H265448   5.451   5.577  15.618 -0.1976  0.6083 -0.1900
14653TIP3   OH265449   4.523   1.188  11.326  0.0869  0.6918 -0.3322
14653TIP3    H165450   4.467   1.131  11.379 -1.4769  2.2176 -0.2737
14653TIP3    H265451   4.486   1.183  11.238 -0.1326  1.6657 -0.3056
14654TIP3   OH265452   2.088   3.660  14.728 -0.0659  0.1951 -0.7136
14654TIP3    H165453   2.136   3.642  14.647 -0.4077 -0.4911 -0.7761
14654TIP3    H265454   2.081   3.574  14.771 -0.1795  0.4978 -0.1250
14655TIP3   OH265455   3.307   4.783  13.840 -0.3564  0.0102  0.7724
14655TIP3    H165456   3.385   4.835  13.857  0.4957 -1.2285  0.7391
14655TIP3    H265457   3.336   4.692  13.851 -1.4449 -0.5282 -0.5865
14656TIP3   OH265458   5.859   0.150   4.405 -1.0945 -0.9705 -0.3875
14656TIP3    H165459   5.850   0.103   4.488 -0.2884  0.4636  0.5290
14656TIP3    H265460   5.937   0.112   4.364  0.9318  1.0771  1.4192
14657TIP3   OH265461   6.040   1.665  11.898  0.3432 -0.0003 -0.1165
14657TIP3    H165462   6.058   1.745  11.849  1.1132  0.9262  1.6181
14657TIP3    H265463   6.104   1.666  11.970 -1.2421 -0.9043  1.3546
14658TIP3   OH265464   1.221   0.461  14.277 -0.0625  0.1657 -0.0039
14658TIP3    H165465   1.185   0.522  14.341 -0.6673  0.2081 -0.3802
14658TIP3    H265466   1.191   0.375  14.305 -0.6592  0.2251 -0.4491
14659TIP3   OH265467   3.226   0.737  15.798  0.1641 -0.2667 -0.0796
14659TIP3    H165468   3.136   0.708  15.786  0.5043 -2.4755  2.2666
14659TIP3    H265469   3.279   0.667  15.759  0.9089  0.0239  0.4053
14660TIP3   OH265470   2.886   5.978  12.624  0.1957  0.0096 -0.1218
14660TIP3    H165471   2.918   5.967  12.535  0.2662  0.9003 -0.2128
14660TIP3    H265472   2.813   5.917  12.632 -0.5670  0.7730 -1.1736
14661TIP3   OH265473   3.090   3.890   1.396 -0.8692  0.0058  0.8278
14661TIP3    H165474   3.066   3.957   1.460 -2.3710 -1.4252  1.8081
14661TIP3    H265475   3.017   3.889   1.335 -0.4436 -0.1385  0.3232
14662TIP3   OH265476   5.780   2.444  13.430 -0.1913 -0.0046 -0.3215
14662TIP3    H165477   5.759   2.518  13.486  1.6983  0.3314  0.0029
14662TIP3    H265478   5.871   2.459  13.404 -0.0655 -1.7455 -0.9687
14663TIP3   OH265479   2.301   4.979  14.846  0.5089 -0.3685 -0.2214
14663TIP3    H165480   2.264   5.063  14.818  0.9692 -0.1358 -0.1464
14663TIP3    H265481   2.315   4.931  14.765  3.1815  0.8637 -0.5536
14664TIP3   OH265482   2.906   6.690   1.838  0.2089 -0.1071  0.4208
14664TIP3    H165483   2.975   6.756   1.847 -0.2298  0.5024 -0.5910
14664TIP3    H265484   2.841   6.715   1.903  0.8464 -0.5584  1.2335
14665TIP3   OH265485   1.281   1.926  14.962 -0.6528  0.2224 -0.2451
14665TIP3    H165486   1.331   2.004  14.938  2.1086 -0.6116  2.5210
14665TIP3    H265487   1.341   1.853  14.946 -1.4765 -0.9154  1.6809
14666TIP3   OH265488   6.560   5.008   2.387  0.0205  0.3713 -0.1907
14666TIP3    H165489   6.496   4.990   2.457 -0.0517  0.3952 -0.2504
14666TIP3    H265490   6.581   5.100   2.398  1.6201 -0.1366  1.1324
14667TIP3   OH265491   1.254   5.053   1.240 -0.0466 -0.6724  0.0757
14667TIP3    H165492   1.310   5.129   1.225 -0.1608 -0.6614 -0.2918
14667TIP3    H265493   1.172   5.089   1.274 -0.0516 -0.6435  0.0319
14668TIP3   OH265494   2.699   6.427  11.603 -0.1664 -0.0224 -0.0314
14668TIP3    H165495   2.757   6.352  11.615  0.5816  0.5572  0.0038
14668TIP3    H265496   2.737   6.496  11.658 -1.4810  0.0422  0.8195
14669TIP3   OH265497   3.384   0.204   2.692  0.3933  0.6758  0.6120
14669TIP3    H165498   3.337   0.137   2.642 -0.3110  1.0756  0.7327
14669TIP3    H265499   3.473   0.169   2.702  0.1893  0.0270  0.1693
14670TIP3   OH265500   2.092   0.911   1.040  0.2592 -0.5475  0.2507
14670TIP3    H165501   2.039   0.832   1.054  0.4461 -0.6053  0.6566
14670TIP3    H265502   2.177   0.878   1.013  0.4348 -0.4981  0.7372
14671TIP3   OH265503   3.864   3.128  16.932 -0.2193  0.4141 -0.5628
14671TIP3    H165504   3.789   3.072  16.952 -1.0756  2.2604  1.6572
14671TIP3    H265505   3.832   3.184  16.861 -0.6108  0.5337 -0.2973
14672TIP3   OH265506   5.656   5.354   4.917 -0.3176  0.0711 -0.4960
14672TIP3    H165507   5.744   5.387   4.901 -0.2530  1.2694  2.1450
14672TIP3    H265508   5.670   5.271   4.963 -0.5727  0.8590  1.0117
14673TIP3   OH265509   6.595   4.108  14.995  1.3024  0.0406 -0.0415
14673TIP3    H165510   6.524   4.171  15.010  1.2201 -0.6274  2.6775
14673TIP3    H265511   6.602   4.102  14.900 -1.2739  1.2665 -0.3601
14674TIP3   OH265512   4.190   6.287  13.056 -0.8013 -0.4349  0.4278
14674TIP3    H165513   4.161   6.368  13.097 -0.2301 -0.4464  0.8597
14674TIP3    H265514   4.285   6.287  13.067 -0.5431 -0.0950 -1.4894
14675TIP3   OH265515   0.512   5.164  13.685  0.1170  0.1600  0.0930
14675TIP3    H165516   0.536   5.152  13.777 -2.1269  1.8283  0.9222
14675TIP3    H265517   0.431   5.115  13.674  1.8285 -2.3941 -1.7755
14676TIP3   OH265518   3.392   4.074   6.248 -0.2649  0.2737 -0.5705
14676TIP3    H165519   3.485   4.097   6.248 -0.2689  0.3540  1.1276
14676TIP3    H265520   3.362   4.093   6.337 -1.0980 -3.0147 -0.0725
14677TIP3   OH265521   1.800   1.814   0.833 -0.3041  0.3314  0.2205
14677TIP3    H165522   1.737   1.831   0.763 -0.7187  0.9986  0.7490
14677TIP3    H265523   1.850   1.738   0.803 -0.5128  0.5804 -0.7773
14678TIP3   OH265524   4.831   4.753   3.454 -0.2117  0.6038 -0.0079
14678TIP3    H165525   4.796   4.806   3.526 -0.3371  0.7563 -0.1811
14678TIP3    H265526   4.876   4.816   3.398 -1.0241  0.6360 -0.6197
14679TIP3   OH265527   4.459   3.954   5.625 -0.0777  0.2077 -0.1059
14679TIP3    H165528   4.427   4.002   5.548 -0.2087  0.4454  0.0942
14679TIP3    H265529   4.460   4.020   5.695  1.3297  0.3215 -0.2267
14680TIP3   OH265530   5.183   2.544  15.981 -0.1740 -0.6836 -0.3505
14680TIP3    H165531   5.215   2.634  15.977  1.8792 -1.3814  0.0156
14680TIP3    H265532   5.169   2.520  15.890 -0.8698  0.0389 -0.4469
14681TIP3   OH265533   5.086   4.982   2.112 -0.4840 -0.2906 -0.2477
14681TIP3    H165534   5.043   4.977   2.026 -0.7284 -3.7425  0.0210
14681TIP3    H265535   5.169   5.025   2.094 -0.2947 -1.4505 -2.3504
14682TIP3   OH265536   4.368   3.230  15.395  0.1057 -0.5956 -0.6980
14682TIP3    H165537   4.403   3.160  15.339  2.0868  1.3890 -2.0438
14682TIP3    H265538   4.442   3.259  15.447 -0.7673  0.3309  0.0530
14683TIP3   OH265539   3.772   1.720   4.446 -0.0950  0.2055 -0.4614
14683TIP3    H165540   3.729   1.707   4.531  0.6513  2.4180  0.2923
14683TIP3    H265541   3.700   1.731   4.384 -0.6434 -1.2766 -0.1146
14684TIP3   OH265542   2.364   0.810  12.961  0.5368  0.1441 -0.4811
14684TIP3    H165543   2.296   0.812  13.028 -0.7615 -0.2494 -1.7621
14684TIP3    H265544   2.406   0.725  12.972 -0.8145 -0.6364 -1.2658
14685TIP3   OH265545   0.922   3.789   5.208 -0.1087  0.3529 -0.6323
14685TIP3    H165546   0.873   3.853   5.261  0.5320  0.0106  0.3971
14685TIP3    H265547   0.856   3.750   5.151 -0.8028  0.8032 -0.1493
14686TIP3   OH265548   4.422   0.118   2.715  0.6279 -0.2414 -0.5603
14686TIP3    H165549   4.392   0.121   2.806  0.8702  1.1045 -0.5135
14686TIP3    H265550   4.371   0.186   2.671 -0.4034 -1.7235 -1.7271
14687TIP3   OH265551   3.436   1.141   1.934  0.2519  0.5877  0.0931
14687TIP3    H165552   3.497   1.123   1.863  1.4307  0.6882  1.0663
14687TIP3    H265553   3.368   1.074   1.925  0.5080  0.4706 -0.9905
14688TIP3   OH265554   4.367   3.419   2.831  0.4700  0.6067  0.1462
14688TIP3    H165555   4.350   3.464   2.914  1.6703  1.8305 -0.2475
14688TIP3    H265556   4.281   3.416   2.788 -0.2709 -0.5685  1.6730
14689TIP3   OH265557   0.890   3.690  12.183 -0.1391 -0.1567 -0.3335
14689TIP3    H165558   0.896   3.700  12.088  2.9561 -0.9059 -0.2572
14689TIP3    H265559   0.858   3.600  12.195 -1.1379  0.1458 -0.6526
14690TIP3   OH265560   1.062   0.664  15.428  0.2154  0.0896 -0.1348
14690TIP3    H165561   0.999   0.731  15.455 -1.0638 -0.8551 -0.7172
14690TIP3    H265562   1.131   0.668  15.494 -0.1977  1.5021  0.2193
14691TIP3   OH265563   3.438   2.626   3.352  0.4694  0.4354 -0.5368
14691TIP3    H165564   3.444   2.712   3.310  2.6430 -0.2522 -1.6764
14691TIP3    H265565   3.509   2.626   3.416 -0.8257  0.2581  0.9375
14692TIP3   OH265566   2.557   6.435   2.811 -0.2985  0.0016 -0.8529
14692TIP3    H165567   2.469   6.411   2.840 -0.0472 -0.3497 -0.3845
14692TIP3    H265568   2.542   6.488   2.732 -0.8905 -0.9448 -1.3886
14693TIP3   OH265569   0.638   3.907  13.044 -0.0582 -0.0840  0.3689
14693TIP3    H165570   0.554   3.915  12.999  0.4502 -0.1702 -0.5982
14693TIP3    H265571   0.666   3.817  13.026  1.1613  0.5327 -0.9528
14694TIP3   OH265572   0.131   3.152  15.285 -0.8562 -0.5451 -0.2412
14694TIP3    H165573   0.092   3.198  15.211 -1.6219 -1.4649 -0.4179
14694TIP3    H265574   0.127   3.215  15.357 -1.2262 -0.0860 -0.6634
14695TIP3   OH265575   0.937   5.497  13.392  0.2621  0.0956 -0.3544
14695TIP3    H165576   0.939   5.478  13.486  0.5940  0.7898 -0.2144
14695TIP3    H265577   0.923   5.592  13.387 -1.2741 -0.1525 -1.0320
14696TIP3   OH265578   3.320   1.854   4.488  0.2168  0.4852 -0.3108
14696TIP3    H165579   3.299   1.836   4.580 -1.9279  0.9375 -0.6817
14696TIP3    H265580   3.392   1.917   4.492  2.4296 -1.9912  1.0099
14697TIP3   OH265581   4.466   6.536   4.217  0.9236  0.0290  0.0666
14697TIP3    H165582   4.504   6.538   4.130  0.4248 -1.1469 -0.1945
14697TIP3    H265583   4.447   6.443   4.233  1.5924  0.1448  1.6811
14698TIP3   OH265584   4.307   0.750   5.263 -0.7796  0.2204 -0.8037
14698TIP3    H165585   4.223   0.732   5.305  0.2974  0.2801  1.4718
14698TIP3    H265586   4.321   0.844   5.277  0.2762 -0.0449  0.0805
14699TIP3   OH265587   0.533   2.264  14.683  0.1451 -0.2864 -0.1530
14699TIP3    H165588   0.607   2.299  14.732 -0.4458 -0.4567  0.8561
14699TIP3    H265589   0.544   2.169  14.689  1.6511 -0.3341 -2.7407
14700TIP3   OH265590   6.157   0.978  11.534 -0.2050  0.1400 -0.2102
14700TIP3    H165591   6.248   1.001  11.554 -0.2156  1.1870 -1.3017
14700TIP3    H265592   6.125   0.935  11.613  0.9348  0.6810  0.5567
14701TIP3   OH265593   1.303   5.829   5.713 -0.2028 -0.1933  0.8833
14701TIP3    H165594   1.360   5.803   5.785 -0.7317  2.4037  2.3088
14701TIP3    H265595   1.291   5.924   5.725 -2.2580 -0.1370 -1.2073
14702TIP3   OH265596   5.298   6.396  11.693 -0.1533  0.5244  0.7313
14702TIP3    H165597   5.372   6.374  11.636 -0.7125  1.2953 -0.3225
14702TIP3    H265598   5.228   6.338  11.665  0.4904 -1.3072  2.7945
14703TIP3   OH265599   1.071   0.923  15.802  0.4731 -0.7784  0.3349
14703TIP3    H165600   0.987   0.877  15.811 -0.0179  0.3257  1.6202
14703TIP3    H265601   1.087   0.925  15.708 -1.3904 -0.2626  0.0008
14704TIP3   OH265602   0.648   6.266   3.339 -0.3921 -0.0193 -0.6099
14704TIP3    H165603   0.688   6.191   3.295  0.3121  1.1939 -2.0803
14704TIP3    H265604   0.616   6.321   3.268  0.1948  1.6710  0.4163
14705TIP3   OH265605   4.243   1.998   5.113 -0.2421  0.3505 -0.0795
14705TIP3    H165606   4.168   2.028   5.164  0.8546 -0.6870  2.1784
14705TIP3    H265607   4.319   2.034   5.159  0.7084  0.8808 -1.9947
14706TIP3   OH265608   4.860   0.368   2.307  0.2931  0.4725  0.4909
14706TIP3    H165609   4.790   0.423   2.343  0.1439  0.0782  0.8011
14706TIP3    H265610   4.836   0.279   2.332  0.9206  0.3380  0.6243
14707TIP3   OH265611   0.520   4.398   6.443  0.4161 -0.0433  0.3494
14707TIP3    H165612   0.586   4.361   6.502 -0.3243 -0.3700  0.9862
14707TIP3    H265613   0.570   4.442   6.375  1.2929 -1.2543  0.2107
14708TIP3   OH265614   5.490   5.473   2.162  0.3098  0.2153 -0.1225
14708TIP3    H165615   5.579   5.509   2.161 -0.5437  2.3690 -1.3653
14708TIP3    H265616   5.463   5.472   2.070 -1.4795  0.9338  0.3754
14709TIP3   OH265617   6.065   2.176   2.869 -0.0151 -0.2202 -0.2115
14709TIP3    H165618   5.979   2.204   2.837 -1.2387 -2.9573  0.5321
14709TIP3    H265619   6.060   2.187   2.964  0.9245  0.7843 -0.2684
14710TIP3   OH265620   3.859   4.336  10.845 -0.3025 -0.7164  0.1334
14710TIP3    H165621   3.937   4.351  10.898 -0.0283 -1.2547 -0.1171
14710TIP3    H265622   3.889   4.282  10.772 -0.4751  0.8308 -1.1131
14711TIP3   OH265623   2.471   0.129  16.380  0.2322  0.1456  0.6719
14711TIP3    H165624   2.463   0.199  16.315 -1.0032 -0.1268  0.5304
14711TIP3    H265625   2.417   0.159  16.454  0.0050 -0.4832  0.7595
14712TIP3   OH265626   0.362   2.065   2.306 -0.3316  0.2362 -0.3330
14712TIP3    H165627   0.341   2.096   2.218 -1.1918 -0.7035 -0.4729
14712TIP3    H265628   0.396   1.976   2.293  1.1977  0.7381  0.1392
14713TIP3   OH265629   1.136   4.449  15.925 -0.6240  0.3068  0.4611
14713TIP3    H165630   1.122   4.523  15.983 -0.8424  0.7990 -0.2109
14713TIP3    H265631   1.054   4.399  15.928 -0.2072 -0.3253  1.4992
14714TIP3   OH265632   2.040   3.345   3.922  0.2515  0.1462  0.1500
14714TIP3    H165633   1.993   3.292   3.857 -0.1397  0.1565  0.4202
14714TIP3    H265634   2.098   3.401   3.870 -0.8897  0.9782 -0.2644
14715TIP3   OH265635   1.498   3.382   0.669  0.1441 -0.4712 -0.6681
14715TIP3    H165636   1.490   3.330   0.749 -0.2877 -0.2095 -0.5400
14715TIP3    H265637   1.461   3.467   0.692  4.1131  1.1159  0.2587
14716TIP3   OH265638   4.808   2.662  14.318 -0.4344 -0.4019 -0.2820
14716TIP3    H165639   4.722   2.647  14.277 -0.8331  1.0953 -0.0077
14716TIP3    H265640   4.871   2.651  14.247 -0.9872  0.2913 -0.8825
14717TIP3   OH265641   5.956   2.026  13.291  0.3340 -0.4680 -0.2883
14717TIP3    H165642   5.984   2.037  13.200 -0.3581  0.6534 -0.3606
14717TIP3    H265643   5.893   1.954  13.288 -2.5964  2.0320 -1.3014
14718TIP3   OH265644   1.667   5.491  16.433  0.2577 -0.8533  0.3068
14718TIP3    H165645   1.737   5.550  16.404 -0.2977 -0.5713 -0.4745
14718TIP3    H265646   1.693   5.406  16.399 -0.4590 -0.4981 -1.1587
14719TIP3   OH265647   4.486   4.698   6.279  0.0589  0.7163  0.1506
14719TIP3    H165648   4.429   4.701   6.201 -2.7848 -0.2377  2.1263
14719TIP3    H265649   4.464   4.615   6.321  0.5721  1.8389  2.6962
14720TIP3   OH265650   2.962   0.195  10.207  0.1731  0.0811 -0.1344
14720TIP3    H165651   3.028   0.145  10.255  0.0376 -1.3636 -1.4204
14720TIP3    H265652   2.922   0.251  10.273  1.6517 -0.1208  0.9541
14721TIP3   OH265653   6.275   6.609  14.486 -0.4563 -0.8748  1.3659
14721TIP3    H165654   6.279   6.534  14.546 -0.6562  0.7401  3.4483
14721TIP3    H265655   6.358   6.655  14.500  0.9799 -2.2505 -2.0572
14722TIP3   OH265656   4.023   2.758   3.348 -0.3305 -0.7994 -0.9113
14722TIP3    H165657   3.993   2.849   3.339 -0.3410 -0.7460 -0.3309
14722TIP3    H265658   3.963   2.719   3.411 -0.4930 -1.2897 -1.3588
14723TIP3   OH265659   5.514   5.892  10.428  0.1830  0.6277  0.2444
14723TIP3    H165660   5.521   5.804  10.465  0.5709  0.6810  0.3014
14723TIP3    H265661   5.440   5.887  10.368  0.3079  0.2172  0.1241
14724TIP3   OH265662   6.022   4.792   3.381  0.5339  0.4822 -0.4375
14724TIP3    H165663   6.087   4.752   3.438  0.8414 -0.0436 -1.1529
14724TIP3    H265664   6.018   4.883   3.410  2.4270  0.8154 -1.1180
14725TIP3   OH265665   4.580   0.646  15.162 -0.1411  0.5697 -0.1016
14725TIP3    H165666   4.542   0.589  15.095 -3.2849  1.0315  1.1980
14725TIP3    H265667   4.581   0.733  15.121  1.3788  0.2165 -0.8341
14726TIP3   OH265668   2.240   5.542   1.353 -0.0271 -0.4255 -0.3321
14726TIP3    H165669   2.146   5.558   1.345 -0.0073 -1.2073 -2.5538
14726TIP3    H265670   2.246   5.451   1.382  0.0508 -0.3358 -0.0632
14727TIP3   OH265671   2.295   1.823  15.908 -0.5238  0.8416 -0.3122
14727TIP3    H165672   2.378   1.828  15.955 -1.9473  1.8337  2.2056
14727TIP3    H265673   2.235   1.780  15.969 -1.7087 -0.4778 -2.3401
14728TIP3   OH265674   3.915   0.845   5.058  0.0855 -0.0613 -0.6891
14728TIP3    H165675   3.858   0.846   4.981 -0.3106 -1.7090 -0.4491
14728TIP3    H265676   3.935   0.752   5.071  1.2807  0.3321  0.3662
14729TIP3   OH265677   2.122   4.880  16.172  0.3471  0.2952 -0.3022
14729TIP3    H165678   2.154   4.875  16.263 -0.0690  1.0874 -0.1148
14729TIP3    H265679   2.165   4.957  16.136  1.0860 -0.4418 -1.0111
14730TIP3   OH265680   3.876   1.397   1.770  0.0402  0.1904 -0.4056
14730TIP3    H165681   3.965   1.388   1.736  0.7656 -0.9964  1.7086
14730TIP3    H265682   3.841   1.308   1.768 -0.6506  0.4517 -0.0189
14731TIP3   OH265683   6.518   1.294  17.014 -0.4339 -0.5799  0.4501
14731TIP3    H165684   6.533   1.324  17.104 -3.1501  0.6565  0.5460
14731TIP3    H265685   6.597   1.318  16.967  1.6240 -2.5035  2.8021
14732TIP3   OH265686   5.332   1.898   5.260  0.1887  0.3621 -0.2163
14732TIP3    H165687   5.276   1.820   5.260 -2.3546  2.1191  1.0614
14732TIP3    H265688   5.377   1.895   5.176 -3.1338 -0.2162 -2.0892
14733TIP3   OH265689   4.417   2.824  16.163  0.1114 -0.3449  0.3525
14733TIP3    H165690   4.495   2.788  16.120 -0.1793 -0.4709 -0.0770
14733TIP3    H265691   4.379   2.750  16.210 -0.0897 -0.4372  0.0532
14734TIP3   OH265692   1.131   4.794   6.033  0.1303 -0.6436 -0.0932
14734TIP3    H165693   1.048   4.759   6.000  0.3080  1.0486 -2.4395
14734TIP3    H265694   1.195   4.726   6.014 -0.0774 -0.3999 -1.7058
14735TIP3   OH265695   6.651   6.632  16.398 -0.1177  0.4839  0.4958
14735TIP3    H165696   6.580   6.568  16.395  1.7851 -1.8767  3.5114
14735TIP3    H265697   6.644   6.672  16.484  1.1995  1.4317  0.1832
14736TIP3   OH265698   6.738   0.931  15.103  0.5120  0.3228  0.1857
14736TIP3    H165699   6.811   0.923  15.164  0.1904 -0.4423  0.4878
14736TIP3    H265700   6.686   0.851  15.117  0.0058  0.5145 -0.5236
14737TIP3   OH265701   5.454   2.786  16.332  0.2660  1.0166  0.0095
14737TIP3    H165702   5.525   2.848  16.348  1.6869  0.1396 -2.5729
14737TIP3    H265703   5.483   2.705  16.373  0.1771  0.9895  0.0197
14738TIP3   OH265704   0.020   1.819  11.435  0.3625 -0.0678  0.0222
14738TIP3    H165705  -0.033   1.791  11.509  0.0126 -0.6712 -0.4504
14738TIP3    H265706   0.111   1.813  11.466  0.1350  1.9376  1.1628
14739TIP3   OH265707   5.828   5.762   3.952 -0.5568 -0.2940  0.9869
14739TIP3    H165708   5.887   5.827   3.914  2.0155 -4.5005 -2.7352
14739TIP3    H265709   5.882   5.712   4.013 -1.7974 -0.5492  1.8986
14740TIP3   OH265710   1.058   2.271   3.398 -0.2480 -0.1131  0.2187
14740TIP3    H165711   1.006   2.194   3.376  0.6135 -0.1575 -1.7844
14740TIP3    H265712   1.024   2.300   3.482 -2.7388 -0.8086 -0.5118
14741TIP3   OH265713   3.127   0.005  16.677 -0.1841  0.1089 -0.3243
14741TIP3    H165714   3.058  -0.061  16.671 -0.1547 -0.2731  3.0108
14741TIP3    H265715   3.207  -0.046  16.691  0.1546  0.7585  0.1067
14742TIP3   OH265716   5.651   2.128   2.308  0.1952  0.5541 -0.2832
14742TIP3    H165717   5.660   2.132   2.213 -0.3590  1.1185 -0.3174
14742TIP3    H265718   5.740   2.125   2.341  0.3856  0.0012 -0.8369
14743TIP3   OH265719   3.416   2.407   5.417  0.1614 -0.5396 -0.9232
14743TIP3    H165720   3.374   2.426   5.501  1.2051 -0.6934 -0.3592
14743TIP3    H265721   3.433   2.313   5.419  0.2400 -0.5360 -1.2818
14744TIP3   OH265722   4.667   3.248   3.671  0.0531  0.4098  0.1632
14744TIP3    H165723   4.675   3.245   3.575 -1.8092  0.0591 -0.0035
14744TIP3    H265724   4.585   3.296   3.686  1.9732  3.4111  1.6569
14745TIP3   OH265725   4.467   5.764   4.553  0.4648  0.0559 -0.1919
14745TIP3    H165726   4.433   5.740   4.639  1.9366  0.4295  0.5181
14745TIP3    H265727   4.469   5.682   4.505  0.8508 -0.4016  0.5792
14746TIP3   OH265728   4.005   3.581   6.693  0.4905 -0.0656 -0.2167
14746TIP3    H165729   4.018   3.546   6.605 -0.0711  0.3050 -0.4505
14746TIP3    H265730   4.019   3.676   6.683  1.9709 -0.2074  0.3967
14747TIP3   OH265731   3.300   4.851   1.418 -0.6163 -0.2186 -0.3741
14747TIP3    H165732   3.289   4.863   1.512  0.0835  0.9192 -0.4247
14747TIP3    H265733   3.228   4.900   1.378 -0.4226  0.0111 -0.4475
14748TIP3   OH265734   3.167   6.777   3.330 -0.0147  0.1143 -0.1051
14748TIP3    H165735   3.073   6.761   3.338  0.0607 -0.2370  0.1003
14748TIP3    H265736   3.204   6.744   3.412  0.6249 -2.4525 -1.3785
14749TIP3   OH265737   2.704   4.052  12.325 -0.3566  0.0014 -0.0131
14749TIP3    H165738   2.724   3.968  12.284  0.9237 -0.1065  0.8006
14749TIP3    H265739   2.711   4.116  12.254 -0.6459 -0.4801 -0.4822
14750TIP3   OH265740   4.215   5.705  11.455  0.0246  0.1817 -0.3857
14750TIP3    H165741   4.158   5.691  11.531  1.6448  1.7351  1.1415
14750TIP3    H265742   4.244   5.795  11.462 -0.7249  0.7474 -3.5412
14751TIP3   OH265743   2.743   3.333  15.256  0.1943  0.6376 -0.7671
14751TIP3    H165744   2.652   3.315  15.278  0.5950 -0.5970 -0.0970
14751TIP3    H265745   2.749   3.315  15.162 -0.1178  0.1572 -0.6973
14752TIP3   OH265746   2.312   5.836   0.996  0.3243 -0.0032 -0.1497
14752TIP3    H165747   2.343   5.852   1.085 -2.3552 -0.6184  0.9110
14752TIP3    H265748   2.379   5.778   0.958  1.6416  0.4989  1.3380
14753TIP3   OH265749   2.784   3.713   0.818  0.2589 -0.4966 -0.0491
14753TIP3    H165750   2.853   3.726   0.883 -1.0203  0.6699  1.1073
14753TIP3    H265751   2.791   3.620   0.794  0.5427 -1.0427  2.0225
14754TIP3   OH265752   3.881   1.989  11.412  0.2600 -0.0399  0.4940
14754TIP3    H165753   3.938   1.917  11.439  0.8976 -0.1078 -0.9476
14754TIP3    H265754   3.941   2.058  11.384 -0.3597  0.3768  0.1779
14755TIP3   OH265755   1.180   4.507   5.956  0.3088  0.7201  1.0389
14755TIP3    H165756   1.109   4.448   5.929 -0.2888  1.2617  1.3847
14755TIP3    H265757   1.174   4.508   6.052  1.5365 -0.1348  1.1322
14756TIP3   OH265758   3.829   2.937   5.825 -0.2254 -0.6983 -0.1301
14756TIP3    H165759   3.796   2.923   5.914 -0.9798 -0.3340 -0.3501
14756TIP3    H265760   3.778   2.877   5.771 -2.0482  1.3693 -0.7848
14757TIP3   OH265761   3.742   1.551  13.475 -0.4811  0.4155  0.0082
14757TIP3    H165762   3.803   1.604  13.424 -0.5054 -0.7204 -1.2522
14757TIP3    H265763   3.661   1.601  13.474 -0.5048  0.3799 -1.1703
14758TIP3   OH265764   3.177   4.423  16.005 -0.5167 -0.1526 -0.1596
14758TIP3    H165765   3.112   4.364  16.042 -0.0198 -1.1869 -0.9213
14758TIP3    H265766   3.235   4.444  16.079 -1.4046  0.3710  0.3966
14759TIP3   OH265767   0.623   3.800  14.347  0.5611 -0.2152  0.6980
14759TIP3    H165768   0.570   3.800  14.267 -0.2818  0.1555  1.2429
14759TIP3    H265769   0.586   3.871  14.399  2.7052  1.2063  0.3637
14760TIP3   OH265770   1.414   3.778  17.041 -0.5025 -0.4332  0.3829
14760TIP3    H165771   1.496   3.730  17.056  0.4614  0.3912 -1.9517
14760TIP3    H265772   1.347   3.725  17.084  0.8374 -2.6956 -0.2310
14761TIP3   OH265773   5.018   1.940  14.481 -0.1565  0.4318 -0.2924
14761TIP3    H165774   5.004   1.956  14.575 -1.9423 -2.0957 -0.0775
14761TIP3    H265775   5.089   1.876  14.478  0.5810  1.2647 -0.7247
14762TIP3   OH265776   1.534   2.713   5.049 -0.1634  0.7053 -0.3178
14762TIP3    H165777   1.440   2.725   5.037 -0.2957 -0.6388 -0.7138
14762TIP3    H265778   1.542   2.639   5.109  0.6381 -0.3510 -1.6741
14763TIP3   OH265779   2.711   6.247   5.261  0.4402 -0.3543  0.0921
14763TIP3    H165780   2.644   6.184   5.234 -0.2465  0.8806 -1.1621
14763TIP3    H265781   2.783   6.234   5.200  0.9681 -1.0152  0.8403
14764TIP3   OH265782   4.819   6.319   0.150 -0.7244 -0.1706  0.0510
14764TIP3    H165783   4.771   6.376   0.089  1.4592  1.4125 -0.2638
14764TIP3    H265784   4.894   6.372   0.177  1.1974 -2.7958  0.0088
14765TIP3   OH265785   0.043   4.028   5.823 -0.4045 -0.1134 -0.2659
14765TIP3    H165786  -0.025   4.046   5.757 -1.4991  1.1852  1.1883
14765TIP3    H265787   0.004   4.056   5.906  1.9895  0.8514  0.5794
14766TIP3   OH265788   0.879   2.093  11.181 -0.7537  0.5906 -0.4909
14766TIP3    H165789   0.824   2.170  11.170 -3.8087 -1.2295  1.4934
14766TIP3    H265790   0.846   2.031  11.116  0.0238  0.0428 -0.3686
14767TIP3   OH265791   5.990   6.098   1.321  0.1433  0.1612 -0.3491
14767TIP3    H165792   5.955   6.174   1.369  0.8011 -1.4230  2.7917
14767TIP3    H265793   6.064   6.133   1.271  0.9270  1.4668  1.6635
14768TIP3   OH265794   2.709   3.622  15.261 -0.5887 -0.4550 -0.1134
14768TIP3    H165795   2.719   3.625  15.356  1.4945  1.6506 -0.3662
14768TIP3    H265796   2.681   3.532  15.242 -1.0136 -0.8911  2.4674
14769TIP3   OH265797   0.222   2.878  14.629  0.7496  0.2359  0.1725
14769TIP3    H165798   0.232   2.830  14.711  1.3444 -1.2071 -0.7279
14769TIP3    H265799   0.272   2.959  14.642 -1.3921  1.2912  2.1951
14770TIP3   OH265800   3.714   2.251  11.359 -0.4751 -0.3721 -0.0539
14770TIP3    H165801   3.743   2.186  11.295  1.6009  1.0668 -0.6360
14770TIP3    H265802   3.733   2.211  11.444  0.1766 -0.7974 -0.3967
14771TIP3   OH265803   3.738   0.942   1.189  0.6342  0.1769  0.5449
14771TIP3    H165804   3.656   0.958   1.234 -0.0561  0.1040 -0.6591
14771TIP3    H265805   3.757   0.850   1.205  0.0294 -0.0255  0.1098
14772TIP3   OH265806   2.015   0.071   2.762  0.7224 -0.3840 -0.4981
14772TIP3    H165807   1.970   0.155   2.753 -0.5592 -0.7789  1.8159
14772TIP3    H265808   2.096   0.091   2.808  0.4513 -0.4200 -0.0104
14773TIP3   OH265809   3.275   6.315  12.135  0.0939 -0.2850  0.5621
14773TIP3    H165810   3.298   6.251  12.202  0.5561 -0.9012 -0.1687
14773TIP3    H265811   3.213   6.268  12.078 -0.5501  0.3377  0.7444
14774TIP3   OH265812   6.805   3.790   5.489 -0.2807 -0.1425 -0.4507
14774TIP3    H165813   6.857   3.762   5.565  0.0046 -1.4079 -1.0905
14774TIP3    H265814   6.732   3.839   5.526  0.1464 -0.2948  0.6095
14775TIP3   OH265815   2.034   0.201   1.802 -0.3884 -0.2384 -0.0140
14775TIP3    H165816   2.034   0.121   1.749  0.5894  0.5740 -1.2624
14775TIP3    H265817   2.001   0.269   1.743  0.4289  0.6183  0.5099
14776TIP3   OH265818   6.714   6.205  11.392  0.4519 -0.1431  0.2171
14776TIP3    H165819   6.666   6.126  11.371  1.2077 -1.4721  3.3040
14776TIP3    H265820   6.756   6.230  11.310  1.8815 -4.1255 -0.3604
14777TIP3   OH265821   4.178   1.082   0.973  0.6170  0.4773  0.1794
14777TIP3    H165822   4.110   1.145   0.949  0.5822  0.2029 -0.4414
14777TIP3    H265823   4.256   1.111   0.925  0.6126  0.0678 -0.0688
14778TIP3   OH265824   3.680   0.724   5.372 -0.0803 -0.1719 -0.4636
14778TIP3    H165825   3.691   0.785   5.445  0.7238 -0.1052 -0.6443
14778TIP3    H265826   3.618   0.768   5.314 -0.3437 -0.0086 -0.0683
14779TIP3   OH265827   4.680   1.758   3.133  0.6301  0.1472  0.2855
14779TIP3    H165828   4.699   1.838   3.181 -1.1170  1.3272 -0.9306
14779TIP3    H265829   4.765   1.731   3.096  1.3657  0.9760  1.3343
14780TIP3   OH265830   5.277   0.530   3.559 -0.0299  1.0250 -0.1130
14780TIP3    H165831   5.225   0.585   3.501 -0.8357  1.6389  1.1894
14780TIP3    H265832   5.360   0.576   3.568 -0.2343  1.3818 -0.0610
14781TIP3   OH265833   0.135   2.303  12.284 -0.0601  0.0144 -0.2626
14781TIP3    H165834   0.061   2.337  12.234 -0.8860  0.0489  0.9586
14781TIP3    H265835   0.184   2.381  12.310  1.3996 -0.1064 -2.5527
14782TIP3   OH265836   0.030   1.664  12.114  0.2110 -0.6836 -0.0408
14782TIP3    H165837   0.093   1.735  12.107  2.2315 -2.3185  1.0840
14782TIP3    H265838  -0.028   1.676  12.039  1.2122  1.4564 -0.5104
14783TIP3   OH265839   1.064   0.762  11.329 -0.9483 -0.5685 -0.2457
14783TIP3    H165840   1.087   0.675  11.361 -1.1088  0.1324  1.8415
14783TIP3    H265841   1.128   0.779  11.260 -0.9011 -2.3279 -0.6674
14784TIP3   OH265842   1.948   5.033  14.859 -0.1182 -0.6473  0.4708
14784TIP3    H165843   1.984   5.029  14.770  0.0448 -0.0904  0.5085
14784TIP3    H265844   1.867   4.983  14.854 -1.0341  0.8943 -0.4462
14785TIP3   OH265845   4.181   2.842  11.510  0.5235 -0.0264 -0.3476
14785TIP3    H165846   4.133   2.760  11.497 -2.0075  1.5684 -1.4698
14785TIP3    H265847   4.195   2.847  11.604  0.9939 -1.8728 -0.2943
14786TIP3   OH265848   4.005   6.161   3.250 -0.0596  0.3633  0.4979
14786TIP3    H165849   3.964   6.164   3.337 -0.1130 -0.7528  0.5208
14786TIP3    H265850   3.968   6.082   3.209  0.5858  0.4291 -0.2205
14787TIP3   OH265851   0.046   4.725   3.424  0.4365 -0.5975  0.4659
14787TIP3    H165852  -0.043   4.729   3.460  0.7954 -1.6988  1.4861
14787TIP3    H265853   0.075   4.636   3.441  1.5985 -0.3628 -0.2337
14788TIP3   OH265854   6.369   6.431  15.251  0.2888 -0.0123  0.4229
14788TIP3    H165855   6.457   6.424  15.214  0.2257  0.2011  0.2333
14788TIP3    H265856   6.317   6.371  15.197 -0.2000  1.7006 -1.0421
14789TIP3   OH265857   2.349   4.014   0.652  0.4780 -0.1539  0.1767
14789TIP3    H165858   2.356   4.079   0.582 -0.0227  0.9603  1.1323
14789TIP3    H265859   2.337   4.067   0.732 -0.6147 -1.4407  0.8812
14790TIP3   OH265860   0.741   1.620   0.159  0.1730 -0.2238 -0.3238
14790TIP3    H165861   0.784   1.591   0.079  0.9974 -1.1866  0.4676
14790TIP3    H265862   0.786   1.701   0.182 -0.7892  0.6488 -1.4157
14791TIP3   OH265863   6.057   0.053   0.458  0.6160 -0.0662  0.3241
14791TIP3    H165864   6.073  -0.039   0.437  1.4614  0.3499 -0.8987
14791TIP3    H265865   6.043   0.053   0.553 -1.1207 -1.6740  0.1035
14792TIP3   OH265866   5.582   5.837  14.423  0.3075 -0.3116 -0.6720
14792TIP3    H165867   5.601   5.899  14.352 -2.7266  0.2734 -1.0683
14792TIP3    H265868   5.572   5.892  14.501  0.1376 -0.5831 -0.5009
14793TIP3   OH265869   0.630   2.560   3.578  0.6374  0.0473 -0.4286
14793TIP3    H165870   0.630   2.543   3.672 -0.3464  0.2982 -0.3832
14793TIP3    H265871   0.720   2.586   3.559  1.4974 -2.4846 -0.0178
14794TIP3   OH265872   0.607   2.783  12.421  0.6823  0.6972 -0.0836
14794TIP3    H165873   0.583   2.690  12.424  2.8424  0.1184  0.0591
14794TIP3    H265874   0.687   2.786  12.369  0.1730  2.5992 -0.8046
14795TIP3   OH265875   3.944   2.969  15.401 -0.5048 -0.0235 -0.2608
14795TIP3    H165876   4.028   3.014  15.414 -1.1925  0.8391  1.3526
14795TIP3    H265877   3.915   2.945  15.489 -1.6969 -0.8036 -0.8444
14796TIP3   OH265878   6.159   6.209   0.505  0.0762 -0.7653  0.6536
14796TIP3    H165879   6.151   6.143   0.436 -0.1111  0.2258 -0.2854
14796TIP3    H265880   6.076   6.255   0.503  0.2211 -0.4782  1.2875
14797TIP3   OH265881   1.316   3.021   1.582  0.4282 -0.4551 -0.7688
14797TIP3    H165882   1.240   3.066   1.545  0.6267  0.7585  0.2709
14797TIP3    H265883   1.389   3.082   1.567  0.8866 -0.8621 -0.2273
14798TIP3   OH265884   4.900   2.425  14.968 -0.0125  0.5737  0.2993
14798TIP3    H165885   4.986   2.401  15.002  0.9576  0.4309 -2.1505
14798TIP3    H265886   4.842   2.354  14.998  0.9840 -0.0348  0.8255
14799TIP3   OH265887   3.189   5.662   6.539 -0.5337  0.0780  0.2764
14799TIP3    H165888   3.101   5.667   6.504 -0.6542 -2.2405  0.2019
14799TIP3    H265889   3.177   5.634   6.630  0.0109  2.0016  0.9643
14800TIP3   OH265890   5.212   0.828   0.476 -0.6452  0.0193  0.0201
14800TIP3    H165891   5.235   0.793   0.390 -1.6148 -1.8476  0.4897
14800TIP3    H265892   5.166   0.910   0.457 -1.1504 -0.5494 -1.2702
14801TIP3   OH265893   0.298   5.673   3.241  0.4216  0.0999 -0.1199
14801TIP3    H165894   0.318   5.764   3.221 -1.1736  0.7364  1.0997
14801TIP3    H265895   0.361   5.650   3.310 -0.6142  0.9863  1.1549
14802TIP3   OH265896   3.584   3.296  16.922  0.0838  0.3820  0.1416
14802TIP3    H165897   3.627   3.321  16.840 -1.4267  1.3209 -0.3733
14802TIP3    H265898   3.633   3.341  16.990  0.1024  1.1979 -0.4089
14803TIP3   OH265899   6.643   5.704   3.843  0.6653 -0.0057 -0.2628
14803TIP3    H165900   6.730   5.720   3.879  0.1493  3.0825 -0.2078
14803TIP3    H265901   6.595   5.662   3.914  0.7371  2.6658  1.4406
14804TIP3   OH265902   1.280   2.524  12.699 -0.1499 -0.0925 -0.2086
14804TIP3    H165903   1.199   2.477  12.721  0.3645 -0.8172  0.1391
14804TIP3    H265904   1.332   2.521  12.779  0.2237  0.3773 -0.4333
14805TIP3   OH265905   0.101   4.432   3.477 -0.3001  0.0226  0.2336
14805TIP3    H165906   0.078   4.341   3.494 -0.6327  0.2088  0.8017
14805TIP3    H265907   0.161   4.428   3.403  0.1562 -0.7100  0.6258
14806TIP3   OH265908   4.311   0.294  15.409  0.7109  0.9154 -0.4185
14806TIP3    H165909   4.381   0.275  15.347  0.3070  0.1877 -0.6545
14806TIP3    H265910   4.309   0.390  15.414  1.1255  0.9607 -1.0875
14807TIP3   OH265911   5.328   3.815   1.360  0.4387 -0.1395 -0.5305
14807TIP3    H165912   5.255   3.858   1.404 -0.5924 -3.3563  1.0283
14807TIP3    H265913   5.377   3.773   1.430  1.8686 -0.8748 -1.9295
14808TIP3   OH265914   0.721   0.547   2.812 -0.4326  0.2179 -0.0976
14808TIP3    H165915   0.743   0.626   2.861  0.5827 -0.2626  0.2381
14808TIP3    H265916   0.701   0.481   2.878 -1.1566  0.1634 -0.3719
14809TIP3   OH265917   6.295   1.755  13.627  0.3980 -0.2751  0.3468
14809TIP3    H165918   6.278   1.775  13.535  0.0781  2.4521  0.9381
14809TIP3    H265919   6.251   1.672  13.642  0.4323 -0.7583 -1.9383
14810TIP3   OH265920   4.816   3.977   3.715  0.0023  0.0277  0.0324
14810TIP3    H165921   4.909   3.996   3.725 -0.3484  1.6095  0.3639
14810TIP3    H265922   4.771   4.047   3.763 -1.3620 -0.4866 -0.4633
14811TIP3   OH265923   2.795   3.005   0.840  0.2212 -0.0166  0.4534
14811TIP3    H165924   2.770   3.082   0.892 -2.3046 -0.5383  0.0550
14811TIP3    H265925   2.784   2.931   0.899  0.3864 -0.3128  0.1143
14812TIP3   OH265926   3.181   5.639  14.209 -0.7953  0.1186  0.1429
14812TIP3    H165927   3.167   5.712  14.269  1.3030  0.2203  0.5603
14812TIP3    H265928   3.276   5.629  14.206 -1.0475 -2.4416 -0.1081
14813TIP3   OH265929   5.044   4.202  16.483  0.5247  0.1060 -0.2012
14813TIP3    H165930   5.034   4.238  16.571  1.0139  0.0880 -0.1334
14813TIP3    H265931   5.137   4.215  16.463  0.2972  0.6110 -0.9351
14814TIP3   OH265932   1.233   1.744  12.974  0.2703 -0.3865 -0.1254
14814TIP3    H165933   1.195   1.829  12.994  3.6894  0.8134  1.6614
14814TIP3    H265934   1.245   1.744  12.879 -1.9164  0.1528 -0.4096
14815TIP3   OH265935   1.459   6.802   0.533 -0.0381 -0.2229 -0.2954
14815TIP3    H165936   1.528   6.735   0.531 -1.9897 -2.3473  0.8353
14815TIP3    H265937   1.488   6.863   0.601  1.3767 -0.3415 -0.7708
14816TIP3   OH265938   5.222   0.077   5.950 -0.2690 -0.0695  0.3230
14816TIP3    H165939   5.261   0.094   5.863 -0.1711 -1.2978  0.1269
14816TIP3    H265940   5.188   0.162   5.977  2.0086  0.9138  0.2221
14817TIP3   OH265941   1.091   2.636  14.585  0.0042  0.6508  0.4839
14817TIP3    H165942   1.078   2.592  14.669 -1.0021 -0.2879 -0.1563
14817TIP3    H265943   1.185   2.628  14.568  0.0368 -0.1061  1.0016
14818TIP3   OH265944   0.854   0.246  15.283  0.3226 -0.1724 -0.4073
14818TIP3    H165945   0.916   0.192  15.331  0.4147 -1.6786 -2.1691
14818TIP3    H265946   0.868   0.335  15.317  1.4223 -0.9593  1.2397
14819TIP3   OH265947   3.585   6.346   4.080  0.4913 -0.6459  0.4507
14819TIP3    H165948   3.677   6.321   4.080  1.0147  1.2357 -0.3403
14819TIP3    H265949   3.565   6.368   3.989 -0.8475 -1.3911  0.5453
14820TIP3   OH265950   3.738   3.827   1.390  0.3239 -0.0660 -0.0644
14820TIP3    H165951   3.661   3.879   1.368  1.4076  2.5240  2.0218
14820TIP3    H265952   3.807   3.862   1.335  1.0865  0.7980  1.4233
14821TIP3   OH265953   2.669   4.174  16.275 -0.2368 -0.3028 -0.1070
14821TIP3    H165954   2.625   4.227  16.209 -0.5614 -0.1604  0.2230
14821TIP3    H265955   2.697   4.237  16.342 -0.3752 -0.5140  0.1497
14822TIP3   OH265956   0.887   1.647   1.326  0.1279  0.4325 -0.1809
14822TIP3    H165957   0.865   1.659   1.234  0.6747 -0.4398 -0.4362
14822TIP3    H265958   0.875   1.553   1.341 -1.0306  0.7442  0.9251
14823TIP3   OH265959   6.205   3.414  13.816  0.0949  0.0279 -0.0435
14823TIP3    H165960   6.160   3.426  13.732 -0.1164  0.3582  0.1176
14823TIP3    H265961   6.187   3.495  13.864  0.8418  0.1504  0.0277
14824TIP3   OH265962   5.393   3.707   5.000  0.0697  0.3057  0.2985
14824TIP3    H165963   5.437   3.688   5.082  0.4309  0.7231  0.2071
14824TIP3    H265964   5.326   3.772   5.023 -0.0176  0.2104  0.3133
14825TIP3   OH265965   1.236   0.583   3.243 -0.3694 -0.4845 -0.0696
14825TIP3    H165966   1.179   0.573   3.167  0.4303  0.8149 -0.8652
14825TIP3    H265967   1.301   0.648   3.216  0.6452 -0.8970  1.3087
14826TIP3   OH265968   2.861   5.461   1.621  0.7933 -0.0036 -0.2833
14826TIP3    H165969   2.925   5.404   1.664 -1.9026  0.2248  4.4663
14826TIP3    H265970   2.865   5.542   1.671 -1.0989  1.0681 -1.8188
14827TIP3   OH265971   5.288   4.309   1.214  0.2147 -0.1771 -0.4748
14827TIP3    H165972   5.377   4.343   1.205 -0.0894  0.7307 -0.0892
14827TIP3    H265973   5.278   4.249   1.140  0.1723  1.8848 -2.1736
14828TIP3   OH265974   0.444   0.892   0.718 -0.3571 -0.2826 -0.0937
14828TIP3    H165975   0.399   0.921   0.798  0.5304  2.9174 -0.6575
14828TIP3    H265976   0.532   0.927   0.727 -0.4542  0.7810 -2.7708
14829TIP3   OH265977   2.335   6.222   4.177  0.0575 -0.0198  0.4701
14829TIP3    H165978   2.375   6.284   4.237  0.0074 -0.8624  1.3836
14829TIP3    H265979   2.251   6.262   4.153  1.4182  1.7466 -1.4494
14830TIP3   OH265980   3.760   1.570  15.870 -0.1573  0.2658  0.6094
14830TIP3    H165981   3.827   1.552  15.936  1.3333 -0.2059 -0.9992
14830TIP3    H265982   3.693   1.503  15.884  0.2514  0.0300  1.4710
14831TIP3   OH265983   6.186   1.756  13.035  0.4200 -0.2029  0.1579
14831TIP3    H165984   6.207   1.740  12.943  1.3789  0.3359  0.2679
14831TIP3    H265985   6.184   1.852  13.043 -0.7386 -0.2437  0.4650
14832TIP3   OH265986   6.219   2.715  12.174  0.0312 -0.3167  0.0549
14832TIP3    H165987   6.209   2.747  12.263 -0.1267  1.2692 -0.5102
14832TIP3    H265988   6.176   2.781  12.120  0.1804 -1.2250 -1.2039
14833TIP3   OH265989   3.097   3.521   5.432  0.1394  0.0591 -0.2244
14833TIP3    H165990   3.187   3.510   5.461 -0.4593  1.6235  2.3431
14833TIP3    H265991   3.084   3.450   5.369  3.0786 -0.3126 -0.4985
14834TIP3   OH265992   5.551   4.131  16.333 -0.1250 -0.4137 -0.0519
14834TIP3    H165993   5.563   4.219  16.296 -1.0813 -0.3730 -0.2932
14834TIP3    H265994   5.633   4.086  16.315  0.1873  0.2744 -0.3770
14835TIP3   OH265995   5.720   1.234  14.043  0.4191  0.1681 -0.7496
14835TIP3    H165996   5.800   1.263  13.999  2.6565 -2.1102  1.6765
14835TIP3    H265997   5.704   1.300  14.110  2.3738 -1.1885  1.1242
14836TIP3   OH265998   4.436   0.073  11.011  0.4125 -0.6710  0.1791
14836TIP3    H165999   4.478   0.128  11.077  0.7294 -0.2311 -0.3874
14836TIP3    H266000   4.484   0.091  10.931  0.5298 -1.7856 -0.0078
14837TIP3   OH266001   0.159   4.035  16.037 -0.1970 -0.5220 -0.0032
14837TIP3    H166002   0.115   4.058  16.119 -0.0208 -0.1771 -0.0080
14837TIP3    H266003   0.087   4.026  15.974 -0.3642 -1.1532  0.2719
14838TIP3   OH266004   4.771   0.965   2.486 -0.0143  0.4518  0.2817
14838TIP3    H166005   4.784   0.972   2.581  0.4934  0.4808  0.2105
14838TIP3    H266006   4.860   0.958   2.450 -0.1638  1.3201 -0.2657
14839TIP3   OH266007   3.927   6.410   1.451 -0.2853 -0.2146 -0.6812
14839TIP3    H166008   3.953   6.384   1.539  1.2239 -0.7872 -1.2739
14839TIP3    H266009   3.956   6.501   1.443  1.1923 -0.7053 -1.1750
14840TIP3   OH266010   0.452   1.061  13.928 -0.0104 -0.4473  0.4284
14840TIP3    H166011   0.398   1.077  14.005 -2.0639  0.2656 -1.0965
14840TIP3    H266012   0.389   1.043  13.858  1.7649 -0.4288 -1.2313
14841TIP3   OH266013   2.864   0.349  12.577 -0.7487  0.4844 -0.1203
14841TIP3    H166014   2.876   0.364  12.484  0.4461 -0.6874 -0.1722
14841TIP3    H266015   2.831   0.259  12.583 -2.6703  1.1923  0.4892
14842TIP3   OH266016   4.673   6.079  14.552 -0.1124 -0.0484  0.9793
14842TIP3    H166017   4.687   6.091  14.459  0.2838  0.1877  1.0696
14842TIP3    H266018   4.657   6.167  14.587 -2.2573 -0.3370  0.8173
14843TIP3   OH266019   2.382   5.416  16.082  0.2252  0.6382  0.0932
14843TIP3    H166020   2.391   5.446  16.172 -0.1567  0.7263  0.1013
14843TIP3    H266021   2.290   5.434  16.059  0.8405  2.5381 -1.0134
14844TIP3   OH266022   2.316   2.241   5.544 -0.4082  0.7404 -0.3785
14844TIP3    H166023   2.354   2.278   5.624  0.8743 -0.1871 -0.5264
14844TIP3    H266024   2.361   2.285   5.473 -0.6588  0.6790 -0.5762
14845TIP3   OH266025   5.965   1.573  16.477 -0.2813 -0.1333  0.4681
14845TIP3    H166026   5.993   1.527  16.397 -0.6221  1.6187 -0.6909
14845TIP3    H266027   5.984   1.512  16.548  0.8867 -1.3576 -0.8647
14846TIP3   OH266028   1.567   5.202   5.844 -0.0749  0.2754  0.5040
14846TIP3    H166029   1.610   5.277   5.805  0.6015  0.9174  2.4573
14846TIP3    H266030   1.483   5.236   5.876 -0.3197 -0.0971  0.2750
14847TIP3   OH266031   3.570   6.087   3.955  0.6180  0.4778  0.2597
14847TIP3    H166032   3.528   6.144   3.891 -0.6916 -0.4669  0.2575
14847TIP3    H266033   3.527   6.109   4.038 -0.3107 -0.8988  0.1582
14848TIP3   OH266034   3.487   4.713  15.190  0.4527 -0.0334  0.2302
14848TIP3    H166035   3.496   4.751  15.277 -3.6307 -1.5499  1.4149
14848TIP3    H266036   3.492   4.787  15.130 -3.0427  1.8998  2.2141
14849TIP3   OH266037   4.148   6.483   2.493  1.0628 -0.4445 -0.2356
14849TIP3    H166038   4.186   6.555   2.543 -0.7516  0.9758 -0.8483
14849TIP3    H266039   4.195   6.483   2.410  0.7700  0.3362 -0.4065
14850TIP3   OH266040   2.476   2.351  16.786 -0.0261  0.6339  0.2561
14850TIP3    H166041   2.495   2.445  16.775 -0.9676  0.8167  0.1741
14850TIP3    H266042   2.556   2.307  16.756 -0.2355  1.3462 -1.4128
14851TIP3   OH266043   5.824   4.564   3.242  0.1406  0.2799  0.3430
14851TIP3    H166044   5.829   4.508   3.164 -0.0554 -0.0158  0.5430
14851TIP3    H266045   5.845   4.506   3.315  1.6432  0.8659  0.3854
14852TIP3   OH266046   0.894   0.440   2.486  0.1150  0.2900  0.5318
14852TIP3    H166047   0.821   0.494   2.516 -1.2099 -0.5651 -1.0724
14852TIP3    H266048   0.855   0.381   2.421  2.5340  0.8496 -1.4713
14853TIP3   OH266049   0.438   4.184  16.316 -0.5038  0.1433  0.5981
14853TIP3    H166050   0.434   4.119  16.247 -0.0975 -0.6244  1.2814
14853TIP3    H266051   0.448   4.133  16.397 -0.3729  1.0393  1.1615
14854TIP3   OH266052   5.631   4.003  10.836 -0.2493  0.0097 -0.1630
14854TIP3    H166053   5.561   4.058  10.871 -0.4084 -0.6299  0.5227
14854TIP3    H266054   5.591   3.917  10.825 -0.2578  0.2225 -2.0844
14855TIP3   OH266055   6.173   5.328   3.601 -0.4310 -0.5401  0.0880
14855TIP3    H166056   6.143   5.384   3.672  1.8849 -0.4302  1.0223
14855TIP3    H266057   6.229   5.385   3.547  0.6612 -1.5292  0.1581
14856TIP3   OH266058   6.214   6.707   6.132 -0.2577 -0.7352 -0.3435
14856TIP3    H166059   6.136   6.750   6.166 -0.2340  0.5290 -1.7903
14856TIP3    H266060   6.287   6.747   6.180 -0.4208 -1.1982  0.2982
14857TIP3   OH266061   1.510   1.819  15.799  0.2219 -0.2892 -0.1555
14857TIP3    H166062   1.569   1.746  15.779 -0.8279 -1.1317 -0.2880
14857TIP3    H266063   1.479   1.801  15.888  0.3090  0.2463 -0.0158
14858TIP3   OH266064   4.068   2.326   2.897  0.5520 -0.2433  0.3099
14858TIP3    H166065   4.002   2.390   2.921  0.6379 -0.4177  1.0187
14858TIP3    H266066   4.151   2.374   2.900  0.8736 -0.8870  2.9425
14859TIP3   OH266067   4.280   4.108   2.773  0.1703  0.2815 -0.9140
14859TIP3    H166068   4.341   4.180   2.786 -0.1071  0.4280 -0.4205
14859TIP3    H266069   4.288   4.054   2.851 -2.1062  1.6214  0.3055
14860TIP3   OH266070   4.877   0.813  14.127  0.0156 -0.1850  0.0766
14860TIP3    H166071   4.889   0.754  14.202 -1.0492 -0.6503 -0.1088
14860TIP3    H266072   4.950   0.793  14.069  0.2665 -0.5514  0.5123
14861TIP3   OH266073   0.978   4.318   0.521  0.4861 -0.2228 -0.2009
14861TIP3    H166074   0.959   4.224   0.525 -0.4249 -0.1061 -1.4532
14861TIP3    H266075   1.011   4.332   0.433  0.1984  0.7109 -0.1589
14862TIP3   OH266076   2.435   3.586   0.170 -0.5667 -0.1611  0.3984
14862TIP3    H166077   2.407   3.675   0.192  0.0281  0.6800 -2.0902
14862TIP3    H266078   2.502   3.566   0.236 -0.6251  1.2782  0.9186
14863TIP3   OH266079   2.570   1.485  14.915  0.4219 -0.0759  0.4460
14863TIP3    H166080   2.489   1.483  14.966 -1.3015 -0.1080 -2.1943
14863TIP3    H266081   2.612   1.567  14.938 -1.3885  0.8971  0.3571
14864TIP3   OH266082   1.780   4.749   3.696  0.1949  0.1464  0.0617
14864TIP3    H166083   1.753   4.829   3.741 -0.1071 -0.1951  0.4972
14864TIP3    H266084   1.851   4.715   3.749  0.3899  0.1796 -0.1805
14865TIP3   OH266085   2.405   5.899  15.643 -0.3721  0.0583 -0.1390
14865TIP3    H166086   2.380   5.940  15.560 -0.0801 -1.2628 -0.9001
14865TIP3    H266087   2.501   5.901  15.643 -0.3396 -1.0363 -0.4140
14866TIP3   OH266088   1.248   4.718   5.340  0.1350 -0.4959 -0.3197
14866TIP3    H166089   1.245   4.628   5.307  3.2421 -1.3628  1.5181
14866TIP3    H266090   1.278   4.709   5.430 -1.3817  2.2925  0.5121
14867TIP3   OH266091   5.200   1.743  14.406  0.6847 -0.2132  0.0230
14867TIP3    H166092   5.292   1.724  14.393  0.6513 -0.5768  0.3143
14867TIP3    H266093   5.156   1.660  14.391  0.3011  0.1879 -1.1567
14868TIP3   OH266094   5.817   4.537   1.303  0.5539 -0.2727  0.6693
14868TIP3    H166095   5.907   4.561   1.323 -0.3970  1.0041  3.7346
14868TIP3    H266096   5.800   4.576   1.217  1.9971  2.0453  1.4079
14869TIP3   OH266097   3.021   0.279   5.316  0.1233 -0.2693 -0.4992
14869TIP3    H166098   3.040   0.194   5.277 -1.1678 -0.7727 -0.0707
14869TIP3    H266099   3.065   0.277   5.401 -1.0403 -1.0541  0.0939
14870TIP3   OH266100   5.475   0.345   3.252 -0.0215 -0.0311  0.3064
14870TIP3    H166101   5.505   0.368   3.164  2.9242 -1.5996  0.8296
14870TIP3    H266102   5.380   0.340   3.244 -0.2383  4.5127 -1.6104
14871TIP3   OH266103   5.808   2.125   5.405  0.2485 -0.1966 -0.2661
14871TIP3    H166104   5.852   2.091   5.326  0.4504  2.1395 -1.1992
14871TIP3    H266105   5.716   2.103   5.393  0.5099 -1.2697 -0.3723
14872TIP3   OH266106   1.081   4.605   0.216 -0.2160 -0.6990  0.5716
14872TIP3    H166107   1.158   4.615   0.273  1.0738 -1.4802 -0.9801
14872TIP3    H266108   1.097   4.665   0.143 -1.2071 -0.6586  0.3874
14873TIP3   OH266109   6.325   0.428  16.878 -0.2796 -0.3868 -0.4451
14873TIP3    H166110   6.346   0.484  16.952  0.9216  0.0358 -1.0818
14873TIP3    H266111   6.386   0.355  16.885 -0.5475 -0.6364 -0.6960
14874TIP3   OH266112   2.845   2.242  14.415 -0.1537 -0.0549 -0.3349
14874TIP3    H166113   2.788   2.310  14.378  1.4353 -0.2246 -3.3190
14874TIP3    H266114   2.788   2.165  14.424 -0.7891  0.2114 -1.8642
14875TIP3   OH266115   3.515   1.083  11.260  0.2071 -0.0770  0.1233
14875TIP3    H166116   3.543   1.106  11.171  1.0203 -1.5422 -0.0212
14875TIP3    H266117   3.592   1.098  11.314  0.4357 -1.4236  0.1896
14876TIP3   OH266118   5.142   2.973   0.636 -0.4344 -0.0322  0.1755
14876TIP3    H166119   5.065   2.960   0.579 -0.5304  0.3041  0.2262
14876TIP3    H266120   5.217   2.952   0.580 -0.4578  1.6083 -0.4768
14877TIP3   OH266121   0.827   5.406   5.649 -0.5180  0.5631  0.2326
14877TIP3    H166122   0.835   5.319   5.689 -0.8882  0.0308 -0.8295
14877TIP3    H266123   0.912   5.420   5.606 -1.1283 -0.1111 -1.2265
14878TIP3   OH266124   0.727   3.330   0.596  0.0673  0.1050  0.3101
14878TIP3    H166125   0.806   3.281   0.620 -1.8131 -2.2187  1.9603
14878TIP3    H266126   0.681   3.273   0.536 -2.6696 -0.6983  3.0579
14879TIP3   OH266127   3.227   3.672   0.332 -0.2194 -0.5759 -0.2536
14879TIP3    H166128   3.241   3.757   0.290 -1.0475 -0.1952  0.2256
14879TIP3    H266129   3.315   3.639   0.351  0.0841  0.5521  0.3171
14880TIP3   OH266130   4.389   2.385  13.419 -0.9299  0.7544  0.0131
14880TIP3    H166131   4.431   2.393  13.334 -1.3821  1.1939 -0.1741
14880TIP3    H266132   4.310   2.333  13.402 -0.4812 -0.0462  0.3566
14881TIP3   OH266133   1.762   2.914  14.009  0.6720 -0.0183 -0.6152
14881TIP3    H166134   1.798   2.870  14.087  0.0345 -1.1979 -0.9670
14881TIP3    H266135   1.834   2.914  13.946  0.9188  0.1524 -0.3344
14882TIP3   OH266136   0.839   5.635  15.890 -0.8591  0.4694 -0.3766
14882TIP3    H166137   0.780   5.560  15.879  0.6272 -0.3898 -2.8889
14882TIP3    H266138   0.848   5.644  15.985 -2.0356 -1.7699 -0.0013
14883TIP3   OH266139   4.421   0.386   3.366 -0.7824 -0.2657 -0.6222
14883TIP3    H166140   4.507   0.429   3.370 -0.1572 -1.4166 -1.5694
14883TIP3    H266141   4.397   0.373   3.458  0.5056 -0.8322 -0.3579
14884TIP3   OH266142   2.002   4.662  14.524  0.2973  0.0448 -0.3190
14884TIP3    H166143   2.090   4.633  14.498  1.1455  0.8410  1.5508
14884TIP3    H266144   1.943   4.599  14.483  1.8075 -1.2114 -0.6171
14885TIP3   OH266145   0.118   1.448  13.557  0.2562 -0.1833 -0.1351
14885TIP3    H166146   0.033   1.417  13.524  0.4336  0.9382 -1.7132
14885TIP3    H266147   0.170   1.368  13.568 -0.5635 -0.7675 -0.4709
14886TIP3   OH266148   1.819   3.670  14.679 -0.0008 -0.1768  0.0893
14886TIP3    H166149   1.779   3.583  14.677 -0.6525  0.1047  0.7698
14886TIP3    H266150   1.908   3.655  14.709 -0.3627 -0.5180  1.0019
14887TIP3   OH266151   0.238   3.487  16.502 -0.2913 -0.1945  0.2920
14887TIP3    H166152   0.209   3.404  16.539 -0.6067  0.2274  1.0122
14887TIP3    H266153   0.161   3.522  16.458 -0.1200 -0.3527 -0.1285
14888TIP3   OH266154   1.528   1.615   4.066 -0.2718 -0.0953 -0.0004
14888TIP3    H166155   1.552   1.676   3.996 -3.1784 -2.2836 -3.0200
14888TIP3    H266156   1.589   1.541   4.055 -0.1991 -0.0827  0.3098
14889TIP3   OH266157   4.453   1.471  15.515 -0.5967  0.2279  0.6845
14889TIP3    H166158   4.504   1.392  15.493  1.5608  1.6738  0.2837
14889TIP3    H266159   4.495   1.505  15.594 -0.8443  1.5514  0.2522
14890TIP3   OH266160   0.428   4.729   3.501 -0.6803 -0.2340  0.1661
14890TIP3    H166161   0.344   4.699   3.537 -0.8850 -2.0553 -1.7134
14890TIP3    H266162   0.403   4.786   3.428 -0.2872 -0.6815 -0.3164
14891TIP3   OH266163   0.227   6.786   2.161  0.8171 -0.3133  0.1722
14891TIP3    H166164   0.271   6.748   2.237 -0.6421 -3.0227 -0.2526
14891TIP3    H266165   0.134   6.767   2.176  0.3170  0.9208 -1.3153
14892TIP3   OH266166   6.785   4.436   2.288 -0.3713  0.1878  0.1564
14892TIP3    H166167   6.741   4.354   2.269  0.3925 -0.5709  1.5281
14892TIP3    H266168   6.718   4.491   2.327 -0.5648 -0.3053  0.5327
14893TIP3   OH266169   1.428   1.754   1.027  0.2996  0.3670  0.7799
14893TIP3    H166170   1.519   1.746   1.055  0.7551 -0.4717 -0.8806
14893TIP3    H266171   1.397   1.664   1.018  0.0981  0.6127 -1.1143
14894TIP3   OH266172   0.137   6.766   3.408  0.2985  0.4071  0.4165
14894TIP3    H166173   0.206   6.829   3.427 -1.4383  1.9894  1.6485
14894TIP3    H266174   0.115   6.782   3.316  1.0703  0.3805  0.2236
14895TIP3   OH266175   5.410   1.984   3.351  0.3284  0.0104  0.1568
14895TIP3    H166176   5.374   2.038   3.280 -1.7353 -0.2971  0.9242
14895TIP3    H266177   5.430   2.047   3.421  1.1428  0.1619 -0.2060
14896TIP3   OH266178   2.114   1.799  13.002 -0.1733  0.5729 -0.4220
14896TIP3    H166179   2.065   1.882  13.006 -0.5891  0.2408  2.4027
14896TIP3    H266180   2.113   1.767  13.092  1.5102 -1.6436 -1.1653
14897TIP3   OH266181   6.348   3.508  12.547 -0.5549  0.2891  0.1204
14897TIP3    H166182   6.405   3.581  12.523 -0.6330  0.0432 -0.8434
14897TIP3    H266183   6.263   3.548  12.563 -0.8200  0.3167 -1.2806
14898TIP3   OH266184   5.202   5.355  15.458 -0.4044 -0.6759  0.7447
14898TIP3    H166185   5.193   5.449  15.441  4.0073  0.0928  1.9578
14898TIP3    H266186   5.199   5.348  15.553 -0.4332 -1.7496  0.6653
14899TIP3   OH266187   0.219   0.481  12.103 -0.2869 -0.2098 -0.0907
14899TIP3    H166188   0.232   0.449  12.192  0.0789  2.2735  0.7979
14899TIP3    H266189   0.257   0.414  12.048 -0.3046 -1.6791  1.6434
14900TIP3   OH266190   0.802   6.773   4.631  0.3803  0.1093  0.1771
14900TIP3    H166191   0.813   6.868   4.625 -0.5727  0.2081 -0.0080
14900TIP3    H266192   0.870   6.737   4.574  0.1545  0.7095 -0.4732
14901TIP3   OH266193   5.069   2.488   4.153 -0.1880  0.1115 -0.2318
14901TIP3    H166194   4.976   2.502   4.171  0.1761  2.7621 -0.2181
14901TIP3    H266195   5.115   2.540   4.220  1.3848 -3.3638  1.5306
14902TIP3   OH266196   6.590   3.525   0.479 -0.3446  0.6939 -0.2566
14902TIP3    H166197   6.553   3.449   0.524  1.6415 -0.2768 -0.2003
14902TIP3    H266198   6.608   3.494   0.390 -0.6114  1.4506 -0.5805
14903TIP3   OH266199   0.081   6.043  12.812 -0.0662 -0.4247 -0.3739
14903TIP3    H166200  -0.011   6.017  12.805 -0.1088 -0.8946  1.5467
14903TIP3    H266201   0.122   5.974  12.865  0.5647  1.6388  1.9533
14904TIP3   OH266202   3.197   5.571  12.138 -0.0011 -0.1390 -0.0377
14904TIP3    H166203   3.282   5.548  12.101 -0.8897 -0.4199 -2.0128
14904TIP3    H266204   3.169   5.647  12.086 -0.1392  1.1157  1.8373
14905TIP3   OH266205   1.558   3.965   1.457 -0.0105 -0.0835  0.1799
14905TIP3    H166206   1.583   3.937   1.369  0.7700 -0.8914  0.6497
14905TIP3    H266207   1.620   4.035   1.478  1.2944 -1.4640  0.9860
14906TIP3   OH266208   0.601   0.700   0.048  0.0635  0.3246  0.4668
14906TIP3    H166209   0.624   0.774  -0.008 -0.2693  0.6070  0.7045
14906TIP3    H266210   0.562   0.636  -0.013 -1.1592  1.0040  0.5058
14907TIP3   OH266211   0.798   5.010  11.281  0.2413  0.1134  0.1893
14907TIP3    H166212   0.720   5.048  11.240 -0.0043 -0.7165 -0.1160
14907TIP3    H266213   0.856   4.988  11.208  0.5947  0.3589  0.3934
14908TIP3   OH266214   1.225   6.683  16.102  0.3505 -0.0536 -0.3513
14908TIP3    H166215   1.140   6.700  16.062 -0.8115 -0.1032  2.0054
14908TIP3    H266216   1.264   6.770  16.113 -0.7373  0.2311  1.3745
14909TIP3   OH266217   5.156   5.622   0.391 -0.0500 -0.1179 -0.2067
14909TIP3    H166218   5.161   5.580   0.477  0.2474  0.1134 -0.1107
14909TIP3    H266219   5.145   5.715   0.410 -2.2088 -0.2972 -0.4133
14910TIP3   OH266220   3.605   1.960  11.518 -0.0409 -0.1595 -0.5383
14910TIP3    H166221   3.696   1.946  11.492  0.7573  0.0328  1.9905
14910TIP3    H266222   3.569   2.016  11.449  1.2222 -1.6987 -2.4932
14911TIP3   OH266223   2.763   5.141   0.406 -0.3725  0.1152 -0.2431
14911TIP3    H166224   2.850   5.141   0.445 -0.2862 -1.3978 -0.4437
14911TIP3    H266225   2.755   5.057   0.362 -1.6199  0.5811 -0.9468
14912TIP3   OH266226   1.853   5.450   2.152  0.0501 -0.0057 -0.0375
14912TIP3    H166227   1.785   5.446   2.219 -1.8947 -2.1544 -2.0479
14912TIP3    H266228   1.843   5.536   2.113  0.4353  0.8147  1.6380
14913TIP3   OH266229   2.594   0.537   5.086  0.2659  0.3805  0.2330
14913TIP3    H166230   2.662   0.600   5.063  0.5308  0.1264  0.3140
14913TIP3    H266231   2.639   0.471   5.138  0.3826 -0.8204 -1.3367
14914TIP3   OH266232   3.924   2.855  12.838 -0.0789  0.1369  0.3964
14914TIP3    H166233   3.835   2.835  12.811  0.4378 -1.1157 -0.4485
14914TIP3    H266234   3.972   2.773  12.826  1.2183  0.8268  0.6975
14915TIP3   OH266235   5.123   4.117   4.543 -0.4886 -0.0896 -0.3088
14915TIP3    H166236   5.073   4.046   4.502 -0.1359  0.0341 -0.9604
14915TIP3    H266237   5.076   4.197   4.520 -0.5687 -0.0618 -0.0505
14916TIP3   OH266238   1.593   4.060  11.932 -0.4840  0.1910  0.2326
14916TIP3    H166239   1.586   3.964  11.940 -1.7163  0.1725 -0.9949
14916TIP3    H266240   1.616   4.089  12.021 -0.7766 -1.1837  0.7771
14917TIP3   OH266241   4.286   0.362   2.661  0.0871  0.1125 -0.0189
14917TIP3    H166242   4.296   0.419   2.585  0.1348 -0.6273 -0.5719
14917TIP3    H266243   4.192   0.366   2.681  0.4548  2.3046  1.4651
14918TIP3   OH266244   6.687   3.604  14.354  0.6510 -0.4334 -0.0761
14918TIP3    H166245   6.683   3.576  14.262  0.5374 -1.1399  0.1446
14918TIP3    H266246   6.596   3.621  14.378  0.6744 -0.3057 -0.0748
14919TIP3   OH266247   1.067   6.720  12.332  0.6092 -0.5329 -0.0111
14919TIP3    H166248   1.074   6.785  12.402  0.3244 -1.0131  0.4710
14919TIP3    H266249   1.062   6.771  12.251  0.3345  0.0361  0.3665
14920TIP3   OH266250   5.656   5.677   3.233 -0.6466 -0.4349  0.5771
14920TIP3    H166251   5.612   5.593   3.219  0.2182 -0.4018 -2.6858
14920TIP3    H266252   5.594   5.742   3.202  0.8152 -0.2706 -2.1683
14921TIP3   OH266253   5.968   2.091  13.862 -0.4073 -0.3103  0.4655
14921TIP3    H166254   6.020   2.032  13.808  2.5218  2.5857 -0.0681
14921TIP3    H266255   5.947   2.164  13.804 -0.5983  0.9886  2.1223
14922TIP3   OH266256   6.129   5.294  15.724 -0.6263  0.1337 -0.1672
14922TIP3    H166257   6.071   5.280  15.649 -1.5801 -0.0676  0.5982
14922TIP3    H266258   6.073   5.336  15.790 -0.1843 -1.0590  0.9846
14923TIP3   OH266259   1.320   3.829  12.048  0.6528 -0.5208 -0.7388
14923TIP3    H166260   1.254   3.804  11.983  1.5557  0.9994 -2.3108
14923TIP3    H266261   1.300   3.921  12.068  1.5284 -0.4193 -0.3000
14924TIP3   OH266262   2.786   6.543  11.133 -0.5021  0.7117  0.7036
14924TIP3    H166263   2.804   6.544  11.227  0.2827  1.4259  0.5447
14924TIP3    H266264   2.858   6.492  11.095  0.4327  2.3583  0.2342
14925TIP3   OH266265   0.429   1.603  16.067  0.3705 -0.2974  0.1868
14925TIP3    H166266   0.516   1.638  16.048  0.3646  0.4077  1.4067
14925TIP3    H266267   0.370   1.650  16.007  0.7497 -0.3296 -0.2076
14926TIP3   OH266268   2.021   0.751  10.139 -0.3335  0.3205 -0.2433
14926TIP3    H166269   1.944   0.732  10.085 -0.1357 -0.3443 -0.3028
14926TIP3    H266270   1.988   0.748  10.229 -0.5903  1.0794 -0.3074
14927TIP3   OH266271   4.986   5.821  14.477  0.0775  0.3284 -0.1306
14927TIP3    H166272   4.940   5.868  14.408 -0.0777 -0.7429 -0.7705
14927TIP3    H266273   4.990   5.882  14.550 -0.6459  1.1127 -0.7472
14928TIP3   OH266274   2.008   5.651  11.555 -0.2445  0.4380  0.1745
14928TIP3    H166275   2.037   5.742  11.557 -0.4555  0.6047 -2.0698
14928TIP3    H266276   2.048   5.615  11.476 -0.3171 -1.3735  0.9381
14929TIP3   OH266277   2.752   1.189   2.152  0.6109  0.0474  0.5293
14929TIP3    H166278   2.822   1.171   2.214  2.2965  0.7275 -1.1345
14929TIP3    H266279   2.792   1.176   2.066 -1.4481 -0.0703 -0.4460
14930TIP3   OH266280   3.058   6.369  16.624  0.0970  0.0928  0.2855
14930TIP3    H166281   3.015   6.288  16.650 -0.2855 -0.3714 -1.6665
14930TIP3    H266282   3.134   6.341  16.573  0.5166  0.9417  0.4397
14931TIP3   OH266283   3.976   2.427   0.062  0.4558  0.5735  0.1793
14931TIP3    H166284   3.967   2.368   0.137 -0.3771  1.4114  0.7448
14931TIP3    H266285   4.022   2.503   0.097 -1.9485  1.9536  0.3827
14932TIP3   OH266286   1.871   4.939  15.145  0.2465  0.0626 -0.0301
14932TIP3    H166287   1.946   4.918  15.089  1.0893  0.3960  0.9439
14932TIP3    H266288   1.794   4.913  15.094  1.0267 -0.3110 -1.0318
14933TIP3   OH266289   0.698   5.924  16.946  0.0284  0.2597 -0.1906
14933TIP3    H166290   0.662   6.010  16.926  1.1855  0.5964 -0.8924
14933TIP3    H266291   0.643   5.891  17.017 -1.7643  0.6561 -1.3575
14934TIP3   OH266292   5.457   4.522  16.263  0.7091  0.2261 -0.0557
14934TIP3    H166293   5.427   4.565  16.343  2.3612 -1.8178  1.6926
14934TIP3    H266294   5.383   4.469  16.235  0.7421 -0.4512  1.1252
14935TIP3   OH266295   6.151   6.587   4.302 -0.8279 -0.1179 -0.3726
14935TIP3    H166296   6.192   6.600   4.388 -1.9701 -1.5077  0.4151
14935TIP3    H266297   6.224   6.572   4.243 -0.0459  0.3923  0.4473
14936TIP3   OH266298   3.567   6.181  16.225 -0.2644  0.2102  0.4519
14936TIP3    H166299   3.574   6.198  16.131 -1.4072  1.2872  0.5557
14936TIP3    H266300   3.580   6.086  16.233  0.6206  0.2170 -0.7011
14937TIP3   OH266301   1.429   5.439   0.827 -0.5167  0.0036 -0.3036
14937TIP3    H166302   1.502   5.396   0.872 -1.2490 -1.3675 -0.3896
14937TIP3    H266303   1.468   5.516   0.786  0.5328  0.2432  1.1100
14938TIP3   OH266304   0.575   1.393   3.180 -0.1170 -0.5081 -0.5373
14938TIP3    H166305   0.577   1.488   3.191 -1.4603 -0.5725  0.2639
14938TIP3    H266306   0.634   1.377   3.106  1.1939  0.8148  0.2021
14939TIP3   OH266307   6.754   3.631  13.282 -0.0809  0.5137  0.2742
14939TIP3    H166308   6.843   3.603  13.261 -0.1319  2.4358 -2.7950
14939TIP3    H266309   6.763   3.722  13.311 -1.0463  0.7202 -0.0449
14940TIP3   OH266310   2.709   0.696   2.880  0.1536  0.3517 -0.6060
14940TIP3    H166311   2.614   0.683   2.883  0.6311 -3.5476  1.6922
14940TIP3    H266312   2.727   0.757   2.951 -0.3576 -1.4223  1.0926
14941TIP3   OH266313   4.370   0.452  12.301  0.1189  0.5501 -0.1928
14941TIP3    H166314   4.412   0.404  12.372 -1.8068 -0.8325  0.0382
14941TIP3    H266315   4.415   0.421  12.222 -1.1915 -1.7648 -0.0572
14942TIP3   OH266316   0.254   2.457   6.721 -0.3648  0.0279  0.2476
14942TIP3    H166317   0.262   2.510   6.801  1.1737  0.6009 -0.2589
14942TIP3    H266318   0.327   2.395   6.727  1.1436  1.5241 -1.7439
14943TIP3   OH266319   3.316   5.474   3.787 -0.4632 -0.2315  0.5424
14943TIP3    H166320   3.253   5.520   3.732 -1.0773 -1.7164 -0.0113
14943TIP3    H266321   3.401   5.507   3.758 -0.6552 -2.2177 -2.5130
14944TIP3   OH266322   1.743   0.395  13.429 -0.3631  0.0753 -0.5169
14944TIP3    H166323   1.829   0.434  13.445 -0.0373 -0.3312 -1.2688
14944TIP3    H266324   1.710   0.443  13.353 -0.3459 -0.5110 -0.8882
14945TIP3   OH266325   4.272   0.866  15.397 -0.0195 -0.3653  0.3317
14945TIP3    H166326   4.245   0.957  15.379 -1.2652 -0.1637  3.0008
14945TIP3    H266327   4.268   0.823  15.311  0.2709  2.0161 -0.9189
14946TIP3   OH266328   3.007   3.475   1.108 -0.5245  0.3277  0.5197
14946TIP3    H166329   2.989   3.553   1.161  0.0288  1.3487 -0.7788
14946TIP3    H266330   3.102   3.476   1.096 -0.6840  0.3363 -0.8243
14947TIP3   OH266331   0.646   6.534   4.661  0.1963  0.1447 -0.2637
14947TIP3    H166332   0.678   6.624   4.663 -1.5518  0.7404  2.4276
14947TIP3    H266333   0.597   6.527   4.580  1.1465  1.3111 -0.9491
14948TIP3   OH266334   6.679   5.991   1.243 -0.3102  0.3736 -0.4833
14948TIP3    H166335   6.692   5.907   1.287 -1.2610  0.2183 -0.4896
14948TIP3    H266336   6.620   5.971   1.169 -0.0531  0.9315 -0.8437
14949TIP3   OH266337   2.976   5.344  13.849  0.4343 -0.1425  0.8210
14949TIP3    H166338   2.924   5.280  13.896  1.4602 -1.7720 -0.2190
14949TIP3    H266339   2.938   5.345  13.760  0.3392  0.7979  0.8611
14950TIP3   OH266340   2.178   2.948  13.192 -0.0165  0.2229  0.3513
14950TIP3    H166341   2.174   2.905  13.277 -1.6298 -0.2457  0.0408
14950TIP3    H266342   2.089   2.946  13.159  0.0564  2.9512 -0.1101
14951TIP3   OH266343   1.815   2.383   2.688  0.2735  0.6711  0.3363
14951TIP3    H166344   1.910   2.389   2.695  0.3171  1.5851 -0.8209
14951TIP3    H266345   1.794   2.428   2.606 -1.0572 -0.3935  0.0599
14952TIP3   OH266346   6.711   4.357  14.067 -0.0607 -0.1498 -0.6020
14952TIP3    H166347   6.765   4.427  14.103  0.6004  0.9442 -3.5452
14952TIP3    H266348   6.621   4.389  14.072  0.0081 -0.0863  0.2077
14953TIP3   OH266349   3.104   4.407  15.335  0.3211  0.2425 -0.0359
14953TIP3    H166350   3.146   4.369  15.258  1.1103  1.7657 -0.3706
14953TIP3    H266351   3.010   4.401  15.315  0.3786 -2.0508  0.1934
14954TIP3   OH266352   5.529   1.218  11.214 -0.7706 -0.1233 -0.1482
14954TIP3    H166353   5.571   1.142  11.176 -1.7111  0.4170 -2.3599
14954TIP3    H266354   5.455   1.236  11.156  0.6629  3.7279 -0.9390
14955TIP3   OH266355   6.401   4.878   3.460 -0.3666 -0.1070  0.2310
14955TIP3    H166356   6.447   4.795   3.458  1.4471  0.8613  1.0296
14955TIP3    H266357   6.311   4.855   3.485 -0.0143 -1.8642 -0.0835
14956TIP3   OH266358   0.763   1.906  13.791  1.0609 -0.3424 -0.3123
14956TIP3    H166359   0.690   1.939  13.738  0.1211 -0.3183  0.9756
14956TIP3    H266360   0.838   1.959  13.765  0.1359  1.0786 -0.1250
14957TIP3   OH266361   6.775   2.872  12.745  0.2815  0.1124 -0.0712
14957TIP3    H166362   6.789   2.849  12.653  0.8951 -0.0291  0.0561
14957TIP3    H266363   6.842   2.824  12.792  1.8851  2.5151  0.1643
14958TIP3   OH266364   0.811   5.164   1.785  0.3177 -0.9045  0.1531
14958TIP3    H166365   0.750   5.207   1.844  1.2215  1.6948 -0.7536
14958TIP3    H266366   0.890   5.151   1.838  0.6133  0.0672 -0.0450
14959TIP3   OH266367   5.616   0.133   5.135 -0.2919  0.2722  0.2522
14959TIP3    H166368   5.626   0.197   5.064  1.2344  0.1462  0.3289
14959TIP3    H266369   5.631   0.183   5.215  1.3386 -0.2368  0.2900
14960TIP3   OH266370   6.091   1.063  11.284  0.0585  0.0888 -0.0707
14960TIP3    H166371   6.157   1.127  11.258  0.5203  0.3972  1.8205
14960TIP3    H266372   6.118   1.035  11.371 -1.7271 -0.5694  0.2826
14961TIP3   OH266373   4.397   5.848  13.060 -0.1992  0.0424 -0.0429
14961TIP3    H166374   4.480   5.848  13.107 -1.3622 -0.5001  2.0838
14961TIP3    H266375   4.421   5.843  12.968  2.1791  2.1547  0.4053
14962TIP3   OH266376   0.014   4.158   4.528  0.2031  0.7115 -0.0402
14962TIP3    H166377  -0.080   4.173   4.521  0.0947  0.3252  0.5627
14962TIP3    H266378   0.035   4.178   4.619  0.9113  1.9234 -0.4538
14963TIP3   OH266379   3.221   3.255  14.778  0.0162 -0.4723  0.2625
14963TIP3    H166380   3.151   3.231  14.839 -1.2921 -0.6240 -1.2647
14963TIP3    H266381   3.222   3.185  14.713  0.4869  0.3401 -0.6324
14964TIP3   OH266382   5.722   6.107   2.312 -0.1433 -0.0784 -0.0993
14964TIP3    H166383   5.630   6.131   2.312  0.0039  0.4996 -0.4637
14964TIP3    H266384   5.723   6.015   2.286 -0.6941 -0.4249  1.0625
14965TIP3   OH266385   2.364   5.913  11.298  0.6927  0.1642  0.5511
14965TIP3    H166386   2.311   5.969  11.241  0.1990  0.1674  1.0120
14965TIP3    H266387   2.338   5.937  11.387  0.5483 -0.7193  0.7587
14966TIP3   OH266388   0.125   4.911   0.674 -0.0045 -0.8697  0.0379
14966TIP3    H166389   0.062   4.922   0.603  0.0663 -1.1380 -0.0661
14966TIP3    H266390   0.092   4.968   0.744  0.0019 -0.5003 -0.2582
14967TIP3   OH266391   5.372   5.647  15.846 -0.1890 -0.5300  0.3301
14967TIP3    H166392   5.395   5.565  15.889 -1.2344 -0.7948  0.3942
14967TIP3    H266393   5.453   5.699  15.849  0.8400 -2.0236 -0.8352
14968TIP3   OH266394   5.549   2.044   5.368  0.2368  0.4432  0.2519
14968TIP3    H166395   5.580   1.970   5.315  0.2595 -1.9161  3.4346
14968TIP3    H266396   5.455   2.047   5.354  0.3477  0.3585 -0.5217
14969TIP3   OH266397   1.211   2.048  14.555 -0.2676 -0.4999  0.2841
14969TIP3    H166398   1.272   2.045  14.481  1.4366  0.3345  1.6232
14969TIP3    H266399   1.185   1.957  14.568  0.9587 -0.9144 -0.1010
14970TIP3   OH266400   1.237   6.649  11.041  0.1239  0.1437 -0.1546
14970TIP3    H166401   1.288   6.658  10.961 -1.3916  0.6500 -1.0977
14970TIP3    H266402   1.184   6.729  11.044 -0.6918 -0.4157  0.7318
14971TIP3   OH266403   3.340   6.672  11.267 -0.1603 -0.4900 -0.1835
14971TIP3    H166404   3.424   6.641  11.299  0.0051  0.5038  0.3455
14971TIP3    H266405   3.346   6.767  11.269 -1.1418 -0.4086 -0.5435
14972TIP3   OH266406   3.025   0.280  15.626 -0.3305  0.4623 -0.0818
14972TIP3    H166407   3.105   0.276  15.574 -0.9185  0.8062 -1.0198
14972TIP3    H266408   2.958   0.240  15.572 -0.6258 -0.5875  1.0430
14973TIP3   OH266409   2.652   2.263  15.477  0.3430 -0.0021  0.4556
14973TIP3    H166410   2.737   2.278  15.434  0.8986 -0.7438  1.2727
14973TIP3    H266411   2.672   2.267  15.571 -0.6570  0.4790  0.6553
14974TIP3   OH266412   5.078   3.736   1.687 -0.2974 -0.8187  0.1290
14974TIP3    H166413   5.007   3.675   1.669 -0.4463 -0.1450 -1.6220
14974TIP3    H266414   5.038   3.804   1.741 -0.7637 -0.8830 -0.1385
14975TIP3   OH266415   2.765   1.989  11.603 -0.2638  0.8416 -0.8106
14975TIP3    H166416   2.685   1.988  11.655 -0.1036 -0.7819 -0.5713
14975TIP3    H266417   2.834   1.960  11.663  0.7215  3.2707 -0.7031
14976TIP3   OH266418   2.971   4.108  10.782 -0.3902 -0.3056  0.1941
14976TIP3    H166419   2.973   4.032  10.724 -0.8356  0.7701 -1.2643
14976TIP3    H266420   3.060   4.113  10.817  0.0222 -0.7026 -0.7591
14977TIP3   OH266421   1.427   0.303   0.316 -0.3130 -0.1390 -0.2710
14977TIP3    H166422   1.403   0.217   0.281 -2.1380 -0.4854  1.7039
14977TIP3    H266423   1.406   0.365   0.246  0.2491 -1.2036 -1.4049
14978TIP3   OH266424   2.697   4.793  14.143 -0.0226  0.0845 -0.1499
14978TIP3    H166425   2.652   4.784  14.227  0.3124 -2.0001 -0.1583
14978TIP3    H266426   2.657   4.869  14.101 -1.6351 -0.1232  1.0099
14979TIP3   OH266427   4.469   2.395  15.775 -0.3544 -0.3633  0.1744
14979TIP3    H166428   4.430   2.370  15.859  2.8834 -4.1539  0.6970
14979TIP3    H266429   4.552   2.436  15.799  0.4598 -1.2067 -1.1271
14980TIP3   OH266430   4.807   6.366  14.401  0.6016 -0.1162  0.2515
14980TIP3    H166431   4.771   6.331  14.482 -0.2791  0.0120 -0.0808
14980TIP3    H266432   4.792   6.461  14.407 -0.4613 -0.2247 -0.5411
14981TIP3   OH266433   1.604   3.883  12.729 -0.5114  0.0789  0.6228
14981TIP3    H166434   1.575   3.794  12.748 -0.5550 -0.1070 -0.3071
14981TIP3    H266435   1.660   3.875  12.653 -1.2955  0.9674 -0.0602
14982TIP3   OH266436   6.518   5.558  15.391  0.4438 -0.2663 -0.0708
14982TIP3    H166437   6.611   5.579  15.400  0.0162  1.2112  1.1463
14982TIP3    H266438   6.493   5.521  15.475 -0.2530  0.0968 -0.1165
14983TIP3   OH266439   1.209   4.078   2.367  0.2961  0.4075 -0.4749
14983TIP3    H166440   1.177   4.167   2.381  0.4842  0.3512  0.2949
14983TIP3    H266441   1.135   4.033   2.326 -0.6593  0.2570  1.3775
14984TIP3   OH266442   0.517   4.143  14.756 -0.0215  0.3509 -0.0009
14984TIP3    H166443   0.589   4.112  14.701 -0.4229 -0.2899 -0.1655
14984TIP3    H266444   0.470   4.064  14.781 -0.2596  0.7052  0.6863
14985TIP3   OH266445   3.163   6.604   4.059  0.1900 -0.2771  0.4419
14985TIP3    H166446   3.147   6.560   4.143  0.4212  0.5324  0.9201
14985TIP3    H266447   3.126   6.545   3.993 -0.1260 -0.8509  1.1295
14986TIP3   OH266448   2.049   5.330  10.580  0.5417 -0.0685  0.0754
14986TIP3    H166449   1.966   5.370  10.607  0.6689 -0.3389  0.8733
14986TIP3    H266450   2.030   5.236  10.575  0.5538 -0.0328 -0.6519
14987TIP3   OH266451   3.668   2.758  12.543  0.5730  0.0674  0.0327
14987TIP3    H166452   3.671   2.839  12.593 -0.3474 -0.2469  0.6143
14987TIP3    H266453   3.727   2.698  12.589 -0.0954 -0.1471  0.6097
14988TIP3   OH266454   4.688   5.439  12.843  0.3131 -0.4527  0.0922
14988TIP3    H166455   4.597   5.414  12.857 -0.3321  1.0487 -1.1667
14988TIP3    H266456   4.688   5.535  12.853  2.1462 -0.6399  2.1062
14989TIP3   OH266457   3.746   4.749   1.216  0.0071 -1.2981 -0.3190
14989TIP3    H166458   3.710   4.775   1.131  1.0856 -0.4924 -0.5407
14989TIP3    H266459   3.670   4.748   1.275 -0.0503  2.8910 -0.1813
14990TIP3   OH266460   5.100   4.588   6.455 -0.0930 -0.1425  0.2264
14990TIP3    H166461   5.033   4.584   6.524 -0.2031  0.9077  0.1984
14990TIP3    H266462   5.164   4.651   6.488  0.3203 -0.3317 -0.2251
14991TIP3   OH266463   6.312   1.234  11.272  0.6876  0.1913  0.2466
14991TIP3    H166464   6.319   1.319  11.229 -2.4978  0.6180  0.4470
14991TIP3    H266465   6.331   1.170  11.204  2.5273  1.0389 -0.0512
14992TIP3   OH266466   2.177   2.888  15.298  0.1670 -0.2536  0.0469
14992TIP3    H166467   2.220   2.919  15.378 -0.3976  2.8659 -0.7940
14992TIP3    H266468   2.224   2.931  15.227 -1.6491 -0.1164 -1.0979
14993TIP3   OH266469   5.667   1.907   0.658  0.3655  0.1482 -0.3987
14993TIP3    H166470   5.601   1.892   0.590  2.2657 -1.1553 -2.0324
14993TIP3    H266471   5.670   2.002   0.668  1.0497  0.4968 -3.2253
14994TIP3   OH266472   3.386   3.977   1.012 -0.1909  0.5413 -0.0648
14994TIP3    H166473   3.340   4.024   0.943  1.7145  1.8085 -0.5011
14994TIP3    H266474   3.346   4.008   1.093 -2.3145 -0.8234 -0.5677
14995TIP3   OH266475   1.811   1.762   1.108 -0.0774 -0.7343 -0.0809
14995TIP3    H166476   1.814   1.796   1.018 -0.0497 -0.7898 -0.1011
14995TIP3    H266477   1.840   1.835   1.162 -2.6962  0.1867  0.1374
14996TIP3   OH266478   5.398   3.763   6.399  0.4295 -0.4492 -0.1848
14996TIP3    H166479   5.402   3.679   6.443  1.9763 -0.7419 -0.8701
14996TIP3    H266480   5.362   3.743   6.312 -0.2569 -0.2368  0.0479
14997TIP3   OH266481   1.131   0.811  16.733  0.7018 -0.1342 -0.3588
14997TIP3    H166482   1.089   0.742  16.783 -0.7076  1.0502  0.1308
14997TIP3    H266483   1.202   0.842  16.790  0.0420  0.1957  0.3025
14998TIP3   OH266484   3.884   1.840  11.018  0.7421  0.2437  0.0270
14998TIP3    H166485   3.863   1.929  11.049 -0.3244  0.3244 -0.9045
14998TIP3    H266486   3.961   1.851  10.963 -0.6710  0.9493 -1.8827
14999TIP3   OH266487   0.749   0.363  13.607 -0.1345  0.5536 -0.1566
14999TIP3    H166488   0.762   0.457  13.615 -1.3652  0.7570 -0.4410
14999TIP3    H266489   0.683   0.342  13.673 -0.5290  0.0471 -0.7061
15000TIP3   OH266490   0.266   4.481  13.142  0.8624 -0.0515 -0.2878
15000TIP3    H166491   0.296   4.426  13.070  0.0109  0.0632 -0.7405
15000TIP3    H266492   0.188   4.437  13.175  0.7200  0.3864 -0.0323
15001TIP3   OH266493   5.738   0.195  16.991 -0.4392 -0.4084 -0.0192
15001TIP3    H166494   5.703   0.196  16.902 -0.4601 -0.4329 -0.0120
15001TIP3    H266495   5.822   0.240  16.985 -1.4223  1.5342  0.3606
15002TIP3   OH266496   1.128   1.063   1.904 -0.3776 -0.2739  0.0539
15002TIP3    H166497   1.072   1.029   1.974 -1.2188  0.4746 -0.2366
15002TIP3    H266498   1.068   1.111   1.846  0.4646 -0.0026 -0.6177
15003TIP3   OH266499   1.304   4.274  15.837  0.0290  0.0913  0.2322
15003TIP3    H166500   1.245   4.342  15.869  3.7452  2.6974  1.8300
15003TIP3    H266501   1.322   4.299  15.746  2.8053  2.3362  1.3597
15004TIP3   OH266502   4.913   4.395   3.517 -0.0834 -0.0244  0.1358
15004TIP3    H166503   4.966   4.365   3.591  1.2650 -0.8193 -1.1302
15004TIP3    H266504   4.828   4.353   3.530  0.2781 -0.5138  0.9784
15005TIP3   OH266505   0.078   3.063   1.033 -0.5603  0.8262  0.4978
15005TIP3    H166506   0.014   3.087   0.965 -1.2066 -0.7208  0.5565
15005TIP3    H266507   0.090   3.144   1.083 -2.3182  1.1999  0.3578
15006TIP3   OH266508   3.505   2.524   2.456 -0.2287 -0.1833  0.2325
15006TIP3    H166509   3.541   2.610   2.434 -0.5813  0.1481  0.9050
15006TIP3    H266510   3.507   2.521   2.552  0.8844 -1.4146  0.1806
15007TIP3   OH266511   6.445   4.491  16.859  0.0127  0.0534 -0.3370
15007TIP3    H166512   6.507   4.448  16.917  0.2331 -0.1405 -0.7136
15007TIP3    H266513   6.456   4.447  16.775 -1.1035 -0.4369 -0.2411
15008TIP3   OH266514   4.556   1.627   6.941  0.0526 -0.1982  0.2107
15008TIP3    H166515   4.644   1.662   6.956  1.2498 -3.0058  0.0747
15008TIP3    H266516   4.546   1.630   6.846  0.3214 -0.5952  0.1686
15009TIP3   OH266517   3.429   4.197  12.768 -0.4097  0.5608 -0.2742
15009TIP3    H166518   3.502   4.258  12.775 -0.8756  1.1307 -0.3854
15009TIP3    H266519   3.394   4.191  12.857 -0.6966  0.8675 -0.3660
15010TIP3   OH266520   6.435   4.802   0.693 -0.1486  0.1592  0.6369
15010TIP3    H166521   6.349   4.784   0.657 -0.0875  1.0984  0.0073
15010TIP3    H266522   6.480   4.718   0.692 -0.4183  0.0281 -0.7489
15011TIP3   OH266523   2.394   5.872  16.885 -0.0162 -0.4077 -0.0288
15011TIP3    H166524   2.382   5.798  16.826  2.6721 -1.2966  0.4829
15011TIP3    H266525   2.311   5.878  16.933 -1.7914 -0.4205 -2.9888
15012TIP3   OH266526   6.763   6.548   2.249  0.4892 -0.4177  0.0970
15012TIP3    H166527   6.722   6.537   2.163  1.1050  0.1334 -0.2713
15012TIP3    H266528   6.702   6.507   2.310 -1.0354  1.1968 -0.3280
15013TIP3   OH266529   1.367   4.441   1.646  0.5981  0.1399 -0.0030
15013TIP3    H166530   1.384   4.535   1.650  0.3209  0.1546  0.9583
15013TIP3    H266531   1.442   4.400   1.689 -0.4872  0.0719  1.8938
15014TIP3   OH266532   4.054   2.837  10.572  0.2377  0.5203  0.8266
15014TIP3    H166533   4.057   2.742  10.578  0.4905  0.4685 -0.0995
15014TIP3    H266534   3.980   2.862  10.628  0.1279 -0.2245  1.0167
15015TIP3   OH266535   0.475   5.303  11.951 -0.4342 -0.5425  0.0953
15015TIP3    H166536   0.523   5.372  11.996  0.0952 -0.3272 -0.7873
15015TIP3    H266537   0.480   5.326  11.859 -1.6020 -0.9197 -0.0718
15016TIP3   OH266538   4.220   5.125   4.284 -0.1713 -0.6177 -0.1732
15016TIP3    H166539   4.134   5.098   4.315 -0.2103  1.2520  1.4317
15016TIP3    H266540   4.202   5.196   4.222  0.2494  0.8170  1.3127
15017TIP3   OH266541   2.404   3.714   5.984  0.2040  0.0700  0.7142
15017TIP3    H166542   2.428   3.798   6.023 -0.4931  1.4653 -1.7172
15017TIP3    H266543   2.486   3.665   5.980  1.0867  1.5451  0.1037
15018TIP3   OH266544   6.337   0.674  14.960  0.8117  0.6081 -0.1854
15018TIP3    H166545   6.335   0.580  14.942 -2.9353  0.6759 -0.5841
15018TIP3    H266546   6.357   0.714  14.876  0.5899  0.2452 -0.4115
15019TIP3   OH266547   0.215   4.981  14.047  0.4587  0.5089  0.1710
15019TIP3    H166548   0.284   5.017  13.993 -0.2971  0.4933 -0.8161
15019TIP3    H266549   0.250   4.983  14.136  0.9189  2.4863 -0.0302
15020TIP3   OH266550   6.012   2.192   1.246  0.2287 -0.2324  0.0869
15020TIP3    H166551   6.035   2.263   1.306  1.0423  0.1238 -0.6251
15020TIP3    H266552   5.967   2.128   1.300 -0.8869  1.0140  0.6665
15021TIP3   OH266553   4.405   4.149   5.847 -0.1055  0.0094 -0.4548
15021TIP3    H166554   4.322   4.192   5.868  0.1453  0.1588  0.2605
15021TIP3    H266555   4.472   4.209   5.878  0.2795  0.1628 -1.5915
15022TIP3   OH266556   3.116   5.709   0.399  0.4680  0.9436 -0.9835
15022TIP3    H166557   3.055   5.635   0.392  0.5363  0.8239 -0.3960
15022TIP3    H266558   3.079   5.763   0.469  1.1092  0.7925 -0.5221
15023TIP3   OH266559   0.984   2.680   3.126  0.0404 -0.5873  0.7304
15023TIP3    H166560   1.055   2.696   3.188  0.9943 -1.8667 -0.0084
15023TIP3    H266561   1.026   2.631   3.055 -1.6850 -1.7699  0.5163
15024TIP3   OH266562   3.529   5.202   0.503 -0.0097  0.3444 -0.3022
15024TIP3    H166563   3.508   5.117   0.541  0.5332 -0.2482 -1.2984
15024TIP3    H266564   3.612   5.188   0.458  0.3513  1.5432 -0.0391
15025TIP3   OH266565   1.297   5.616   3.091 -0.7829 -1.2457 -0.1377
15025TIP3    H166566   1.293   5.711   3.092  0.8539 -1.1577  1.0546
15025TIP3    H266567   1.210   5.588   3.063 -1.3585  0.5891 -0.2361
15026TIP3   OH266568   0.328   1.080   2.557  0.2530 -0.3076  0.6463
15026TIP3    H166569   0.270   1.033   2.617 -1.4407 -0.9046 -1.4346
15026TIP3    H266570   0.271   1.139   2.508  0.8130 -3.1316 -3.6579
15027TIP3   OH266571   4.999   5.144   0.378  0.1530  0.4117  0.4826
15027TIP3    H166572   4.928   5.125   0.317  0.2783  3.4505 -0.7215
15027TIP3    H266573   4.961   5.205   0.441  1.5304  1.6938  0.1052
15028TIP3   OH266574   6.438   2.438   0.318  0.1252  0.2656  0.0489
15028TIP3    H166575   6.348   2.424   0.290  0.3131 -1.9377  0.4827
15028TIP3    H266576   6.431   2.472   0.407 -0.2485 -2.3958  1.0714
15029TIP3   OH266577   5.926   2.323  11.366  0.2366 -0.6925 -0.1423
15029TIP3    H166578   6.016   2.294  11.355  0.5384  0.2548 -0.1962
15029TIP3    H266579   5.898   2.347  11.278 -0.2154 -1.3899 -0.1960
15030TIP3   OH266580   4.930   6.250  16.319 -0.4843 -0.0829 -0.2014
15030TIP3    H166581   4.909   6.183  16.383 -0.6848  1.3563  1.2763
15030TIP3    H266582   4.846   6.292  16.300 -0.2298  0.2900 -0.5018
15031TIP3   OH266583   2.733   4.028   1.608  1.2012 -0.0840  0.0330
15031TIP3    H166584   2.689   4.019   1.524  0.3358  1.3475  0.3227
15031TIP3    H266585   2.741   3.938   1.641  0.6181 -0.5545 -1.0894
15032TIP3   OH266586   0.896   6.003  15.070  0.5575 -0.0252 -0.5338
15032TIP3    H166587   0.836   5.931  15.050  0.7137 -0.1358 -0.6025
15032TIP3    H266588   0.974   5.961  15.104  1.1431  0.0278 -1.7691
15033TIP3   OH266589   1.610   6.421  12.870 -0.9787 -0.2432 -0.0910
15033TIP3    H166590   1.559   6.363  12.814  0.1474 -0.7382 -0.6065
15033TIP3    H266591   1.701   6.400  12.851 -0.5491  1.5610 -0.1620
15034TIP3   OH266592   5.686   1.235  12.262 -0.1812  0.2321  0.1511
15034TIP3    H166593   5.720   1.206  12.347  1.0293  1.2877  0.0293
15034TIP3    H266594   5.759   1.223  12.202  0.4561  3.7939  0.1366
15035TIP3   OH266595   3.154   2.455   1.302  0.2141  0.0701  0.0334
15035TIP3    H166596   3.180   2.484   1.215 -0.0001 -1.0031 -0.3881
15035TIP3    H266597   3.160   2.534   1.356  0.8697  0.6176 -0.8311
15036TIP3   OH266598   4.759   3.737  11.599 -1.2699  0.3009  0.1315
15036TIP3    H166599   4.694   3.667  11.592  0.0699 -1.1050  1.5854
15036TIP3    H266600   4.843   3.692  11.611 -0.3405  2.1390  0.7580
15037TIP3   OH266601   6.309   5.104  13.037 -0.5234 -0.5783 -0.1543
15037TIP3    H166602   6.292   5.020  12.994  0.1614 -0.9596  0.3223
15037TIP3    H266603   6.318   5.082  13.130  0.1378 -0.0439 -0.0901
15038TIP3   OH266604   3.082   5.820  11.402  1.0125 -0.5822  0.2260
15038TIP3    H166605   3.006   5.872  11.427  1.0752  0.2973 -1.3482
15038TIP3    H266606   3.113   5.861  11.321  2.7373 -1.3612  0.4839
15039TIP3   OH266607   4.405   3.405   6.359  0.4807 -0.1311 -0.1471
15039TIP3    H166608   4.363   3.491   6.352  2.0547  0.6682  0.0817
15039TIP3    H266609   4.498   3.423   6.350  0.9725 -1.5975  1.7304
15040TIP3   OH266610   4.080   3.445  13.885  0.4642  0.4339 -0.2429
15040TIP3    H166611   4.160   3.471  13.930 -1.7245 -0.2245  4.3445
15040TIP3    H266612   4.037   3.528  13.863  1.3827  0.7604 -0.8471
15041TIP3   OH266613   1.933   2.734   2.708  0.6771 -0.2503 -0.1001
15041TIP3    H166614   1.859   2.794   2.716  1.1108  0.6078 -2.1247
15041TIP3    H266615   1.916   2.666   2.772 -0.8386  1.0030  0.8678
15042TIP3   OH266616   0.568   0.040   4.505 -0.1656  0.5201  0.2577
15042TIP3    H166617   0.495   0.024   4.566  0.4189 -0.2161  0.7728
15042TIP3    H266618   0.640  -0.012   4.540  0.4011  0.6865 -0.6515
15043TIP3   OH266619   6.434   3.652  11.639  0.3364  0.5581  0.1729
15043TIP3    H166620   6.476   3.677  11.556 -1.1309  3.8342  0.3809
15043TIP3    H266621   6.506   3.618  11.692  1.8797  1.5512 -1.2287
15044TIP3   OH266622   1.234   1.716   2.385 -0.0325  0.0306  0.5551
15044TIP3    H166623   1.231   1.627   2.420  0.6052 -0.1044  0.2604
15044TIP3    H266624   1.322   1.724   2.347 -0.1374  0.7376  0.4655
15045TIP3   OH266625   3.657   3.921   3.811 -0.5003 -0.2629 -0.7272
15045TIP3    H166626   3.610   3.855   3.760  1.0337 -1.7275 -0.2728
15045TIP3    H266627   3.635   4.004   3.768  0.1062 -1.3775 -3.3191
15046TIP3   OH266628   1.856   6.320   2.464  0.4762 -0.2707 -0.3653
15046TIP3    H166629   1.863   6.415   2.452  1.2044 -0.0846  1.2694
15046TIP3    H266630   1.787   6.293   2.404 -1.3285  1.6383  0.7417
15047TIP3   OH266631   2.793   5.697  11.686 -0.0820 -0.0968 -0.2894
15047TIP3    H166632   2.741   5.623  11.717  0.1096 -0.4575 -0.8297
15047TIP3    H266633   2.739   5.738  11.619  0.7664 -1.1014 -1.6091
15048TIP3   OH266634   0.629   0.531   2.273  0.0012  0.0269  0.1192
15048TIP3    H166635   0.654   0.442   2.248 -0.0088 -0.4801  1.8638
15048TIP3    H266636   0.630   0.531   2.369  0.8917  2.1624  0.1577
15049TIP3   OH266637   3.084   5.048  17.113 -0.0677 -0.4144  0.0291
15049TIP3    H166638   3.027   4.974  17.093 -1.0783  0.5234 -0.5418
15049TIP3    H266639   3.036   5.100  17.177  0.1729  0.3536 -0.4101
15050TIP3   OH266640   3.958   5.361   5.704 -0.2063 -0.1487  0.0605
15050TIP3    H166641   3.991   5.357   5.794  0.4718 -0.3741 -0.1907
15050TIP3    H266642   4.037   5.377   5.651 -0.6218  0.1238 -0.4777
15051TIP3   OH266643   2.862   3.135   3.361 -0.0087  0.3589 -0.2169
15051TIP3    H166644   2.925   3.204   3.384  1.3427 -1.4575  1.6932
15051TIP3    H266645   2.873   3.125   3.266  3.4450 -0.6405  0.1939
15052TIP3   OH266646   3.605   4.536  16.649 -0.5861  0.3904  0.0441
15052TIP3    H166647   3.512   4.555  16.660 -0.3830  0.9698  0.8004
15052TIP3    H266648   3.626   4.478  16.721 -0.5476 -0.4073 -0.6075
15053TIP3   OH266649   2.194   5.183   0.571  0.7071 -0.4694  0.3989
15053TIP3    H166650   2.154   5.118   0.629 -1.2538  0.7670  0.5001
15053TIP3    H266651   2.166   5.267   0.607 -0.7856  0.3130 -2.4403
15054TIP3   OH266652   3.815   1.467   4.353 -0.0131 -0.8037 -0.3923
15054TIP3    H166653   3.909   1.461   4.333 -0.0360 -0.5573 -0.5724
15054TIP3    H266654   3.807   1.546   4.407 -0.1263 -0.7983 -0.4182
15055TIP3   OH266655   1.640   1.067   4.914 -0.0753 -0.7179 -0.4499
15055TIP3    H166656   1.576   1.137   4.911  0.3618 -0.1430  2.2476
15055TIP3    H266657   1.588   0.988   4.932 -0.5746 -1.1693 -3.5607
15056TIP3   OH266658   2.876   4.531   1.308 -0.0304  0.5259  1.0608
15056TIP3    H166659   2.951   4.573   1.265 -1.1206  1.0099 -0.4005
15056TIP3    H266660   2.802   4.589   1.291 -1.1076 -0.8474  0.9044
15057TIP3   OH266661   0.635   3.554  15.598  0.5533 -0.2555 -0.2034
15057TIP3    H166662   0.690   3.604  15.537 -1.7109  1.0880 -1.2159
15057TIP3    H266663   0.656   3.462  15.579 -0.1920  0.1242 -3.1334
15058TIP3   OH266664   3.103   2.430  13.901  0.2182 -0.1094 -0.7005
15058TIP3    H166665   3.133   2.454  13.814 -0.0953 -1.4972 -1.1963
15058TIP3    H266666   3.039   2.360  13.887 -0.5840  0.3479  0.5732
15059TIP3   OH266667   6.113   6.177   3.008  0.0208  0.1814 -0.4068
15059TIP3    H166668   6.092   6.086   3.029  1.2481 -0.0424 -0.0742
15059TIP3    H266669   6.205   6.186   3.034  0.2549  1.1762 -1.5439
15060TIP3   OH266670   2.783   4.480  13.471  0.2749 -0.3951 -0.4106
15060TIP3    H166671   2.720   4.449  13.536  0.0644 -0.8559 -0.8341
15060TIP3    H266672   2.864   4.435  13.493  0.7262  0.9065  0.7199
15061TIP3   OH266673   5.201   3.622  11.743 -0.3144  0.0639  0.2415
15061TIP3    H166674   5.223   3.688  11.677  0.0299 -0.4615 -0.1695
15061TIP3    H266675   5.141   3.667  11.803 -1.6697  0.1519 -1.1679
15062TIP3   OH266676   5.402   4.802  13.222 -0.2278  0.2965  0.4033
15062TIP3    H166677   5.318   4.784  13.265  0.6201 -0.0933  1.9506
15062TIP3    H266678   5.450   4.719  13.229  0.6427  0.7961  0.3887
15063TIP3   OH266679   1.672   1.451   0.517  0.1091 -0.3048  0.2923
15063TIP3    H166680   1.677   1.547   0.522  0.0699 -0.2813 -0.1132
15063TIP3    H266681   1.671   1.423   0.609 -0.2217  0.1029  0.4202
15064TIP3   OH266682   4.838   1.174  17.070 -0.3223 -0.1312 -0.7575
15064TIP3    H166683   4.820   1.091  17.113  0.9957 -0.3176 -0.5461
15064TIP3    H266684   4.797   1.240  17.126 -1.1388 -0.6143 -0.7854
15065TIP3   OH266685   3.374   3.731  16.092  0.5224  0.0022 -0.0949
15065TIP3    H166686   3.347   3.748  16.002 -2.7922 -2.2541  0.3870
15065TIP3    H266687   3.330   3.798  16.143 -1.1218 -1.3197  0.2682
15066TIP3   OH266688   1.391   1.160  16.277 -0.6692  0.0683 -0.1899
15066TIP3    H166689   1.457   1.229  16.280  0.5968 -1.1344 -0.1948
15066TIP3    H266690   1.320   1.193  16.332  0.5738  0.7209  1.0465
15067TIP3   OH266691   4.526   4.086   5.342 -0.4507 -0.1345  0.0009
15067TIP3    H166692   4.549   4.133   5.262 -0.2451 -0.0650  0.1004
15067TIP3    H266693   4.583   4.124   5.409 -0.8926  0.0785  0.2595
15068TIP3   OH266694   3.769   1.122  12.052  0.0652  0.5928 -0.1678
15068TIP3    H166695   3.863   1.120  12.073 -0.2006  0.7647  1.0758
15068TIP3    H266696   3.736   1.038  12.084 -0.2646  0.6704 -0.3070
15069TIP3   OH266697   4.505   1.825   6.429 -0.2930  0.0231  0.2241
15069TIP3    H166698   4.555   1.838   6.348  0.2870 -1.5510  0.3160
15069TIP3    H266699   4.535   1.894   6.488  0.0591  0.5216 -0.5350
15070TIP3   OH266700   4.510   0.197  15.605  0.4840  0.6179 -0.3182
15070TIP3    H166701   4.592   0.244  15.623  1.5385 -0.0323 -3.0302
15070TIP3    H266702   4.460   0.258  15.550  1.3602 -0.8784 -2.8675
15071TIP3   OH266703   2.853   2.470   5.758 -0.3648 -0.2150 -0.0573
15071TIP3    H166704   2.785   2.449   5.694  0.7031 -1.0135 -0.9484
15071TIP3    H266705   2.847   2.399   5.823  0.9146 -1.3901 -1.1956
15072TIP3   OH266706   5.214   6.695   0.790  0.3247 -0.0986  0.5853
15072TIP3    H166707   5.190   6.657   0.875  1.9721  0.2198  1.2163
15072TIP3    H266708   5.297   6.653   0.768 -0.2259 -0.3815 -1.0217
15073TIP3   OH266709   4.750   3.914   0.138  0.4371  0.1236 -0.0928
15073TIP3    H166710   4.832   3.930   0.091  0.0381 -0.3263 -0.9367
15073TIP3    H266711   4.746   3.819   0.149  0.1540  0.1658  0.1794
15074TIP3   OH266712   1.725   4.971   3.915  0.0670  0.1351 -0.2886
15074TIP3    H166713   1.811   5.010   3.902 -0.1945  1.1424  0.8499
15074TIP3    H266714   1.735   4.913   3.991  0.1408 -1.0472 -1.1878
15075TIP3   OH266715   2.719   2.545   1.267 -0.0340  0.1978  0.3565
15075TIP3    H166716   2.683   2.633   1.254 -1.3013 -0.2277  0.9459
15075TIP3    H266717   2.740   2.514   1.179 -2.2748 -0.0277 -0.1105
15076TIP3   OH266718   4.239   2.037  15.979  0.2882  0.3761 -0.7829
15076TIP3    H166719   4.310   1.991  15.935  1.8064 -0.2948  2.2031
15076TIP3    H266720   4.198   1.970  16.034 -0.4656  1.5513  0.0948
15077TIP3   OH266721   3.811   4.223   5.368  0.8048  0.2953  0.0077
15077TIP3    H166722   3.753   4.265   5.432 -0.8022 -2.0868  0.2093
15077TIP3    H266723   3.895   4.215   5.413  0.2424  0.4598  1.1013
15078TIP3   OH266724   3.678   4.148   1.012  0.1928 -0.6831 -0.3866
15078TIP3    H166725   3.588   4.151   0.981  0.7098  0.0982 -1.8715
15078TIP3    H266726   3.701   4.055   1.013  0.5586 -0.6538 -3.5708
15079TIP3   OH266727   6.282   2.190  12.984  0.9883  0.2018  0.7090
15079TIP3    H166728   6.190   2.215  12.999  0.5169 -0.9588 -0.1951
15079TIP3    H266729   6.331   2.271  13.000 -0.3882  1.4319 -1.0244
15080TIP3   OH266730   3.459   3.591  15.666  0.8640  0.2100  0.4008
15080TIP3    H166731   3.489   3.596  15.757  3.5305  1.0136 -0.4719
15080TIP3    H266732   3.464   3.681  15.634  1.2509 -0.2678 -0.9267
15081TIP3   OH266733   3.345   2.404  10.770  0.5074 -0.6801  0.1382
15081TIP3    H166734   3.405   2.472  10.740  0.4876 -0.6690  0.1234
15081TIP3    H266735   3.367   2.328  10.716  0.4222 -0.6387  0.0460
15082TIP3   OH266736   3.802   3.159   4.399  0.7671  0.2026 -0.0154
15082TIP3    H166737   3.830   3.141   4.309  1.3394 -2.9181  0.7650
15082TIP3    H266738   3.866   3.114   4.454  0.2018  1.7784  1.9911
15083TIP3   OH266739   2.810   3.770   2.968  0.2369 -0.9229  0.0319
15083TIP3    H166740   2.795   3.747   3.059  0.0539  0.7305  0.4402
15083TIP3    H266741   2.742   3.834   2.948  1.9472  0.8146 -0.4246
15084TIP3   OH266742   3.353   1.153  13.434  0.1237  0.2729  0.5200
15084TIP3    H166743   3.375   1.062  13.450 -0.6743  0.0945  0.6029
15084TIP3    H266744   3.438   1.196  13.417  0.3216 -0.8581 -1.4682
15085TIP3   OH266745   1.963   1.335   4.031 -0.2289 -0.4993 -0.1554
15085TIP3    H166746   1.914   1.253   4.030 -0.1919 -0.5270  0.4606
15085TIP3    H266747   2.040   1.318   3.976 -1.4976 -0.0833 -2.1214
15086TIP3   OH266748   5.527   6.635  15.461  0.0557  0.0133  0.2339
15086TIP3    H166749   5.538   6.729  15.452  1.5627 -0.2597 -0.8657
15086TIP3    H266750   5.545   6.617  15.553 -0.7742  0.8549  0.5702
15087TIP3   OH266751   4.623   4.584   2.859  0.4668 -0.2390 -0.3308
15087TIP3    H166752   4.696   4.537   2.818 -0.6424 -1.1158 -1.3322
15087TIP3    H266753   4.651   4.676   2.858  0.1412 -0.1308 -3.8236
15088TIP3   OH266754   3.738   4.939   1.755 -0.1261 -0.0109 -0.0199
15088TIP3    H166755   3.788   4.991   1.692 -0.4710 -0.8642 -1.0257
15088TIP3    H266756   3.787   4.858   1.764 -0.5653 -0.2680  0.0959
15089TIP3   OH266757   5.099   6.384  16.663  0.5053  0.7014  0.4139
15089TIP3    H166758   5.137   6.347  16.742 -0.0062  2.7240  1.6193
15089TIP3    H266759   5.007   6.397  16.683  0.1920  0.4591 -0.7960
15090TIP3   OH266760   5.879   2.639  12.815  0.5317  0.3224  0.1544
15090TIP3    H166761   5.922   2.681  12.740 -1.1691  0.1920 -0.9207
15090TIP3    H266762   5.944   2.577  12.848  1.4805  0.7190 -0.9242
15091TIP3   OH266763   5.491   0.498   1.840 -0.4829 -0.1111 -0.4437
15091TIP3    H166764   5.405   0.458   1.826 -0.7412  0.2194  0.1557
15091TIP3    H266765   5.549   0.453   1.779 -0.6464 -1.7824  0.6075
15092TIP3   OH266766   6.273   0.506  11.420  0.2452 -0.8355  1.0474
15092TIP3    H166767   6.209   0.571  11.390  0.5420 -0.6615  0.8009
15092TIP3    H266768   6.357   0.540  11.391  0.5202 -0.7315  1.9518
15093TIP3   OH266769   0.004   1.944   3.206 -0.1298 -0.2427  0.0993
15093TIP3    H166770  -0.033   1.868   3.162 -1.2937  0.1799  0.3334
15093TIP3    H266771   0.033   1.912   3.291 -0.2249 -0.5090  0.0292
15094TIP3   OH266772   4.403   5.289   3.110  0.1775  0.0066 -0.2010
15094TIP3    H166773   4.486   5.292   3.158 -0.4479 -0.3762  0.9279
15094TIP3    H266774   4.348   5.354   3.155 -0.9100 -1.4153  0.5526
15095TIP3   OH266775   0.691   5.371  13.899 -0.2760  0.6168  0.7499
15095TIP3    H166776   0.611   5.403  13.857  0.2356  1.5963  0.4997
15095TIP3    H266777   0.743   5.333  13.828 -0.5373 -0.0645  0.9199
15096TIP3   OH266778   2.332   0.612   5.085  0.2944 -0.5497 -0.7460
15096TIP3    H166779   2.345   0.660   5.166  0.0338  0.6899 -1.4310
15096TIP3    H266780   2.416   0.568   5.069  0.3074 -0.8967  0.2439
15097TIP3   OH266781   1.887   2.783   0.065  0.2520 -0.4169 -0.7877
15097TIP3    H166782   1.793   2.765   0.061  0.4384 -1.1048 -2.3889
15097TIP3    H266783   1.912   2.760   0.154 -1.0777 -0.3222 -0.3787
15098TIP3   OH266784   3.641   2.759   4.513 -0.5737 -0.1587 -0.1260
15098TIP3    H166785   3.574   2.721   4.571 -0.6030 -2.2797 -1.4883
15098TIP3    H266786   3.592   2.816   4.455 -0.8599  0.1746  0.4337
15099TIP3   OH266787   3.180   4.930   3.926  0.2690 -0.1418 -0.7006
15099TIP3    H166788   3.184   5.025   3.920 -1.2740  0.0423  0.8134
15099TIP3    H266789   3.271   4.902   3.917  0.6687  1.4202 -1.7573
15100TIP3   OH266790   1.614   5.215   6.790 -0.2213  0.3236  0.1708
15100TIP3    H166791   1.559   5.167   6.728  0.9931 -0.1607 -0.5548
15100TIP3    H266792   1.696   5.230   6.742  0.2963  0.9939  1.2458
15101TIP3   OH266793   0.585   1.992   0.906 -0.2259 -0.0567 -0.1381
15101TIP3    H166794   0.674   2.028   0.908  0.6415 -2.1689  0.1265
15101TIP3    H266795   0.571   1.969   0.814 -0.4970  0.2801 -0.1801
15102TIP3   OH266796   4.423   5.848  13.595 -0.1330  0.3916  0.0681
15102TIP3    H166797   4.450   5.775  13.651  2.1997  1.3705  0.2722
15102TIP3    H266798   4.483   5.845  13.521 -1.3249  0.8846 -0.9445
15103TIP3   OH266799   4.458   2.543   6.383 -0.4260 -0.2654 -0.2116
15103TIP3    H166800   4.461   2.453   6.351  2.3747  0.0825 -1.0627
15103TIP3    H266801   4.468   2.535   6.478 -1.0398 -0.8961 -0.1987
15104TIP3   OH266802   5.266   0.800   0.207 -0.1959  0.4270  0.2030
15104TIP3    H166803   5.328   0.786   0.135 -0.2917 -0.9549  0.3801
15104TIP3    H266804   5.182   0.770   0.172 -0.0292 -1.3391  1.2616
15105TIP3   OH266805   3.971   3.781   3.114 -0.0158  0.4174  0.0486
15105TIP3    H166806   3.968   3.876   3.116 -1.0043  0.3866  0.9462
15105TIP3    H266807   3.885   3.755   3.080 -0.1486 -0.1554  0.7938
15106TIP3   OH266808   5.620   0.958   3.365 -0.0689  0.0059 -0.2163
15106TIP3    H166809   5.554   0.899   3.402  1.1841 -0.7354  0.8657
15106TIP3    H266810   5.690   0.899   3.335  1.3232  0.9658  1.1382
15107TIP3   OH266811   0.617   4.348   1.339 -0.1024 -0.3627  0.3262
15107TIP3    H166812   0.605   4.422   1.398  0.5295  0.7439 -0.9018
15107TIP3    H266813   0.707   4.320   1.356 -0.4439 -1.0527  1.0115
15108TIP3   OH266814   3.121   1.892  11.507 -0.2994 -0.1851  0.3231
15108TIP3    H166815   3.132   1.959  11.440  1.7463  0.8129  1.6146
15108TIP3    H266816   3.210   1.869  11.533 -1.0500 -0.5011  2.7283
15109TIP3   OH266817   5.772   5.550   2.117  0.5947  0.0080  0.1181
15109TIP3    H166818   5.744   5.552   2.025 -0.3054  1.1116  0.4069
15109TIP3    H266819   5.863   5.579   2.115  0.8818 -0.8836 -0.5161
15110TIP3   OH266820   2.113   2.800  13.400  0.0775 -0.7878  0.1512
15110TIP3    H166821   2.018   2.789  13.398  0.2123 -2.1729  0.4555
15110TIP3    H266822   2.137   2.782  13.491  0.4867  1.0166  0.4172
15111TIP3   OH266823   0.541   5.851  16.362 -0.4500 -0.4019  0.1245
15111TIP3    H166824   0.495   5.881  16.441 -0.4475  0.1073 -0.0609
15111TIP3    H266825   0.610   5.794  16.394 -1.6814 -1.7859  0.3587
15112TIP3   OH266826   6.790   6.219  11.105  0.4587  0.6732  0.3156
15112TIP3    H166827   6.753   6.292  11.055  1.1908 -0.6515 -2.1987
15112TIP3    H266828   6.770   6.141  11.054  2.0382 -0.6352  1.6250
15113TIP3   OH266829   1.498   1.223   0.304 -0.3329  0.5803 -0.1752
15113TIP3    H166830   1.463   1.222   0.393 -0.4758  1.9600 -0.2001
15113TIP3    H266831   1.477   1.137   0.268 -0.2208 -0.0061  1.1413
15114TIP3   OH266832   2.282   4.607  16.170 -0.0351 -0.3656 -0.6910
15114TIP3    H166833   2.251   4.569  16.253 -1.2509 -2.4920 -2.0519
15114TIP3    H266834   2.260   4.700  16.176  0.9422 -0.2541  1.8335
15115TIP3   OH266835   2.784   1.571  12.587  0.5025 -0.4323 -0.0544
15115TIP3    H166836   2.774   1.608  12.500  0.2494 -0.4368 -0.0269
15115TIP3    H266837   2.697   1.576  12.626  0.7054 -0.0312  0.3565
15116TIP3   OH266838   1.989   5.237  16.596  0.2406  0.3417  0.3432
15116TIP3    H166839   2.066   5.236  16.653  0.7858 -0.6440 -0.3724
15116TIP3    H266840   1.916   5.256  16.654  0.5774 -2.1859  1.6767
15117TIP3   OH266841   2.690   4.968   2.031 -0.4304  0.2108 -0.1656
15117TIP3    H166842   2.597   4.946   2.036 -1.0516  2.6612 -0.0608
15117TIP3    H266843   2.715   4.984   2.122  0.0421 -0.2133 -0.2209
15118TIP3   OH266844   5.126   6.352  12.420  0.4644 -0.3180  0.3350
15118TIP3    H166845   5.133   6.258  12.437  3.6339 -0.5077 -1.7022
15118TIP3    H266846   5.181   6.393  12.487  0.3020 -0.0025  0.2771
15119TIP3   OH266847   3.615   4.888  11.845 -0.1020  0.1957 -0.3428
15119TIP3    H166848   3.576   4.929  11.922  2.0960  0.1266  0.8626
15119TIP3    H266849   3.653   4.806  11.878  0.6815  0.0587 -1.5221
15120TIP3   OH266850   1.167   0.711   5.406  0.0057 -0.5801  0.2882
15120TIP3    H166851   1.231   0.736   5.472  0.6377 -0.6507 -0.2890
15120TIP3    H266852   1.082   0.720   5.449  0.4786 -2.0778  1.5846
15121TIP3   OH266853   6.257   2.686   5.939 -0.3353 -0.5096 -0.3928
15121TIP3    H166854   6.319   2.755   5.965  1.7217 -2.3323 -0.2640
15121TIP3    H266855   6.234   2.707   5.849 -0.3947  0.8116 -0.0826
15122TIP3   OH266856   1.323   0.320   5.683 -0.6360 -0.1748  0.0382
15122TIP3    H166857   1.256   0.299   5.748 -0.6440  0.5453  0.2663
15122TIP3    H266858   1.367   0.237   5.667 -1.4605 -0.6120  0.0279
15123TIP3   OH266859   0.272   4.608  15.318 -0.1792  0.0940 -0.6653
15123TIP3    H166860   0.292   4.564  15.235  0.1428  0.1029 -0.5920
15123TIP3    H266861   0.355   4.609  15.365 -0.9819 -2.6126  0.9281
15124TIP3   OH266862   5.415   6.132   2.320 -0.8229 -0.1920  0.2290
15124TIP3    H166863   5.332   6.178   2.322 -0.1342  1.1916 -1.6927
15124TIP3    H266864   5.447   6.135   2.410 -0.8156  3.0777  0.1631
15125TIP3   OH266865   1.531   0.339   4.913 -0.1311 -0.3476 -0.3149
15125TIP3    H166866   1.496   0.253   4.938 -0.7936  0.3048  1.0818
15125TIP3    H266867   1.574   0.371   4.993 -1.0110  1.1665 -0.4388
15126TIP3   OH266868   3.993   5.370   4.302 -0.0155  0.3745  0.2921
15126TIP3    H166869   3.924   5.305   4.293 -1.5260  2.2316 -2.1979
15126TIP3    H266870   4.052   5.353   4.229  0.9468  0.2700  1.0717
15127TIP3   OH266871   6.574   1.087  15.452  0.5784  0.1435 -0.2764
15127TIP3    H166872   6.620   1.005  15.471 -1.8845 -1.0382  0.9034
15127TIP3    H266873   6.540   1.077  15.363 -1.2201 -0.9148  0.4908
15128TIP3   OH266874   5.437   5.558  13.767 -0.1337 -0.2140  0.4544
15128TIP3    H166875   5.501   5.488  13.779 -1.4384 -1.3499  0.8960
15128TIP3    H266876   5.448   5.585  13.675 -0.1213 -1.5076  0.0699
15129TIP3   OH266877   1.739   4.959   0.762 -0.1367  0.3507  0.0730
15129TIP3    H166878   1.675   5.025   0.735 -0.6143  0.8692  2.3515
15129TIP3    H266879   1.720   4.883   0.706  0.0943  1.9368 -2.2350
15130TIP3   OH266880   2.922   1.067   5.170  0.7863 -1.2055  0.1652
15130TIP3    H166881   2.918   0.982   5.212 -0.3779 -0.7091  1.0683
15130TIP3    H266882   2.929   1.047   5.076 -0.8941 -2.2781  0.2586
15131TIP3   OH266883   1.648   4.068   5.689 -0.5111  0.0607  0.2981
15131TIP3    H166884   1.721   4.034   5.637 -0.0316 -0.1611  1.0980
15131TIP3    H266885   1.615   3.992   5.737  0.8012  0.7285  2.3710
15132TIP3   OH266886   3.860   1.253   4.849 -0.4366 -0.2369 -0.2491
15132TIP3    H166887   3.824   1.202   4.777  0.6442  0.2827 -1.1706
15132TIP3    H266888   3.948   1.217   4.862 -0.9701 -0.9792  1.4653
15133TIP3   OH266889   0.399   4.995  13.060 -0.1969  0.1164 -0.1151
15133TIP3    H166890   0.404   4.903  13.085  0.1608  0.4940  1.2640
15133TIP3    H266891   0.314   5.024  13.092 -0.5864  0.1029 -1.1296
15134TIP3   OH266892   1.366   4.175   4.008  0.0102 -0.0299 -0.6989
15134TIP3    H166893   1.320   4.140   4.084 -1.6504 -1.1246 -2.1733
15134TIP3    H266894   1.302   4.172   3.937  0.7241  3.3379 -1.5883
15135TIP3   OH266895   5.806   2.995  14.563  0.1298 -0.0563 -0.7571
15135TIP3    H166896   5.778   3.084  14.543 -0.1442  0.0069 -0.1083
15135TIP3    H266897   5.725   2.948  14.583  0.2748 -0.4456 -1.0694
15136TIP3   OH266898   2.332   3.087   5.381  0.0080 -0.8990 -0.1744
15136TIP3    H166899   2.404   3.151   5.381  0.2015 -1.1151 -0.4862
15136TIP3    H266900   2.284   3.105   5.301 -0.0445 -1.0289 -0.1719
15137TIP3   OH266901   4.545   4.975  16.970 -0.4754  0.1430 -0.0414
15137TIP3    H166902   4.640   4.985  16.984 -0.3245  1.0884 -1.6779
15137TIP3    H266903   4.529   5.015  16.885 -2.5094  0.7979  0.6278
15138TIP3   OH266904   1.917   2.691   2.097  0.1992 -0.4953  0.0726
15138TIP3    H166905   1.942   2.667   2.008  0.5043  0.6070 -0.1476
15138TIP3    H266906   1.886   2.610   2.136 -0.4121 -0.8799 -1.2040
15139TIP3   OH266907   6.232   4.491  15.717  0.2052  0.3736  0.3580
15139TIP3    H166908   6.178   4.556  15.761 -1.4990 -1.3954  0.9596
15139TIP3    H266909   6.294   4.461  15.785 -0.4897 -0.2319  0.7341
15140TIP3   OH266910   0.311   0.640   1.267  0.1855  0.5087 -0.2327
15140TIP3    H166911   0.323   0.735   1.268 -0.5004  0.5905  0.6143
15140TIP3    H266912   0.394   0.606   1.233  1.1778  1.2935  1.3245
15141TIP3   OH266913   2.428   1.652   1.413 -0.1816  0.3536 -0.0416
15141TIP3    H166914   2.485   1.716   1.457  0.1385 -0.6299  1.0140
15141TIP3    H266915   2.489   1.589   1.374 -0.5161  0.1952 -0.3075
15142TIP3   OH266916   0.794   2.490   5.067 -0.4669  0.5987 -0.1871
15142TIP3    H166917   0.830   2.404   5.088  2.9453  2.4794  2.1026
15142TIP3    H266918   0.732   2.508   5.137 -1.7365 -0.2314 -1.0617
15143TIP3   OH266919   3.021   6.149   6.034  0.3980 -0.0677  0.1926
15143TIP3    H166920   3.102   6.102   6.055  1.5021  1.3098 -0.8909
15143TIP3    H266921   3.032   6.235   6.074 -1.2978 -0.4610  1.5356
15144TIP3   OH266922   6.310   3.092  14.077  0.4078 -0.2019  0.2932
15144TIP3    H166923   6.294   3.123  13.988 -1.4447 -1.7450  0.0390
15144TIP3    H266924   6.390   3.040  14.070  0.1278 -0.5334 -0.5391
15145TIP3   OH266925   4.482   0.847   3.061  0.5518  0.4185 -0.3999
15145TIP3    H166926   4.427   0.814   3.132  0.0950  0.5809 -0.6763
15145TIP3    H266927   4.425   0.906   3.012  1.2036  1.1823 -0.2404
15146TIP3   OH266928   5.878   1.173   2.089  0.0468 -0.1170 -0.0643
15146TIP3    H166929   5.783   1.167   2.097  0.0810 -0.3080  0.2223
15146TIP3    H266930   5.893   1.242   2.025 -0.2434  1.5493  1.6210
15147TIP3   OH266931   5.442   1.922  12.254  0.4660  0.2241 -0.4582
15147TIP3    H166932   5.492   1.897  12.332 -0.2101  0.9112  0.1961
15147TIP3    H266933   5.414   2.012  12.271 -1.5327 -0.3707 -0.5487
15148TIP3   OH266934   0.827   2.849  16.403 -0.3314 -0.1549 -0.3173
15148TIP3    H166935   0.818   2.753  16.405  0.5545 -0.2374 -0.0436
15148TIP3    H266936   0.878   2.867  16.324 -2.0920  0.2387 -1.3830
15149TIP3   OH266937   2.608   2.682   4.094 -0.1209  0.0063  0.1844
15149TIP3    H166938   2.649   2.683   4.180 -1.9768 -0.2963  1.1080
15149TIP3    H266939   2.664   2.737   4.040  0.9007  0.4661  1.6678
15150TIP3   OH266940   6.200   4.400  17.070  0.2205 -0.1910 -0.9970
15150TIP3    H166941   6.269   4.404  17.004 -0.4872  2.3366 -1.6449
15150TIP3    H266942   6.232   4.456  17.141  0.1183 -1.3541 -0.0133
15151TIP3   OH266943   5.857   4.868   4.153 -0.1640  0.2537 -0.1335
15151TIP3    H166944   5.832   4.951   4.114  0.1494  0.6523  0.5025
15151TIP3    H266945   5.845   4.804   4.083 -0.7032  0.7828 -0.5326
15152TIP3   OH266946   2.484   6.617   1.907  0.1141 -0.0886 -0.7417
15152TIP3    H166947   2.487   6.651   1.817  1.7263  1.4589 -0.1273
15152TIP3    H266948   2.576   6.600   1.929 -0.0933  1.2238  1.2257
15153TIP3   OH266949   0.420   2.941  13.720  0.0912 -0.9557  0.0968
15153TIP3    H166950   0.357   2.929  13.649 -0.5504 -1.0396  0.6668
15153TIP3    H266951   0.505   2.935  13.678 -0.2769  1.7384 -1.1097
15154TIP3   OH266952   6.298   4.857  15.648  0.4103 -0.2686  0.4738
15154TIP3    H166953   6.346   4.908  15.713  0.0915  1.0842 -0.3214
15154TIP3    H266954   6.366   4.815  15.596  0.7447  0.9783 -0.1274
15155TIP3   OH266955   6.272   3.674   1.456 -0.4923 -0.1308  0.1795
15155TIP3    H166956   6.302   3.584   1.468 -0.3073 -0.2443 -1.0308
15155TIP3    H266957   6.343   3.716   1.407 -1.0417  0.3838 -0.1766
15156TIP3   OH266958   1.417   6.274   1.030  0.3754  0.0689 -0.2250
15156TIP3    H166959   1.495   6.295   1.081  0.8758  0.4716 -1.1477
15156TIP3    H266960   1.346   6.272   1.094  1.4557 -2.3025  0.9351
15157TIP3   OH266961   5.415   5.652  12.519 -0.3505  0.4224  0.2508
15157TIP3    H166962   5.511   5.645  12.519 -0.4315 -0.6614 -0.1740
15157TIP3    H266963   5.386   5.588  12.455 -1.4957 -1.1638  2.3014
15158TIP3   OH266964   0.184   6.529  12.284  0.1217  0.2546  0.0529
15158TIP3    H166965   0.215   6.440  12.297  1.3759  0.3780 -1.7976
15158TIP3    H266966   0.179   6.567  12.372  0.9817 -1.1866  0.7319
15159TIP3   OH266967   6.497   5.905   1.054 -0.4477 -0.3889 -0.6479
15159TIP3    H166968   6.480   5.985   1.003  1.9929 -0.4903 -1.6819
15159TIP3    H266969   6.462   5.834   1.000  0.0713 -0.2927 -1.1056
15160TIP3   OH266970   5.865   1.297   4.154 -0.1720 -0.7434  0.2978
15160TIP3    H166971   5.895   1.351   4.080  1.6608 -1.9662  0.1187
15160TIP3    H266972   5.820   1.223   4.113  0.5134 -1.2237  0.3873
15161TIP3   OH266973   6.217   2.484   3.635  0.2695  0.0525  0.2070
15161TIP3    H166974   6.157   2.440   3.696  0.3956  1.8713  1.6924
15161TIP3    H266975   6.296   2.430   3.636 -0.3364 -0.8406  0.3839
15162TIP3   OH266976   5.797   4.308   0.342  0.6086 -0.0101  0.2235
15162TIP3    H166977   5.704   4.330   0.343  0.9984  1.7401 -0.2029
15162TIP3    H266978   5.841   4.392   0.334  2.2969 -0.6923  2.0104
15163TIP3   OH266979   5.653   1.595   3.884 -0.3856  0.7848 -0.2073
15163TIP3    H166980   5.621   1.613   3.972 -1.0876  1.3616 -0.5625
15163TIP3    H266981   5.674   1.502   3.883 -1.0317  0.6339  0.3692
15164TIP3   OH266982   3.061   0.622   4.321  0.1634  0.1029 -0.3278
15164TIP3    H166983   2.990   0.560   4.339 -0.8641  1.4786  0.4317
15164TIP3    H266984   3.097   0.642   4.407  1.9476 -1.1010 -0.7601
15165TIP3   OH266985   0.642   1.226   5.003  0.2804  0.2726  0.2392
15165TIP3    H166986   0.548   1.232   5.022  0.9441  0.2106  3.8809
15165TIP3    H266987   0.654   1.138   4.968 -0.7235 -0.5494  1.8706
15166TIP3   OH266988   0.626   0.967  12.673 -0.2619  0.4227  0.3079
15166TIP3    H166989   0.582   1.046  12.704 -0.2239  0.5628  0.0085
15166TIP3    H266990   0.561   0.898  12.684  0.0294  0.3265  1.4478
15167TIP3   OH266991   4.334   5.177  16.177  0.0289 -0.0682  0.2441
15167TIP3    H166992   4.337   5.091  16.134  0.9172  0.6215 -1.1066
15167TIP3    H266993   4.251   5.215  16.149 -0.0548 -0.2095  0.3009
15168TIP3   OH266994   5.773   2.618   3.066 -0.3458 -0.1567 -0.2290
15168TIP3    H166995   5.833   2.610   3.141  0.0840 -1.0848 -0.6531
15168TIP3    H266996   5.706   2.551   3.082 -1.6520  1.3089  0.5677
15169TIP3   OH266997   3.312   0.790   0.385  0.2400 -0.7054  0.5993
15169TIP3    H166998   3.323   0.822   0.475 -1.0901  1.2686  0.1127
15169TIP3    H266999   3.304   0.870   0.333 -0.0687 -1.8431 -1.1315
15170TIP3   OH267000   0.904   5.084   4.843 -0.2230  0.2714  0.0513
15170TIP3    H167001   0.811   5.094   4.860  0.0245 -0.0812  1.7397
15170TIP3    H267002   0.939   5.173   4.850 -0.1494  0.1528  1.3227
15171TIP3   OH267003   1.789   0.520  14.396  0.0886 -0.9220  0.0254
15171TIP3    H167004   1.845   0.443  14.398  0.9438 -0.2871  1.1556
15171TIP3    H267005   1.834   0.584  14.451 -0.8189  0.2389 -0.5608
15172TIP3   OH267006   4.538   6.265   3.728 -0.3233  0.2039 -0.4925
15172TIP3    H167007   4.521   6.277   3.822 -1.2148 -0.5629 -0.5513
15172TIP3    H267008   4.602   6.194   3.724  0.9899  1.3469 -0.4002
15173TIP3   OH267009   5.687   5.943   0.348 -0.1973  0.3517  0.2031
15173TIP3    H167010   5.631   5.980   0.280 -2.3818  0.6793  2.1135
15173TIP3    H267011   5.700   6.014   0.411 -0.7644 -0.7920  1.6636
15174TIP3   OH267012   5.490   5.502   0.918  0.4148 -0.1502  0.3366
15174TIP3    H167013   5.456   5.454   0.842 -3.4914  0.4856  1.5870
15174TIP3    H267014   5.427   5.572   0.932  2.7626  1.6324  2.3159
15175TIP3   OH267015   0.019   2.534   1.848 -0.3411  0.3282 -0.0773
15175TIP3    H167016   0.106   2.553   1.884 -0.2152  0.9269 -0.6870
15175TIP3    H267017   0.005   2.602   1.782  0.0313 -1.5453 -2.1512
15176TIP3   OH267018   1.916   2.992   4.333  0.5294  0.0750  0.1966
15176TIP3    H167019   1.929   2.901   4.307 -0.2133  0.2333 -0.7488
15176TIP3    H267020   1.950   3.043   4.259 -1.0561  0.5299 -0.2410
15177TIP3   OH267021   3.739   0.429  12.383  0.6436  0.4687  0.1906
15177TIP3    H167022   3.785   0.506  12.351 -0.5301  1.0839 -0.0502
15177TIP3    H267023   3.744   0.436  12.478  1.2736  0.3873  0.1676
15178TIP3   OH267024   5.454   4.749  12.480 -0.4410 -0.4714 -0.0700
15178TIP3    H167025   5.430   4.727  12.570  2.8435 -0.3473  0.8927
15178TIP3    H267026   5.417   4.836  12.465 -1.0472 -0.5189  1.1462
15179TIP3   OH267027   2.611   6.789   5.240  0.0457  0.0328  0.4142
15179TIP3    H167028   2.671   6.840   5.294 -0.5911  0.0777  1.0831
15179TIP3    H267029   2.665   6.757   5.167  0.6192  1.0148  0.4055
15180TIP3   OH267030   1.929   4.067   5.968 -0.3524 -0.4650  0.7461
15180TIP3    H167031   1.966   4.029   5.888  0.8165  0.5323  0.8127
15180TIP3    H267032   2.005   4.089   6.022 -0.9507  2.9941  0.2676
15181TIP3   OH267033   1.487   0.920   4.091 -1.0475  0.2279  0.1707
15181TIP3    H167034   1.544   0.884   4.159  0.1214  0.3026 -0.7488
15181TIP3    H267035   1.400   0.887   4.112 -0.2440 -1.9606  0.1712
15182TIP3   OH267036   1.347   6.400  12.472 -0.4542 -0.2107  0.1258
15182TIP3    H167037   1.374   6.310  12.451 -0.7900 -0.0058 -1.2099
15182TIP3    H267038   1.417   6.455  12.438 -1.0379  0.1270 -0.5529
15183TIP3   OH267039   4.113   5.725  12.985 -0.2514 -0.6532  0.4354
15183TIP3    H167040   4.073   5.696  13.066  0.6376 -2.9161  0.0791
15183TIP3    H267041   4.207   5.731  13.005 -0.2436  0.6247  0.0952
15184TIP3   OH267042   0.297   1.860   6.113  0.1665  0.1761  0.0588
15184TIP3    H167043   0.226   1.861   6.177  1.2020 -1.0992  1.2615
15184TIP3    H267044   0.370   1.904   6.157  0.5452  0.3117 -0.6840
15185TIP3   OH267045   2.425   6.078   5.714  0.3862 -0.4612  0.1806
15185TIP3    H167046   2.350   6.079   5.655 -0.5539 -3.8588  1.1915
15185TIP3    H267047   2.390   6.111   5.797  1.5646  3.7416 -0.8555
15186TIP3   OH267048   1.482   1.739  14.865  0.0176  0.5444 -0.0489
15186TIP3    H167049   1.555   1.754  14.804  0.8690 -1.1829  0.5072
15186TIP3    H267050   1.452   1.650  14.845 -0.4811  0.4142  1.2387
15187TIP3   OH267051   2.981   5.454   2.335 -0.2934  0.4778  0.9623
15187TIP3    H167052   2.942   5.370   2.310  0.2034 -0.0815  2.0093
15187TIP3    H267053   2.906   5.511   2.352 -0.6527 -0.1494  1.5249
15188TIP3   OH267054   5.970   4.057   2.345 -0.4203 -0.1560 -0.3734
15188TIP3    H167055   5.911   4.016   2.408 -0.7916 -1.7409 -1.7151
15188TIP3    H267056   6.055   4.016   2.362 -0.0760  0.8657  0.4065
15189TIP3   OH267057   1.466   5.843  13.246 -0.3782 -0.4628 -0.2051
15189TIP3    H167058   1.506   5.858  13.331 -0.8971  0.6000 -0.1297
15189TIP3    H267059   1.473   5.749  13.231  4.4470 -0.0639 -1.3324
15190TIP3   OH267060   6.303   0.358  13.333  0.1669  0.4980  0.0433
15190TIP3    H167061   6.248   0.413  13.277  1.5200  1.4842 -0.3413
15190TIP3    H267062   6.392   0.378  13.306  0.7877 -0.0316  1.6334
15191TIP3   OH267063   6.526   0.438   0.829  0.0708 -0.8121 -0.1887
15191TIP3    H167064   6.456   0.496   0.800 -1.1021 -2.5575 -0.9382
15191TIP3    H267065   6.515   0.433   0.924  0.1578  0.1361 -0.1210
15192TIP3   OH267066   6.604   2.262  16.284  0.1505  0.3350  0.3078
15192TIP3    H167067   6.631   2.318  16.211  0.4328 -1.2726 -0.8774
15192TIP3    H267068   6.508   2.255  16.275  0.4919 -2.6422 -2.0982
15193TIP3   OH267069   0.170   6.365   5.530 -0.0072 -0.0045  0.0887
15193TIP3    H167070   0.185   6.435   5.466 -1.9832  2.3438  2.0864
15193TIP3    H267071   0.112   6.303   5.485  0.2640  0.5623 -1.0722
15194TIP3   OH267072   0.310   6.503   3.254  0.7920  0.1083  0.4316
15194TIP3    H167073   0.235   6.554   3.225 -0.2508 -0.9690  1.1991
15194TIP3    H267074   0.376   6.516   3.185 -0.4695  0.2067 -0.7767
15195TIP3   OH267075   1.092   4.334   3.664  0.2793  0.0472 -0.1860
15195TIP3    H167076   1.103   4.428   3.653 -1.7394  0.2666 -0.3556
15195TIP3    H267077   1.044   4.324   3.746 -1.8948 -0.6770 -1.5106
15196TIP3   OH267078   2.525   3.988   4.745 -0.3580 -0.6659 -0.5707
15196TIP3    H167079   2.475   3.907   4.757 -0.0480 -1.0998 -2.1226
15196TIP3    H267080   2.562   3.981   4.657  0.6807  0.6189 -0.2541
15197TIP3   OH267081   6.533   6.150   2.667 -0.3276 -0.4204 -0.8235
15197TIP3    H167082   6.595   6.197   2.610 -1.7013  1.1248 -1.0945
15197TIP3    H267083   6.496   6.082   2.611 -0.0303 -0.3393 -1.1223
15198TIP3   OH267084   4.978   2.164  13.515 -0.0473  0.3062  0.3494
15198TIP3    H167085   4.971   2.196  13.606  1.5231  2.5922 -0.2856
15198TIP3    H267086   5.045   2.096  13.519  0.2573  0.6306  0.8499
15199TIP3   OH267087   2.043   2.457   5.882  0.3084  0.1985 -0.4937
15199TIP3    H167088   2.109   2.526   5.875  0.2142  0.3911  0.4430
15199TIP3    H267089   1.962   2.503   5.904  0.0010 -0.1057 -0.9614
15200TIP3   OH267090   6.569   4.210  15.989  0.0518 -0.3484 -0.5941
15200TIP3    H167091   6.601   4.265  16.061 -0.1048 -1.5015  0.3714
15200TIP3    H267092   6.530   4.134  16.032  0.0857 -1.1273 -1.9083
15201TIP3   OH267093   3.824   4.588  10.654  0.4620 -0.0250 -0.5441
15201TIP3    H167094   3.762   4.526  10.691 -0.2346  0.8344 -0.2716
15201TIP3    H267095   3.900   4.534  10.630 -0.4688 -1.1101 -1.1005
15202TIP3   OH267096   5.323   1.016   4.730  0.6457 -0.2962 -0.2344
15202TIP3    H167097   5.243   1.026   4.679  0.7750 -1.2009 -0.6272
15202TIP3    H267098   5.393   1.014   4.665  1.1580  2.0399  0.1905
15203TIP3   OH267099   5.412   5.061   4.210  0.1690  0.0560  0.2304
15203TIP3    H167100   5.386   5.148   4.239 -0.3677 -0.7463  2.2327
15203TIP3    H267101   5.447   5.019   4.288 -2.2692 -2.5349  0.0419
15204TIP3   OH267102   5.117   1.961   1.644 -0.6597 -0.1665  0.1316
15204TIP3    H167103   5.199   1.927   1.680 -0.7209 -0.7277 -0.2375
15204TIP3    H267104   5.082   1.888   1.593 -1.8599 -0.2442  1.0529
15205TIP3   OH267105   5.013   4.815   4.767 -0.1994 -0.1925  0.3430
15205TIP3    H167106   5.083   4.761   4.802  2.4151  1.1604 -2.5415
15205TIP3    H267107   5.034   4.904   4.795 -2.6227 -0.1228  2.1892
15206TIP3   OH267108   1.260   2.963   3.958  0.4484 -0.2580  0.0942
15206TIP3    H167109   1.333   2.942   3.900 -0.1259 -0.5431 -0.5387
15206TIP3    H267110   1.203   2.886   3.954 -1.8893  1.4989 -2.5641
15207TIP3   OH267111   5.324   0.411   0.035 -0.4664 -0.5452  0.6452
15207TIP3    H167112   5.376   0.463   0.096 -1.1318  0.4587  0.3684
15207TIP3    H267113   5.349   0.443  -0.052 -2.2395  0.6431  0.5387
15208TIP3   OH267114   2.674   2.431  13.277 -0.5548  0.0284 -0.0379
15208TIP3    H167115   2.711   2.368  13.215 -1.5562 -0.0951 -0.5240
15208TIP3    H267116   2.719   2.412  13.360  0.7416  0.1584 -0.7015
15209TIP3   OH267117   1.005   5.803  13.407 -0.1564  0.3383  0.6802
15209TIP3    H167118   1.054   5.875  13.367 -0.2441 -0.0377 -0.1112
15209TIP3    H267119   0.991   5.831  13.497  0.3643  1.0335  0.5470
15210TIP3   OH267120   6.412   6.130   0.587 -0.4380 -0.1874 -0.1778
15210TIP3    H167121   6.328   6.155   0.549 -0.3957  0.8250  0.3600
15210TIP3    H267122   6.473   6.197   0.558  0.0138 -0.4838  0.0737
15211TIP3   OH267123   2.094   5.298  15.456 -0.4622 -0.6760  0.0062
15211TIP3    H167124   2.150   5.370  15.428 -0.6453 -0.1345  1.0029
15211TIP3    H267125   2.089   5.240  15.380  1.1843 -0.5724 -0.1972
15212TIP3   OH267126   3.623   1.524   1.741 -0.3715  0.1522  0.2022
15212TIP3    H167127   3.659   1.612   1.749 -0.4260  0.2129 -0.2016
15212TIP3    H267128   3.696   1.471   1.707  0.3211 -0.4270  2.5141
15213TIP3   OH267129   0.276   0.895   5.340 -0.4985  0.8635  0.1000
15213TIP3    H167130   0.321   0.978   5.328 -0.5591  1.0627  1.2073
15213TIP3    H267131   0.240   0.874   5.253  0.6762  1.3003 -0.5019
15214TIP3   OH267132   1.269   0.319  13.723 -0.1149 -0.1995  0.2231
15214TIP3    H167133   1.298   0.239  13.679 -1.4068 -1.6837  2.0268
15214TIP3    H267134   1.181   0.335  13.689  0.0849  0.4001 -0.0308
15215TIP3   OH267135   3.000   0.690   1.288  0.3808  0.5538 -0.3927
15215TIP3    H167136   3.096   0.684   1.288  0.3944  0.7002 -1.1119
15215TIP3    H267137   2.979   0.731   1.204 -0.3392  0.1488 -0.4130
15216TIP3   OH267138   3.131   2.335  11.467  0.0665  0.3260 -0.0026
15216TIP3    H167139   3.115   2.331  11.561  0.2287  0.3681  0.0282
15216TIP3    H267140   3.226   2.328  11.459  0.1414  1.3040 -0.1023
15217TIP3   OH267141   6.131   2.704  12.666  1.3188 -0.7800 -0.5711
15217TIP3    H167142   6.067   2.710  12.595 -0.7201  0.1537  1.2799
15217TIP3    H267143   6.171   2.791  12.668 -1.0667  0.3268  1.5811
15218TIP3   OH267144   2.511   3.952  16.292  0.0050 -0.2782 -0.3932
15218TIP3    H167145   2.570   4.020  16.324 -0.4139 -0.3223  0.5017
15218TIP3    H267146   2.467   3.992  16.217 -0.1109  0.3869  0.0220
15219TIP3   OH267147   6.026   0.626  13.766 -0.0328  0.6234  0.2394
15219TIP3    H167148   6.094   0.667  13.819 -0.8515 -0.0268  1.8400
15219TIP3    H267149   6.060   0.538  13.748 -0.8738 -0.0574  1.9067
15220TIP3   OH267150   2.082   3.431   1.564 -0.3554  0.2279  0.2595
15220TIP3    H167151   2.069   3.423   1.469  1.2906  0.1168  0.0354
15220TIP3    H267152   2.151   3.368   1.584 -0.2829  0.6804  1.4402
15221TIP3   OH267153   3.449   0.964   6.191 -0.2727  0.2285  0.0133
15221TIP3    H167154   3.544   0.962   6.202 -0.0254 -0.2153 -2.0800
15221TIP3    H267155   3.435   0.992   6.100 -2.1439  0.0938  0.2265
15222TIP3   OH267156   5.538   6.167   1.849 -0.0988  0.3908 -0.0446
15222TIP3    H167157   5.542   6.080   1.890  1.9293  1.0143  1.1690
15222TIP3    H267158   5.629   6.195   1.844 -0.4273  1.0696 -3.5442
15223TIP3   OH267159   1.250   0.138   1.057 -0.5232  0.2953  0.2280
15223TIP3    H167160   1.166   0.094   1.065  0.6637 -2.5138 -1.6899
15223TIP3    H267161   1.259   0.155   0.963  1.1185  0.3567  0.3747
15224TIP3   OH267162   5.309   4.797   3.550 -0.2578  0.2898 -0.0655
15224TIP3    H167163   5.275   4.726   3.604 -0.5352  1.4813  1.3368
15224TIP3    H267164   5.283   4.773   3.461 -1.4995 -0.6947  0.5389
15225TIP3   OH267165   4.787   3.688   5.308  0.1082 -0.5552  0.1107
15225TIP3    H167166   4.849   3.641   5.364 -0.0568  0.1052  0.8629
15225TIP3    H267167   4.759   3.624   5.244 -0.3759 -1.5920  1.3343
15226TIP3   OH267168   2.510   5.446  11.285  0.1468  0.3017  0.2039
15226TIP3    H167169   2.465   5.526  11.314 -0.9975  0.0251 -0.7300
15226TIP3    H267170   2.468   5.376  11.334 -0.9579 -0.0331 -1.1687
15227TIP3   OH267171   3.022   2.623  13.695  0.3564  0.1382 -0.5475
15227TIP3    H167172   3.004   2.715  13.673 -2.2231 -0.2026 -0.0095
15227TIP3    H267173   3.116   2.621  13.713  0.0319  3.2337  1.9772
15228TIP3   OH267174   3.196   6.788   1.886 -0.9458 -0.3940 -0.5535
15228TIP3    H167175   3.162   6.873   1.860  1.7649  1.1516  0.7445
15228TIP3    H267176   3.238   6.754   1.807  0.1799  0.6447 -0.4165
15229TIP3   OH267177   2.789   0.489  10.800  0.4524  0.9205 -0.2727
15229TIP3    H167178   2.755   0.401  10.785  0.4018  0.6447  1.3324
15229TIP3    H267179   2.712   0.542  10.816  0.6090  0.7734  1.0374
15230TIP3   OH267180   5.343   5.817  15.043  0.7626 -0.4808  0.4217
15230TIP3    H167181   5.355   5.736  14.994  0.0858  0.2073 -0.9145
15230TIP3    H267182   5.282   5.868  14.990  0.3828  0.4817  1.7561
15231TIP3   OH267183   5.532   2.773   0.377 -0.1231  0.2173  0.1359
15231TIP3    H167184   5.595   2.845   0.373  0.2898 -0.1545 -0.1025
15231TIP3    H267185   5.556   2.715   0.304 -1.0902  0.3586 -0.2982
15232TIP3   OH267186   4.869   2.357  11.179  0.2902  0.0479 -0.0840
15232TIP3    H167187   4.915   2.276  11.161 -0.7312 -0.0574 -2.4076
15232TIP3    H267188   4.924   2.426  11.142 -1.0104 -0.0257 -2.2929
15233TIP3   OH267189   4.620   4.013  12.291  0.2504  0.0651 -0.0695
15233TIP3    H167190   4.690   3.989  12.230 -2.3248 -1.4842 -2.5336
15233TIP3    H267191   4.613   4.108  12.283  0.6069 -0.0203 -1.4471
15234TIP3   OH267192   1.154   6.214   0.239 -0.6126  0.1208  0.0427
15234TIP3    H167193   1.075   6.246   0.196 -1.3126 -1.2710  0.2758
15234TIP3    H267194   1.124   6.182   0.324 -0.0688 -1.8259 -0.4701
15235TIP3   OH267195   6.800   4.172  12.945 -0.1560 -0.4187 -0.2555
15235TIP3    H167196   6.889   4.169  12.980 -0.6526  1.8433  1.3021
15235TIP3    H267197   6.808   4.224  12.865 -0.0302 -0.4957 -0.2942
15236TIP3   OH267198   5.117   0.502  14.024  0.0342  0.4267  0.4917
15236TIP3    H167199   5.180   0.430  14.028  0.9265  1.1289 -0.7277
15236TIP3    H267200   5.032   0.459  14.014  0.3845 -0.5009  1.3858
15237TIP3   OH267201   1.655   3.502   4.042 -0.8610 -0.0520 -0.5228
15237TIP3    H167202   1.582   3.477   3.987 -0.8285 -0.5855 -0.3221
15237TIP3    H267203   1.616   3.551   4.114 -0.9189  0.5069 -0.9315
15238TIP3   OH267204   2.443   4.015   1.196 -0.3718 -0.3431  0.1826
15238TIP3    H167205   2.436   3.921   1.178 -0.4504 -0.7458  2.2797
15238TIP3    H267206   2.356   4.050   1.173 -0.5366 -0.8666  0.0036
15239TIP3   OH267207   0.620   5.937  13.591 -0.0556  0.0115  0.9223
15239TIP3    H167208   0.691   5.996  13.615  0.0781 -0.3467  1.4365
15239TIP3    H267209   0.594   5.964  13.503 -0.1240  0.9584  1.2271
15240TIP3   OH267210   4.950   4.981  13.056  0.6191 -0.1716 -0.1183
15240TIP3    H167211   5.044   4.995  13.062  0.5979  0.1935 -0.5969
15240TIP3    H267212   4.938   4.931  12.976  0.1840  2.0475 -1.4800
15241TIP3   OH267213   3.625   4.487   2.857  0.5958  0.1489  0.5032
15241TIP3    H167214   3.652   4.511   2.946  1.8095 -0.1622  0.2198
15241TIP3    H267215   3.694   4.429   2.826  0.0684  0.0960 -0.5784
15242TIP3   OH267216   4.668   1.124  15.828 -0.1874 -0.0760  0.0919
15242TIP3    H167217   4.742   1.088  15.779 -0.0145  0.4977 -0.0664
15242TIP3    H267218   4.651   1.059  15.897  0.5295 -0.1503  0.1969
15243TIP3   OH267219   3.915   5.329  11.971 -0.5206 -0.4044  0.1606
15243TIP3    H167220   3.953   5.415  11.987 -0.5181 -0.0696 -1.5899
15243TIP3    H267221   3.895   5.328  11.877 -0.5428 -2.3005  0.1662
15244TIP3   OH267222   6.109   1.742  15.757 -0.2430  0.2214  0.0346
15244TIP3    H167223   6.088   1.649  15.765  2.7822 -0.2740  3.6404
15244TIP3    H267224   6.042   1.786  15.810  0.1347 -0.1947  0.8677
15245TIP3   OH267225   2.235   4.792  11.360  0.1179 -0.2199  0.5427
15245TIP3    H167226   2.212   4.816  11.450 -1.5146 -0.2516  0.1648
15245TIP3    H267227   2.172   4.723  11.338  0.5928 -0.2979 -0.5867
15246TIP3   OH267228   0.500   1.080   5.753  0.2230  0.1536  0.7538
15246TIP3    H167229   0.513   1.175   5.748 -0.3427  0.4046  3.3085
15246TIP3    H267230   0.531   1.056   5.840  1.2874 -2.1852 -0.2436
15247TIP3   OH267231   6.667   0.367   2.581  0.3184  0.0715 -1.2061
15247TIP3    H167232   6.663   0.459   2.607  0.1861  0.2044 -1.6803
15247TIP3    H267233   6.619   0.364   2.498  1.6130 -0.1569 -1.9500
15248TIP3   OH267234   4.611   6.421   2.224  0.1681 -0.0679 -0.3436
15248TIP3    H167235   4.547   6.436   2.155  0.5094  1.2527 -0.3915
15248TIP3    H267236   4.629   6.509   2.259  0.0537 -0.6983  1.3623
15249TIP3   OH267237   0.234   0.537   0.815 -0.0325 -0.0238 -0.2750
15249TIP3    H167238   0.187   0.460   0.784 -1.5220 -0.0358  1.9294
15249TIP3    H267239   0.174   0.578   0.878  1.2535  2.2228 -0.4620
15250TIP3   OH267240   0.096   2.550   4.299 -0.1908  0.0096  0.5449
15250TIP3    H167241   0.129   2.586   4.217 -1.4023 -0.4720 -0.1551
15250TIP3    H267242   0.159   2.480   4.321  1.2375  1.4314  1.0698
15251TIP3   OH267243   6.410   6.756   2.855 -0.0006  0.4995  0.1774
15251TIP3    H167244   6.429   6.844   2.886  2.8292  0.2100 -0.6360
15251TIP3    H267245   6.467   6.699   2.905 -0.3812 -0.6752 -0.6872
15252TIP3   OH267246   2.259   6.291  13.311 -0.3434  0.1882 -0.0603
15252TIP3    H167247   2.192   6.237  13.353  2.3369 -3.0030  0.2947
15252TIP3    H267248   2.263   6.258  13.221 -0.0810  1.2402 -0.4475
15253TIP3   OH267249   4.932   3.640   6.071 -0.0019 -0.0376  0.0647
15253TIP3    H167250   4.947   3.622   6.163  0.0808  0.2320  0.1035
15253TIP3    H267251   4.968   3.728   6.057 -1.5415  0.6226  0.1672
15254TIP3   OH267252   6.805   6.311  15.338 -0.5820 -0.1841 -0.6487
15254TIP3    H167253   6.860   6.309  15.416  0.2228  1.2529 -1.1531
15254TIP3    H267254   6.715   6.313  15.371 -0.2312  1.0247  0.2596
15255TIP3   OH267255   3.876   4.473   2.663  0.0179  0.5529  0.2567
15255TIP3    H167256   3.871   4.551   2.718 -0.2577  1.7797 -1.4537
15255TIP3    H267257   3.891   4.507   2.575 -0.8302 -1.2985 -0.6311
15256TIP3   OH267258   1.845   6.119  11.565  0.1832  0.6782  0.1920
15256TIP3    H167259   1.752   6.106  11.587  0.2128  1.0838  0.5697
15256TIP3    H267260   1.892   6.089  11.642  0.3676  0.4170 -0.0248
15257TIP3   OH267261   5.300   3.262   3.921  0.6124  0.0961 -0.1908
15257TIP3    H167262   5.232   3.328   3.913 -1.0389 -1.2066  2.3413
15257TIP3    H267263   5.258   3.181   3.892  1.4519 -0.5011  0.2398
15258TIP3   OH267264   4.203   4.009   3.033 -0.4552  0.1273  0.4387
15258TIP3    H167265   4.189   3.977   3.122  1.3317  2.4439  1.6052
15258TIP3    H267266   4.122   4.056   3.012 -1.3071 -1.3324  0.4241
15259TIP3   OH267267   2.199   3.545   3.807 -0.0441 -0.2233 -0.4193
15259TIP3    H167268   2.205   3.622   3.750  0.0651 -0.6811 -1.0333
15259TIP3    H267269   2.236   3.574   3.890  2.3363 -0.3313 -1.3897
15260TIP3   OH267270   2.337   2.173   2.259 -0.0076 -0.0949  0.0751
15260TIP3    H167271   2.307   2.251   2.305  0.4426  0.0299  0.1663
15260TIP3    H267272   2.319   2.101   2.320 -1.4356 -0.2001 -0.4652
15261TIP3   OH267273   5.393   5.076  16.808  0.1611 -0.0429  0.5982
15261TIP3    H167274   5.341   5.153  16.831  1.8743  0.9041  1.4009
15261TIP3    H267275   5.384   5.068  16.713  0.4721  1.5360  0.4220
15262TIP3   OH267276   0.679   5.430  13.457  0.2663  0.2891  0.4140
15262TIP3    H167277   0.772   5.438  13.433 -0.1449  2.6346 -0.5561
15262TIP3    H267278   0.645   5.519  13.449 -2.2547 -0.6760  0.0644
15263TIP3   OH267279   0.045   2.707  12.431  0.0029  0.4974  0.0283
15263TIP3    H167280  -0.046   2.732  12.413 -0.6217  0.7386  3.1230
15263TIP3    H267281   0.089   2.791  12.446  0.6109  0.3496 -0.9459
15264TIP3   OH267282   0.581   6.591  15.369 -0.4432 -0.8696 -0.5304
15264TIP3    H167283   0.530   6.647  15.311  0.7062  2.1763  1.3130
15264TIP3    H267284   0.524   6.516  15.385 -2.0402 -0.2321 -3.0110
15265TIP3   OH267285   5.056   3.443   3.282 -0.4702 -0.1494  0.1865
15265TIP3    H167286   5.035   3.392   3.360 -0.4432 -1.1206 -0.4248
15265TIP3    H267287   5.150   3.429   3.269 -0.5037 -0.1171 -0.0984
15266TIP3   OH267288   3.730   0.934   6.467 -0.1022  0.2806  0.4571
15266TIP3    H167289   3.753   1.023   6.494  0.1704  0.7816 -1.3586
15266TIP3    H267290   3.711   0.942   6.374  1.2120 -1.8101 -0.0204
15267TIP3   OH267291   0.169   2.848  10.947  0.7262  0.2215  0.2379
15267TIP3    H167292   0.252   2.884  10.916  0.5455  1.0423  0.6803
15267TIP3    H267293   0.130   2.806  10.870 -0.3457  3.3853 -1.0334
15268TIP3   OH267294   2.670   6.251  16.234 -0.3909  0.1202  1.3654
15268TIP3    H167295   2.611   6.176  16.232  1.3254 -1.2412  0.8234
15268TIP3    H267296   2.717   6.247  16.151  1.8939  0.0054  2.6253
15269TIP3   OH267297   5.378   4.977   4.902  0.3030  0.0833  0.5023
15269TIP3    H167298   5.420   4.938   4.825 -2.0326 -2.4630  0.4597
15269TIP3    H267299   5.361   5.068   4.876  1.3064 -0.2041 -1.2541
15270TIP3   OH267300   5.217   4.180  11.231 -0.6589  0.2969  0.1513
15270TIP3    H167301   5.194   4.087  11.228  0.5905 -0.0205 -0.1578
15270TIP3    H267302   5.233   4.202  11.139  2.1103 -0.0065  0.5149
15271TIP3   OH267303   2.165   3.978  16.013 -0.4479  0.6202 -0.0213
15271TIP3    H167304   2.178   3.997  15.921 -1.0421  1.2908  0.0242
15271TIP3    H267305   2.229   4.031  16.059  0.8783 -0.8593 -0.1134
15272TIP3   OH267306   3.721   1.926   1.534  0.1628  0.2248  0.2066
15272TIP3    H167307   3.664   1.920   1.458 -0.2359  1.8293  0.3655
15272TIP3    H267308   3.797   1.872   1.510  0.1029  0.8029 -1.3809
15273TIP3   OH267309   5.840   5.833  12.096  0.2282 -0.1110  0.6107
15273TIP3    H167310   5.834   5.774  12.020  0.5997 -0.2458  0.6848
15273TIP3    H267311   5.763   5.812  12.148  0.4789 -0.7030  0.7531
15274TIP3   OH267312   0.814   4.800   3.798 -0.4767 -0.0378 -0.7061
15274TIP3    H167313   0.869   4.763   3.867  0.4215  1.2395 -0.7139
15274TIP3    H267314   0.876   4.835   3.734 -1.2829  2.5332 -0.1203
15275TIP3   OH267315   0.960   5.986   4.263  0.5067 -0.3141 -0.3026
15275TIP3    H167316   0.994   5.940   4.339 -1.1156 -2.6504 -0.9294
15275TIP3    H267317   0.870   5.955   4.254  0.7299 -0.3026 -3.3087
15276TIP3   OH267318   2.890   6.294   3.376  0.2530  0.9885 -0.3201
15276TIP3    H167319   2.881   6.199   3.379 -1.1955  1.0759 -1.4791
15276TIP3    H267320   2.973   6.309   3.330  1.1772  0.2861  1.0867
15277TIP3   OH267321   3.406   0.702   6.343 -0.3409 -0.2014  0.0881
15277TIP3    H167322   3.394   0.791   6.309 -0.0679 -0.0438  0.3968
15277TIP3    H267323   3.325   0.657   6.322 -1.4214  0.7847  1.9890
15278TIP3   OH267324   3.231   3.338  10.482 -0.5860 -0.4156 -0.0531
15278TIP3    H167325   3.257   3.262  10.431 -1.9830 -0.1781 -1.1352
15278TIP3    H267326   3.160   3.306  10.538 -3.8071  0.9033 -3.1770
15279TIP3   OH267327   2.565   0.348   1.420 -0.1392  0.7895  0.5730
15279TIP3    H167328   2.595   0.390   1.340 -1.5492  2.0843  0.7137
15279TIP3    H267329   2.557   0.419   1.484 -0.6287  0.0219  1.3787
15280TIP3   OH267330   0.138   0.831   3.340 -0.7766 -0.1686  0.1521
15280TIP3    H167331   0.045   0.836   3.315 -0.7880 -0.5740  0.1160
15280TIP3    H267332   0.156   0.737   3.347 -0.1945 -0.1120 -0.5083
15281TIP3   OH267333   3.348   6.260   2.492 -0.6726  0.5258 -0.3467
15281TIP3    H167334   3.320   6.175   2.458 -4.1827  0.7644  1.6805
15281TIP3    H267335   3.399   6.239   2.570 -0.6415  0.2600 -0.4381
15282TIP3   OH267336   6.814   0.706  14.429 -0.2305 -0.0279  0.1971
15282TIP3    H167337   6.889   0.648  14.438 -0.1946 -0.3793 -1.9406
15282TIP3    H267338   6.843   0.772  14.366 -1.1811  0.7249  0.5503
15283TIP3   OH267339   2.601   6.504  15.845 -0.6464  0.4856  0.3179
15283TIP3    H167340   2.577   6.416  15.872  2.5555 -0.5370  0.0567
15283TIP3    H267341   2.528   6.534  15.791 -1.5357 -2.1927 -0.0227
15284TIP3   OH267342   3.080   4.968   1.294 -0.4342  0.3479  0.5276
15284TIP3    H167343   3.048   4.965   1.204  1.8192  0.7309 -0.3098
15284TIP3    H267344   3.024   5.033   1.337  1.5943  3.8892 -1.9164
15285TIP3   OH267345   1.643   5.261   0.930  0.9106 -0.1968 -0.2015
15285TIP3    H167346   1.709   5.218   0.876  1.2733 -0.4622  0.4530
15285TIP3    H267347   1.692   5.310   0.995  0.5080  1.5092 -1.1402
15286TIP3   OH267348   6.201   0.617  13.464  0.0559  0.1553 -0.6068
15286TIP3    H167349   6.270   0.669  13.505  0.4213  0.8854 -2.1109
15286TIP3    H267350   6.238   0.530  13.454 -0.1339 -0.1027  0.8345
15287TIP3   OH267351   4.881   0.166  11.256  0.4769 -0.6524 -0.9798
15287TIP3    H167352   4.872   0.180  11.162  3.3271  1.4178 -1.0282
15287TIP3    H267353   4.917   0.078  11.264  1.9404 -0.1588 -1.9579
15288TIP3   OH267354   5.510   4.834   1.784 -0.2861 -0.2998  0.5877
15288TIP3    H167355   5.583   4.772   1.790  0.6549  0.8168  0.7884
15288TIP3    H267356   5.458   4.804   1.709  0.2988 -1.1851  0.5393
15289TIP3   OH267357   0.001   2.739  11.513 -0.4246  0.3868  0.0406
15289TIP3    H167358   0.037   2.653  11.493 -0.6481  0.5467 -1.1154
15289TIP3    H267359  -0.059   2.724  11.586  1.0064 -0.0926  1.1384
15290TIP3   OH267360   5.034   2.198   5.785 -0.2354  0.2616 -0.4390
15290TIP3    H167361   4.996   2.110   5.788 -1.3844  0.7281 -1.0662
15290TIP3    H267362   5.059   2.210   5.694  1.1959  0.0662 -0.0842
15291TIP3   OH267363   0.546   0.047  12.230 -0.2486  0.0011 -0.4916
15291TIP3    H167364   0.543   0.017  12.140 -2.5574  3.1551 -1.5795
15291TIP3    H267365   0.479  -0.003  12.275  1.5643 -2.2700 -0.2372
15292TIP3   OH267366   0.032   6.420   5.753  0.1829  1.1211 -0.1351
15292TIP3    H167367   0.050   6.349   5.814  0.3930  1.0575 -0.2728
15292TIP3    H267368   0.077   6.395   5.672 -1.2757  0.5180 -0.7768
15293TIP3   OH267369   0.628   2.610  14.427 -0.2282  0.7132 -0.3508
15293TIP3    H167370   0.586   2.677  14.374  0.2952  0.2240 -1.4077
15293TIP3    H267371   0.557   2.569  14.476 -0.8050  0.7664 -1.1382
15294TIP3   OH267372   3.997   6.793   0.659  0.1304  0.6896 -0.2342
15294TIP3    H167373   3.902   6.795   0.652  0.2392  0.0763 -2.0226
15294TIP3    H267374   4.023   6.884   0.669 -0.6950  0.7840  1.2416
15295TIP3   OH267375   6.270   3.922   0.810  0.4979 -0.2185 -0.1509
15295TIP3    H167376   6.281   3.922   0.714  2.1296 -0.3620  0.0295
15295TIP3    H267377   6.314   3.842   0.839 -0.3152 -0.3681  0.6937
15296TIP3   OH267378   3.144   1.105  14.413 -0.6773 -0.0034 -0.7357
15296TIP3    H167379   3.066   1.136  14.367 -1.1306 -1.5243 -1.0191
15296TIP3    H267380   3.217   1.137  14.360 -1.0802  1.5561 -0.3840
15297TIP3   OH267381   0.056   5.820  15.815 -0.0196 -0.6859 -0.3403
15297TIP3    H167382   0.124   5.887  15.806 -0.4683  0.0934  1.6638
15297TIP3    H267383   0.093   5.742  15.774  1.4346  0.1653 -0.6790
15298TIP3   OH267384   0.220   5.863  12.969  0.1877 -0.0116 -0.1672
15298TIP3    H167385   0.223   5.937  13.030  0.1596  0.8723 -1.2226
15298TIP3    H267386   0.139   5.817  12.992  0.9453 -0.5746  1.4610
15299TIP3   OH267387   5.480   0.520  15.172  0.0240  0.0532  0.0596
15299TIP3    H167388   5.552   0.554  15.119  0.3630 -0.3894  0.2317
15299TIP3    H267389   5.417   0.487  15.108 -0.3988  1.1762 -0.1145
15300TIP3   OH267390   4.218   3.223  11.746 -0.0061  0.4022  0.2888
15300TIP3    H167391   4.164   3.206  11.669  0.6098  2.4675 -0.6358
15300TIP3    H267392   4.158   3.214  11.820 -0.2025 -3.3655 -0.2662
15301TIP3   OH267393   4.045   0.228  15.213 -0.3626 -0.0665 -0.0938
15301TIP3    H167394   4.135   0.255  15.197 -0.1837  0.3650  1.5641
15301TIP3    H267395   4.005   0.226  15.126  0.6950  1.6671 -0.6526
15302TIP3   OH267396   3.813   2.053  12.016  0.3041 -0.3417  0.2100
15302TIP3    H167397   3.809   2.022  12.106 -1.1479  0.7776  0.5439
15302TIP3    H267398   3.823   1.973  11.964 -1.8123 -1.2797  1.1784
15303TIP3   OH267399   1.621   5.861   5.182 -0.4483  0.1557  0.4131
15303TIP3    H167400   1.619   5.934   5.120  1.6107 -0.6026 -0.6108
15303TIP3    H267401   1.576   5.790   5.138 -2.4116  0.7586  1.3929
15304TIP3   OH267402   0.034   2.647  14.909 -0.0152  0.2666  0.5758
15304TIP3    H167403  -0.013   2.650  14.825 -0.1815  1.4920  0.7048
15304TIP3    H267404  -0.008   2.575  14.957 -0.6204  0.2442  0.0254
15305TIP3   OH267405   3.314   2.957  14.878  0.2014 -0.9598 -0.0697
15305TIP3    H167406   3.219   2.963  14.873  0.0844  0.5431  2.9423
15305TIP3    H267407   3.346   3.011  14.807 -1.2060  0.1633  0.1423
15306TIP3   OH267408   5.096   0.421   2.456 -0.6989  0.9164 -0.4291
15306TIP3    H167409   5.011   0.425   2.412 -0.8009  1.7353 -0.1773
15306TIP3    H267410   5.125   0.512   2.460 -1.0631  0.9762  1.8990
15307TIP3   OH267411   5.669   0.743  12.327  0.2128  0.0856  0.0825
15307TIP3    H167412   5.711   0.749  12.413 -0.0977  0.1894  0.2323
15307TIP3    H267413   5.592   0.799  12.335 -0.3838 -0.7165  0.0801
15308TIP3   OH267414   2.282   5.852   4.550 -0.4096  0.0310  0.0509
15308TIP3    H167415   2.348   5.787   4.575  0.8422  1.4572  0.5113
15308TIP3    H267416   2.217   5.849   4.620 -0.6366 -1.0739 -0.1875
15309TIP3   OH267417   5.735   4.864   2.269  0.1933 -0.1497 -0.2529
15309TIP3    H167418   5.642   4.848   2.279  0.1920  0.5513  0.9225
15309TIP3    H267419   5.742   4.911   2.186 -1.0217  3.8478  1.7761
15310TIP3   OH267420   0.629   4.167  13.654  0.2874  0.1367 -0.0336
15310TIP3    H167421   0.586   4.197  13.574 -0.4531  0.0434  0.3215
15310TIP3    H267422   0.686   4.096  13.627 -0.8089 -0.6401 -0.3080
15311TIP3   OH267423   1.034   4.025   5.439  0.8941 -0.2187 -0.3544
15311TIP3    H167424   0.976   3.949   5.440  1.6417 -0.8321 -1.7883
15311TIP3    H267425   0.987   4.092   5.389  0.3925  0.1387  0.5901
15312TIP3   OH267426   3.916   2.414  16.054 -0.1907 -0.4818 -0.0981
15312TIP3    H167427   3.934   2.427  16.147  1.8264 -1.5049 -0.3003
15312TIP3    H267428   4.003   2.398  16.015 -1.2267 -2.3850 -1.7457
15313TIP3   OH267429   4.572   4.917  10.995 -0.7884 -0.0806  0.1469
15313TIP3    H167430   4.535   4.832  10.972  1.1397 -1.0765  0.6039
15313TIP3    H267431   4.655   4.921  10.946  0.3395  0.4591  2.0641
15314TIP3   OH267432   2.319   0.952   0.618  0.0638  0.4964 -0.2840
15314TIP3    H167433   2.289   1.003   0.543  0.4643  0.2311 -0.6277
15314TIP3    H267434   2.410   0.979   0.630  1.8425 -3.5397 -3.4457
15315TIP3   OH267435   2.123   5.892  11.519  0.2689  0.6494 -0.4859
15315TIP3    H167436   2.074   5.909  11.438 -1.0916  0.7243  0.3377
15315TIP3    H267437   2.164   5.977  11.540  0.0213  0.8232 -0.7025
15316TIP3   OH267438   1.044   1.745  14.820 -0.1157 -0.5204  0.3648
15316TIP3    H167439   1.120   1.776  14.770 -0.6201  1.5508  0.8386
15316TIP3    H267440   1.065   1.768  14.911 -1.3733  0.1778  0.4837
15317TIP3   OH267441   3.581   3.699   3.618  0.3975 -0.0441  0.0811
15317TIP3    H167442   3.585   3.702   3.522  0.0219  0.0371  0.0636
15317TIP3    H267443   3.545   3.613   3.638 -0.0044  0.1318  0.1272
15318TIP3   OH267444   2.984   5.169  13.489 -0.7077  0.0875  0.0115
15318TIP3    H167445   3.005   5.080  13.462  1.1701  0.0882  1.3870
15318TIP3    H267446   3.014   5.224  13.416 -0.0264 -0.2686  0.0179
15319TIP3   OH267447   0.799   1.617   1.621 -0.6611  0.3273  0.1691
15319TIP3    H167448   0.836   1.655   1.701 -1.4174 -0.7705  1.0581
15319TIP3    H267449   0.857   1.544   1.600 -0.6798  0.3842 -0.0837
15320TIP3   OH267450   6.806   3.109  17.233  0.3976 -0.2188 -0.0659
15320TIP3    H167451   6.824   3.024  17.194  0.1806 -0.4364  0.3003
15320TIP3    H267452   6.730   3.094  17.289  1.5539 -0.2269  1.5248
15321TIP3   OH267453   5.097   3.363  10.933  0.2606 -0.2877 -0.4740
15321TIP3    H167454   5.180   3.382  10.976 -1.0353  2.6038  0.8749
15321TIP3    H267455   5.096   3.417  10.854 -0.3751 -0.2056 -0.4181
15322TIP3   OH267456   3.811   2.999   3.619 -0.3214  0.0925  0.1837
15322TIP3    H167457   3.859   3.024   3.698  0.8109 -0.4781 -0.3037
15322TIP3    H267458   3.852   3.050   3.549 -2.2927  1.7075  0.1739
15323TIP3   OH267459   0.742   4.802  15.643  0.0321 -0.3540  0.5669
15323TIP3    H167460   0.717   4.894  15.657 -1.3303 -0.5780 -0.2650
15323TIP3    H267461   0.749   4.793  15.548 -0.7455 -1.3247  0.5890
15324TIP3   OH267462   3.340   4.447  16.231 -0.5549 -0.6077 -0.2441
15324TIP3    H167463   3.388   4.384  16.284  2.0431  0.3588 -1.3811
15324TIP3    H267464   3.385   4.530  16.247 -2.0129  0.3720 -1.1490
15325TIP3   OH267465   3.613   5.584  14.852 -0.8760  0.5669 -0.1774
15325TIP3    H167466   3.531   5.557  14.894 -0.3010  0.2968  0.7817
15325TIP3    H267467   3.659   5.635  14.918  0.5426 -0.8019 -0.0725
15326TIP3   OH267468   0.029   4.643   5.058  0.0418  0.3660 -0.0547
15326TIP3    H167469   0.024   4.731   5.095 -1.4430  0.7605 -1.1594
15326TIP3    H267470   0.100   4.601   5.106  2.0633  2.7906 -0.7937
15327TIP3   OH267471   3.174   0.215   0.359 -0.0490 -0.0897 -0.7488
15327TIP3    H167472   3.101   0.236   0.418  0.1570 -0.7723 -0.2398
15327TIP3    H267473   3.193   0.298   0.315 -0.8694  0.1911 -0.5992
15328TIP3   OH267474   5.084   4.128  13.344 -0.2813 -0.0606  0.1698
15328TIP3    H167475   5.016   4.088  13.399 -0.3438 -0.6352 -0.3288
15328TIP3    H267476   5.042   4.140  13.259  0.2399 -0.3803 -0.1310
15329TIP3   OH267477   0.191   6.178  11.245  0.1740 -0.2516  0.3329
15329TIP3    H167478   0.236   6.104  11.203 -1.2210 -2.0477  1.9016
15329TIP3    H267479   0.121   6.201  11.184 -2.3073 -3.3314  1.9095
15330TIP3   OH267480   3.439   4.675  14.595  0.2079 -0.1970 -0.1546
15330TIP3    H167481   3.393   4.733  14.656  1.2775  2.4445 -1.7464
15330TIP3    H267482   3.396   4.590  14.605 -2.3392  1.1969  1.2987
15331TIP3   OH267483   6.255   2.142   3.784  0.0103  0.5998 -0.7564
15331TIP3    H167484   6.342   2.165   3.815  0.1611 -1.3112  0.3271
15331TIP3    H267485   6.254   2.046   3.784 -2.1066  0.5978 -0.6866
15332TIP3   OH267486   5.930   4.234  15.986 -0.2815 -0.1174  0.5190
15332TIP3    H167487   5.835   4.246  15.982 -0.2848 -0.1883  0.3904
15332TIP3    H267488   5.962   4.266  15.901 -0.1455  0.3314  0.7373
15333TIP3   OH267489   1.321   3.513   4.395 -0.3982 -0.3266 -0.1294
15333TIP3    H167490   1.358   3.481   4.477  0.1843  1.9918  0.5209
15333TIP3    H267491   1.396   3.521   4.336 -0.4205  0.6362 -0.0278
15334TIP3   OH267492   0.404   3.713   3.047  0.0706  0.2892 -0.0109
15334TIP3    H167493   0.476   3.678   2.994 -0.3413 -0.4620 -0.0808
15334TIP3    H267494   0.325   3.684   3.001 -0.3245 -1.4715  1.6910
15335TIP3   OH267495   6.261   4.209  16.122  0.6409 -0.3972  0.5721
15335TIP3    H167496   6.222   4.143  16.179  2.3255  0.1038  2.3662
15335TIP3    H267497   6.187   4.263  16.094 -0.6095 -2.4322 -0.1368
15336TIP3   OH267498   5.907   0.560  12.408 -0.0644 -0.7703  0.5424
15336TIP3    H167499   5.943   0.646  12.430 -0.2257 -0.7907  0.8803
15336TIP3    H267500   5.973   0.497  12.438  0.5312 -0.7330 -0.6235
15337TIP3   OH267501   5.208   2.941  11.416 -0.3539 -0.6500  0.0160
15337TIP3    H167502   5.249   2.936  11.502  0.0953 -1.1571 -0.2206
15337TIP3    H267503   5.206   3.034  11.395  3.0666 -0.7410 -1.0727
15338TIP3   OH267504   3.664   3.659   2.462 -0.6001  0.1513  0.2072
15338TIP3    H167505   3.665   3.686   2.554 -0.6436 -0.7544  0.4815
15338TIP3    H267506   3.650   3.740   2.413  0.2577  0.7635  0.9561
15339TIP3   OH267507   0.499   2.692   2.678 -0.2782 -0.3755  0.0141
15339TIP3    H167508   0.411   2.728   2.688 -0.3189 -0.8180  1.3423
15339TIP3    H267509   0.533   2.735   2.600 -2.2795 -1.4563 -1.4799
15340TIP3   OH267510   3.392   1.364  11.444  0.6231  0.2718  0.0851
15340TIP3    H167511   3.400   1.360  11.348 -2.5113  0.7853 -0.2750
15340TIP3    H267512   3.338   1.442  11.460 -0.2430 -0.7127  2.1454
15341TIP3   OH267513   6.429   6.608   2.259 -0.3152  0.0763  0.3699
15341TIP3    H167514   6.430   6.659   2.340  0.3535  0.2351  0.2688
15341TIP3    H267515   6.407   6.671   2.191  1.4054  0.4261  0.1248
15342TIP3   OH267516   0.724   6.010  15.545  0.0880  0.2455 -0.2675
15342TIP3    H167517   0.665   5.966  15.607  0.6313  0.0112  0.0884
15342TIP3    H267518   0.795   5.947  15.530 -0.0184  0.3183 -1.1013
15343TIP3   OH267519   6.753   1.479  14.679 -0.2723  0.3574  0.3193
15343TIP3    H167520   6.747   1.385  14.661 -0.5737  0.4045  0.1737
15343TIP3    H267521   6.842   1.491  14.714  0.0303  0.1426 -0.3778
15344TIP3   OH267522   0.696   0.703  12.455 -0.0494 -0.8538  0.2154
15344TIP3    H167523   0.634   0.682  12.385 -1.9266 -0.2882  1.6869
15344TIP3    H267524   0.642   0.733  12.527  1.7173 -3.1286  2.5867
15345TIP3   OH267525   6.257   2.636  11.281 -0.2045  0.2949 -0.3737
15345TIP3    H167526   6.292   2.716  11.242  0.4567  0.1826 -0.0140
15345TIP3    H267527   6.201   2.598  11.213  1.8633 -0.5206 -1.6462
15346TIP3   OH267528   4.431   2.270   3.963  0.5771 -0.4176  0.3049
15346TIP3    H167529   4.448   2.315   3.880  0.0170 -0.4658  0.1643
15346TIP3    H267530   4.505   2.294   4.019  1.2549 -0.8541 -0.4034
15347TIP3   OH267531   6.781   2.168  12.471 -0.2280  0.6062  0.4762
15347TIP3    H167532   6.692   2.200  12.489 -0.9721 -0.7720 -0.6100
15347TIP3    H267533   6.829   2.246  12.444 -1.5301  1.1202 -0.4307
15348TIP3   OH267534   2.394   1.042   1.647 -0.1008 -0.2643  0.5183
15348TIP3    H167535   2.480   1.075   1.620  0.8605 -0.7714  2.8883
15348TIP3    H267536   2.377   1.085   1.730 -1.7633 -0.8421  0.4923
15349TIP3   OH267537   3.756   0.334   3.133 -0.4015 -0.3944  0.2627
15349TIP3    H167538   3.776   0.296   3.048 -0.5417 -1.9323  0.9002
15349TIP3    H267539   3.705   0.267   3.178 -0.0569  0.2721  1.6841
15350TIP3   OH267540   5.982   0.907   1.511 -0.1637 -0.1880 -0.2255
15350TIP3    H167541   6.071   0.899   1.545  0.4103  1.1371 -1.3734
15350TIP3    H267542   5.932   0.841   1.558  0.9706  0.4975  2.0123
15351TIP3   OH267543   0.641   6.154  14.768  0.0668  0.4044  0.3842
15351TIP3    H167544   0.614   6.074  14.723  1.5764 -1.0449  1.9907
15351TIP3    H267545   0.562   6.208  14.770 -1.1271 -1.2815 -0.2133
15352TIP3   OH267546   1.837   0.449   2.522 -0.9660 -0.0185 -0.2382
15352TIP3    H167547   1.893   0.371   2.514 -2.8796 -1.4548  0.0903
15352TIP3    H267548   1.868   0.508   2.454  0.4726 -1.0924 -0.5392
15353TIP3   OH267549   2.899   3.910   4.648  0.2261  0.2582 -1.3068
15353TIP3    H167550   2.871   3.849   4.717  0.4041  0.0420 -1.4254
15353TIP3    H267551   2.816   3.941   4.609  0.1256  0.4225 -0.9600
15354TIP3   OH267552   4.204   4.023  11.406  0.6252 -0.1730  0.1162
15354TIP3    H167553   4.190   4.030  11.500 -1.6787  2.1212 -0.3588
15354TIP3    H267554   4.249   4.103  11.382 -1.9681  0.9477 -1.2420
15355TIP3   OH267555   2.116   4.201   6.096  0.7494 -0.0823  0.6634
15355TIP3    H167556   2.154   4.257   6.029  1.4431 -0.8398  0.4170
15355TIP3    H267557   2.191   4.163   6.141  0.2935  0.1126  1.6260
15356TIP3   OH267558   4.633   1.270  15.584 -0.1839  0.5532 -0.1583
15356TIP3    H167559   4.633   1.254  15.678  1.2091  0.1823 -0.2066
15356TIP3    H267560   4.609   1.187  15.545 -2.6893  1.2108 -0.0788
15357TIP3   OH267561   4.172   4.004   5.745 -0.2890  0.2686  0.2517
15357TIP3    H167562   4.135   4.092   5.750 -0.8535 -0.0053  1.0796
15357TIP3    H267563   4.267   4.018   5.748 -0.3663  0.8720 -0.0249
15358TIP3   OH267564   0.765   6.208  12.231  0.4909 -0.6101  0.0364
15358TIP3    H167565   0.777   6.262  12.153 -2.0250  0.4925  0.3274
15358TIP3    H267566   0.719   6.130  12.200  1.4861 -1.2089  0.0692
15359TIP3   OH267567   2.714   3.279   0.061 -0.2947 -0.0961  0.0324
15359TIP3    H167568   2.627   3.307   0.091 -0.2056  0.6172 -0.3563
15359TIP3    H267569   2.697   3.229  -0.018 -0.2539  1.3307 -0.9007
15360TIP3   OH267570   0.957   0.575   3.266  0.4579 -0.1790  0.6617
15360TIP3    H167571   1.023   0.619   3.319  0.3773  0.9513 -0.1671
15360TIP3    H267572   0.903   0.646   3.231  1.2897 -0.8090 -1.9906
15361TIP3   OH267573   4.423   1.607   3.911  0.0677  0.0980 -0.3719
15361TIP3    H167574   4.503   1.654   3.934  0.0412 -0.1355  0.2205
15361TIP3    H267575   4.353   1.669   3.929  0.0851  0.1179 -0.3759
15362TIP3   OH267576   5.772   3.776   4.412  0.4119 -0.6022  0.8969
15362TIP3    H167577   5.728   3.760   4.329 -0.5866 -0.5578  1.4165
15362TIP3    H267578   5.858   3.810   4.387 -0.8928  2.1003 -0.0770
15363TIP3   OH267579   1.396   0.316  14.557 -0.3139 -0.1642 -0.3190
15363TIP3    H167580   1.424   0.404  14.533  3.5860 -0.9752  0.9507
15363TIP3    H267581   1.434   0.259  14.491  0.0299 -1.1873  0.7378
15364TIP3   OH267582   3.855   4.276   2.859 -0.6083  0.4018  0.0047
15364TIP3    H167583   3.934   4.309   2.902 -1.2514  0.3229  1.2909
15364TIP3    H267584   3.868   4.294   2.766  1.2035 -0.1959  0.1227
15365TIP3   OH267585   3.332   5.390   4.924  0.4744  0.2613  0.4273
15365TIP3    H167586   3.276   5.450   4.875  1.5657  0.8866 -0.0720
15365TIP3    H267587   3.275   5.353   4.991 -0.7430  0.2504 -0.6115
15366TIP3   OH267588   4.084   3.941   1.837  0.3536  0.7401  0.0549
15366TIP3    H167589   4.056   3.953   1.746  0.2526  0.6137  0.0696
15366TIP3    H267590   4.168   3.988   1.842  1.3455 -0.9074 -0.6247
15367TIP3   OH267591   0.241   2.637   2.943  0.1494 -0.2392  0.1671
15367TIP3    H167592   0.181   2.699   2.983  0.1194 -1.4450  2.0582
15367TIP3    H267593   0.199   2.551   2.955 -0.2005 -0.6074 -3.1027
15368TIP3   OH267594   6.294   0.977  14.573  0.2953 -0.1638 -0.1999
15368TIP3    H167595   6.253   0.943  14.494 -3.2233 -1.2358  1.9533
15368TIP3    H267596   6.221   1.012  14.625  2.2162 -1.2588  3.4221
15369TIP3   OH267597   3.745   6.111  11.015 -0.6588 -0.5425  0.5130
15369TIP3    H167598   3.690   6.182  11.047 -0.5529 -0.3246  0.2168
15369TIP3    H267599   3.714   6.033  11.061 -0.7296 -0.2905  0.8885
15370TIP3   OH267600   0.577   2.207   4.265 -0.2256  0.6070  0.1462
15370TIP3    H167601   0.513   2.166   4.324  0.1379  1.5298  1.1979
15370TIP3    H267602   0.593   2.293   4.303  1.3746  0.5292 -0.3074
15371TIP3   OH267603   5.215   5.194  14.265  0.3406  0.1942 -0.0611
15371TIP3    H167604   5.151   5.266  14.268  2.4376  2.1921 -1.3073
15371TIP3    H267605   5.256   5.195  14.351 -1.2421 -1.0687  0.7287
15372TIP3   OH267606   3.293   3.727   1.707 -0.0809 -0.4811 -0.3739
15372TIP3    H167607   3.333   3.723   1.620 -1.4783  0.4587 -1.0821
15372TIP3    H267608   3.256   3.815   1.713 -2.8818 -1.6002 -0.1641
15373TIP3   OH267609   6.552   3.218  15.420 -0.3846 -0.0712 -0.4671
15373TIP3    H167610   6.518   3.172  15.497  0.2801 -0.7053 -0.5454
15373TIP3    H267611   6.475   3.258  15.379 -0.5965  1.3455  1.2294
15374TIP3   OH267612   6.579   0.704   6.508  0.0856  0.1512 -0.3681
15374TIP3    H167613   6.633   0.730   6.433  0.2021  0.3816 -0.2053
15374TIP3    H267614   6.587   0.608   6.511  1.3919  0.2782  0.3303
15375TIP3   OH267615   4.271   2.270   1.129 -0.5075 -0.0444 -0.2677
15375TIP3    H167616   4.187   2.305   1.100  0.4642  0.9679 -1.9617
15375TIP3    H267617   4.317   2.344   1.168 -0.3510 -0.5546  0.5178
15376TIP3   OH267618   2.875   4.189  14.104  0.2796  0.0063  0.9387
15376TIP3    H167619   2.795   4.233  14.134 -0.9736 -1.0146 -0.8216
15376TIP3    H267620   2.891   4.122  14.170 -0.6290 -0.1168  1.0463
15377TIP3   OH267621   4.223   5.102  14.784 -0.2602  0.6933 -0.2339
15377TIP3    H167622   4.253   5.033  14.724 -0.7419  0.1563  0.1487
15377TIP3    H267623   4.164   5.058  14.844 -0.0707  1.3150  0.4109
15378TIP3   OH267624   4.267   4.262  16.438 -0.1945  0.6545 -0.0146
15378TIP3    H167625   4.247   4.337  16.382  0.9827  1.0783  0.1223
15378TIP3    H267626   4.228   4.188  16.394  0.1126  1.0951 -1.0317
15379TIP3   OH267627   6.143   1.420   1.108  0.1368 -0.2343 -0.0370
15379TIP3    H167628   6.226   1.469   1.110 -0.6310  1.1330 -0.7662
15379TIP3    H267629   6.087   1.471   1.049 -0.8728 -1.7121 -0.3705
15380TIP3   OH267630   0.861   1.019  12.567 -0.1265  0.0130 -0.3441
15380TIP3    H167631   0.767   1.004  12.568 -0.3893  1.5342 -0.8395
15380TIP3    H267632   0.873   1.101  12.616  1.0550 -0.7895  0.7279
15381TIP3   OH267633   0.499   4.851  14.192  0.2736  0.1320  0.7018
15381TIP3    H167634   0.406   4.842  14.209  0.2441  0.4370  0.7068
15381TIP3    H267635   0.504   4.898  14.109  0.4159 -1.7126 -0.3538
15382TIP3   OH267636   6.489   5.077   3.306  0.1666  0.6294 -0.0798
15382TIP3    H167637   6.462   5.008   3.368 -3.7171  0.2595 -2.0406
15382TIP3    H267638   6.491   5.033   3.221  1.2248  2.1250 -0.8373
15383TIP3   OH267639   0.164   2.930  10.627  0.1359  0.2073  0.1376
15383TIP3    H167640   0.145   2.837  10.643 -1.4650  0.9889  3.1377
15383TIP3    H267641   0.258   2.933  10.609  0.0399 -2.0832 -0.9123
15384TIP3   OH267642   6.633   0.948  13.839 -0.2715 -0.0873  0.7673
15384TIP3    H167643   6.576   0.984  13.907  2.2967  0.6473  2.6189
15384TIP3    H267644   6.641   1.019  13.775  0.0295  0.4764  1.4226
15385TIP3   OH267645   5.758   4.693   3.988  0.0570  1.0451 -0.5315
15385TIP3    H167646   5.712   4.670   3.907  0.1756  1.3851 -0.6953
15385TIP3    H267647   5.796   4.611   4.018 -3.6441 -0.0211  1.5300
15386TIP3   OH267648   1.799   2.887  14.999 -0.4426 -0.2209  0.3115
15386TIP3    H167649   1.890   2.875  14.972 -0.3587 -0.2587  0.6055
15386TIP3    H267650   1.774   2.802  15.036 -1.0782 -0.6996 -1.1479
15387TIP3   OH267651   4.204   1.422   3.425  0.5276  0.6636 -0.1757
15387TIP3    H167652   4.212   1.418   3.521  3.7562  1.7424 -0.3451
15387TIP3    H267653   4.153   1.344   3.402  0.2394  0.0582  2.3688
15388TIP3   OH267654   0.864   1.104  14.738  0.4673  0.5227 -0.2760
15388TIP3    H167655   0.806   1.129  14.811 -1.0129 -0.1701 -1.1929
15388TIP3    H267656   0.902   1.021  14.766  0.9735  0.9414  0.2982
15389TIP3   OH267657   5.109   4.542   5.679  0.2121 -0.1319  0.0815
15389TIP3    H167658   5.049   4.506   5.744  0.0595  0.7837  0.4570
15389TIP3    H267659   5.196   4.526   5.715  0.2034 -1.5838 -0.5274
15390TIP3   OH267660   0.827   1.732  13.370  0.4410 -0.1770  0.4340
15390TIP3    H167661   0.838   1.775  13.285 -1.8034 -0.6657 -0.1576
15390TIP3    H267662   0.838   1.639  13.351  2.4097 -0.1162  1.1707
15391TIP3   OH267663   6.640   6.742   4.709 -0.2926  0.2078  0.1356
15391TIP3    H167664   6.568   6.707   4.657 -0.0065 -0.6841  0.3241
15391TIP3    H267665   6.599   6.801   4.772 -0.6550  1.2107 -1.0249
15392TIP3   OH267666   2.057   0.785   0.612 -0.0865  0.2085 -0.4965
15392TIP3    H167667   2.127   0.850   0.611  1.9372 -1.9087 -3.0063
15392TIP3    H267668   1.982   0.829   0.571  0.5858  1.6180 -0.2268
15393TIP3   OH267669   2.756   2.843   2.461 -0.3683 -0.1881  0.2750
15393TIP3    H167670   2.742   2.754   2.428  0.3303  0.4854 -1.9461
15393TIP3    H267671   2.804   2.831   2.542 -2.6696 -1.9415  1.4392
15394TIP3   OH267672   4.896   2.782  13.354 -0.2897  0.3429  0.3484
15394TIP3    H167673   4.925   2.701  13.312  1.4577 -0.0233  2.1649
15394TIP3    H267674   4.905   2.849  13.285 -0.5278 -0.7818 -0.7907
15395TIP3   OH267675   4.980   1.202   3.112 -0.1164 -0.2643  1.2650
15395TIP3    H167676   5.031   1.126   3.141  1.3751 -0.0178 -0.6386
15395TIP3    H267677   4.898   1.164   3.081  0.7229 -1.1566  0.0682
15396TIP3   OH267678   1.308   3.980   1.060  0.0582 -0.4112 -0.0387
15396TIP3    H167679   1.237   3.950   1.002 -1.6224 -0.7681  2.1343
15396TIP3    H267680   1.371   3.908   1.059 -0.6336 -1.0295 -0.3362
15397TIP3   OH267681   0.743   2.242  17.083 -0.4308  0.0299 -0.1178
15397TIP3    H167682   0.652   2.245  17.051 -0.2083 -0.8236 -0.8426
15397TIP3    H267683   0.763   2.149  17.089 -0.0482  0.2030  1.3425
15398TIP3   OH267684   5.640   4.209   1.796 -0.1446 -0.6206  0.7154
15398TIP3    H167685   5.717   4.266   1.803 -1.0580  0.7318 -0.0775
15398TIP3    H267686   5.575   4.250   1.853 -1.5107  0.3282 -1.4566
15399TIP3   OH267687   4.075   0.992   5.899  0.8959  0.3858  0.2083
15399TIP3    H167688   4.095   0.993   5.992 -0.6637 -0.0399  0.5582
15399TIP3    H267689   4.059   1.083   5.876 -1.0319  0.2352  0.8844
15400TIP3   OH267690   5.079   0.968  15.099 -0.2458  0.3985  0.4975
15400TIP3    H167691   5.124   1.051  15.117  1.8375 -0.8164  1.1180
15400TIP3    H267692   5.047   0.939  15.184 -1.9657  1.0846  0.1085
15401TIP3   OH267693   5.622   4.149  12.718  0.1456 -0.2023  0.0161
15401TIP3    H167694   5.710   4.135  12.684 -1.0351 -0.1014 -3.2013
15401TIP3    H267695   5.617   4.243  12.735  0.0672  0.1068 -1.6245
15402TIP3   OH267696   2.505   1.870   5.567  0.8847 -0.2416 -0.4088
15402TIP3    H167697   2.537   1.927   5.637 -0.1605 -1.8891  1.4797
15402TIP3    H267698   2.538   1.783   5.590 -2.2084 -1.3956 -0.1508
15403TIP3   OH267699   2.891   0.091  16.957 -0.1219  0.1419  0.0207
15403TIP3    H167700   2.842   0.035  17.018  1.5888 -0.6732  0.6885
15403TIP3    H267701   2.912   0.033  16.883 -0.5516  0.6128 -0.4775
15404TIP3   OH267702   1.041   2.592   0.005  0.2865 -0.2946 -0.8482
15404TIP3    H167703   1.006   2.645  -0.067 -1.8343 -1.3635 -0.6510
15404TIP3    H267704   0.969   2.534   0.029  0.7357  0.4506  2.5700
15405TIP3   OH267705   5.714   5.391   2.551 -0.3957 -0.1545  0.6747
15405TIP3    H167706   5.668   5.367   2.632 -0.0383 -1.3319  0.5496
15405TIP3    H267707   5.663   5.349   2.482  0.1600 -0.4384  0.4309
15406TIP3   OH267708   0.202   1.250  12.207 -0.2414 -0.6697  0.0891
15406TIP3    H167709   0.209   1.155  12.216  2.3132 -0.5492 -0.0038
15406TIP3    H267710   0.293   1.279  12.204 -1.0140  1.6449 -1.3983
15407TIP3   OH267711   0.196   1.525  14.714  0.4348  0.6047  0.3974
15407TIP3    H167712   0.262   1.466  14.752  1.7281  1.8185  0.0924
15407TIP3    H267713   0.236   1.556  14.633 -1.4225 -0.2816 -0.8953
15408TIP3   OH267714   3.168   1.864  15.699 -0.7884 -0.2842  0.4380
15408TIP3    H167715   3.234   1.852  15.767 -0.1689 -0.8294 -0.2472
15408TIP3    H267716   3.183   1.952  15.666 -1.1152 -0.0046  1.0314
15409TIP3   OH267717   3.822   6.488   4.470  0.4365 -0.4239  0.3458
15409TIP3    H167718   3.746   6.545   4.461 -0.4179 -1.3201  1.8417
15409TIP3    H267719   3.855   6.504   4.558  2.1045  0.0980 -0.3558
15410TIP3   OH267720   5.576   2.412   2.867 -0.3521 -0.3415 -0.1711
15410TIP3    H167721   5.549   2.432   2.777 -1.6552  0.2407  0.3265
15410TIP3    H267722   5.504   2.445   2.921  0.8472  0.1592  1.1514
15411TIP3   OH267723   1.433   0.957   3.296  0.5091  0.0669 -0.2787
15411TIP3    H167724   1.347   0.997   3.282  0.1534 -0.2907  0.8286
15411TIP3    H267725   1.436   0.884   3.234 -0.3129 -0.4076  0.2312
15412TIP3   OH267726   6.804   2.162   4.974  0.0502 -0.1791 -0.3836
15412TIP3    H167727   6.865   2.090   4.991  0.8534  0.5904  0.0899
15412TIP3    H267728   6.857   2.241   4.988 -0.8190  0.4955 -0.8865
15413TIP3   OH267729   0.513   3.363  17.055 -0.5088  0.1441 -0.1558
15413TIP3    H167730   0.491   3.272  17.034 -0.3958  0.1750 -0.4167
15413TIP3    H267731   0.586   3.384  16.996  0.2974 -0.0040  0.7816
15414TIP3   OH267732   5.208   3.836  13.829 -0.7742  0.1061 -0.3681
15414TIP3    H167733   5.267   3.879  13.891 -2.1934 -0.7103  1.5998
15414TIP3    H267734   5.256   3.758  13.801  0.3087  1.0415 -1.1032
15415TIP3   OH267735   0.597   4.728  16.858 -0.7973  0.4508  0.0573
15415TIP3    H167736   0.665   4.709  16.793 -1.7461  0.3463 -0.9180
15415TIP3    H267737   0.552   4.805  16.823 -0.2638  1.3846  1.4154
15416TIP3   OH267738   0.098   3.910  14.647 -0.9170  0.3670  0.2343
15416TIP3    H167739   0.037   3.957  14.705 -2.0261  0.5010 -1.0229
15416TIP3    H267740   0.048   3.835  14.615 -0.7028  0.9118 -1.4317
15417TIP3   OH267741   5.324   2.516  14.787  0.5191  0.4171  0.2459
15417TIP3    H167742   5.301   2.559  14.704  1.2034  1.2257  0.4798
15417TIP3    H267743   5.320   2.585  14.852 -1.2661 -0.4759  1.1231
15418TIP3   OH267744   6.673   1.495  12.729  0.1018 -0.1053 -0.0161
15418TIP3    H167745   6.610   1.441  12.680 -0.4890  1.2037 -0.7374
15418TIP3    H267746   6.758   1.462  12.701 -0.2396 -1.4811  0.4921
15419TIP3   OH267747   0.102   4.497  15.503  0.4910  0.6223  0.3050
15419TIP3    H167748   0.091   4.405  15.481  0.2974  0.3401  1.5530
15419TIP3    H267749   0.163   4.530  15.437 -0.3474 -0.1102 -0.8464
15420TIP3   OH267750   5.425   4.608  11.804  0.1411  0.8898  0.4023
15420TIP3    H167751   5.332   4.590  11.816  0.0365  1.1844  0.0658
15420TIP3    H267752   5.469   4.525  11.822 -0.2303  0.6115  0.0297
15421TIP3   OH267753   1.574   2.911   3.149  0.5666 -0.0758  0.5202
15421TIP3    H167754   1.612   2.835   3.104  0.1674 -0.3471  0.6375
15421TIP3    H267755   1.573   2.885   3.242  1.4990  0.5268  0.6992
15422TIP3   OH267756   0.459   4.766  14.990 -0.0030  0.0927  0.0795
15422TIP3    H167757   0.493   4.737  14.905 -0.0200  0.2605  0.0147
15422TIP3    H267758   0.528   4.822  15.026  0.0462 -0.0583  0.2214
15423TIP3   OH267759   5.427   4.552   0.773  0.3494  1.0097  0.3015
15423TIP3    H167760   5.336   4.523   0.771  0.1753  1.5873 -0.0976
15423TIP3    H267761   5.474   4.485   0.722  0.0922  0.9093  0.1946
15424TIP3   OH267762   1.097   1.445   1.859 -0.0656 -0.0515  0.1203
15424TIP3    H167763   1.065   1.357   1.838  0.9107 -0.8056  1.6415
15424TIP3    H267764   1.022   1.487   1.902 -0.4756 -0.2037 -0.4337
15425TIP3   OH267765   3.926   2.295  13.474  0.6172 -0.3640  0.2546
15425TIP3    H167766   4.004   2.246  13.499  2.0308  2.1452  0.9979
15425TIP3    H267767   3.954   2.349  13.400 -0.5980  0.0474  0.0755
15426TIP3   OH267768   3.677   1.265  16.612 -0.9523  0.2446 -0.2803
15426TIP3    H167769   3.684   1.184  16.562 -0.2378 -0.1006  0.3689
15426TIP3    H267770   3.749   1.320  16.578 -1.3224  0.5382 -0.5927
15427TIP3   OH267771   2.360   1.992  11.961  0.1461  0.4598  0.7812
15427TIP3    H167772   2.279   1.999  11.912  0.7218 -1.1220 -0.4497
15427TIP3    H267773   2.338   1.939  12.037  0.0942 -0.2301  0.2865
15428TIP3   OH267774   1.443   2.069   0.657  0.0739  0.4967 -0.4199
15428TIP3    H167775   1.436   2.102   0.746  0.8893  0.5138 -0.3616
15428TIP3    H267776   1.437   1.974   0.666 -2.6374  0.6114 -0.6232
15429TIP3   OH267777   1.516   6.132  13.435 -0.0425 -0.1163 -0.0676
15429TIP3    H167778   1.519   6.041  13.464 -1.2367 -0.0740  0.2068
15429TIP3    H267779   1.540   6.182  13.513  4.1536 -0.3305 -1.1306
15430TIP3   OH267780   2.747   5.077  15.620 -0.0377  0.2865 -0.1478
15430TIP3    H167781   2.814   5.019  15.656 -0.7313 -0.8013 -0.5971
15430TIP3    H267782   2.668   5.023  15.615 -0.3653  0.8857 -1.7638
15431TIP3   OH267783   0.833   5.576  11.524  0.3415 -0.0018 -0.0528
15431TIP3    H167784   0.788   5.565  11.440  1.0151 -2.9066 -0.0984
15431TIP3    H267785   0.894   5.648  11.509 -2.5093  2.3777 -0.7191
15432TIP3   OH267786   6.773   6.333  11.618  0.8016 -0.4313  0.2688
15432TIP3    H167787   6.688   6.376  11.632  2.5985  3.7992 -1.0564
15432TIP3    H267788   6.766   6.294  11.531  0.8997  1.7752 -0.7628
15433TIP3   OH267789   1.286   1.477   2.530  0.0535 -0.2718  0.1510
15433TIP3    H167790   1.275   1.393   2.484  0.1529  0.2932 -0.9077
15433TIP3    H267791   1.379   1.481   2.552  0.4356  0.4846 -1.5875
15434TIP3   OH267792   1.143   1.495   3.891  0.6180  0.0697 -0.0641
15434TIP3    H167793   1.215   1.457   3.941  1.1852 -0.2118 -1.0889
15434TIP3    H267794   1.106   1.562   3.949  1.7578  0.2662  0.4400
15435TIP3   OH267795   4.802   6.792   3.632  0.9579 -0.4005 -0.4761
15435TIP3    H167796   4.842   6.710   3.664  0.6702  0.7317  3.0231
15435TIP3    H267797   4.858   6.861   3.668 -1.3718  1.0746  0.3989
15436TIP3   OH267798   6.414   2.956  12.331 -0.4454 -0.0856 -0.2266
15436TIP3    H167799   6.323   2.946  12.356 -0.4047 -1.3565 -0.5571
15436TIP3    H267800   6.412   3.016  12.256 -0.9296  0.4327  0.1955
15437TIP3   OH267801   3.161   5.158   0.160 -0.0591 -0.1742  0.2883
15437TIP3    H167802   3.151   5.252   0.147 -1.5883 -0.1437  1.5272
15437TIP3    H267803   3.179   5.148   0.253 -0.8786 -1.1728  0.3524
15438TIP3   OH267804   5.686   3.830   5.012 -0.3305  0.6249 -0.3092
15438TIP3    H167805   5.672   3.736   5.026  0.6965  0.3751 -0.8735
15438TIP3    H267806   5.764   3.834   4.956 -1.5085  1.7351 -1.9381
15439TIP3   OH267807   6.545   0.753  14.112 -0.1310 -0.2692  0.2217
15439TIP3    H167808   6.537   0.721  14.202 -0.1392  2.3965  1.2325
15439TIP3    H267809   6.489   0.831  14.109 -1.3787 -1.1954 -2.5616
15440TIP3   OH267810   2.420   4.600  13.302  0.2828  0.2171 -0.6146
15440TIP3    H167811   2.466   4.675  13.338 -1.0779  0.7359  0.0484
15440TIP3    H267812   2.459   4.587  13.215  1.1757  1.0810 -0.3422
15441TIP3   OH267813   6.656   3.059   1.733  0.0974  0.0733  0.0300
15441TIP3    H167814   6.644   3.111   1.812 -0.0648  0.4446 -0.2372
15441TIP3    H267815   6.721   3.109   1.682  1.3740 -0.9500  0.6227
15442TIP3   OH267816   4.034   0.317   1.062 -0.3432 -0.1207  0.2183
15442TIP3    H167817   4.107   0.259   1.084 -0.3507 -0.4385 -0.5804
15442TIP3    H267818   4.075   0.401   1.040 -0.2506 -0.1808  0.1654
15443TIP3   OH267819   3.849   5.852   3.669  0.3792 -0.0881 -0.3307
15443TIP3    H167820   3.900   5.924   3.631  1.3773  0.1837  1.4678
15443TIP3    H267821   3.807   5.810   3.594  0.3446  1.9396 -1.4853
15444TIP3   OH267822   5.945   2.286   0.592 -0.8184 -0.1720 -0.3880
15444TIP3    H167823   5.895   2.336   0.528 -3.4280  1.6459  2.8979
15444TIP3    H267824   5.914   2.196   0.581 -4.0371  0.7078  0.7105
15445TIP3   OH267825   3.930   1.808  15.801  0.4055  0.2594  0.4927
15445TIP3    H167826   3.965   1.772  15.720 -1.2652  0.8788 -0.5356
15445TIP3    H267827   3.868   1.742  15.831  2.0093 -0.5985  2.0274
15446TIP3   OH267828   0.151   6.802  14.448  0.0649  0.3650 -0.5549
15446TIP3    H167829   0.139   6.897  14.440 -0.4723  0.2755 -0.8133
15446TIP3    H267830   0.223   6.782  14.389  2.0536  1.0212  1.5689
15447TIP3   OH267831   1.848   5.511  11.892  0.4542 -0.1228  0.7580
15447TIP3    H167832   1.763   5.484  11.857  0.4633 -1.2168  1.5789
15447TIP3    H267833   1.912   5.477  11.828  0.2321  1.7487 -0.5049
15448TIP3   OH267834   6.214   2.461   5.180 -0.7285  0.3001 -0.0612
15448TIP3    H167835   6.214   2.408   5.100 -2.4234  1.3516 -0.7603
15448TIP3    H267836   6.174   2.405   5.246 -1.1116  0.1462 -0.4250
15449TIP3   OH267837   2.337   4.954  11.897  0.2897  0.4335  1.1184
15449TIP3    H167838   2.257   5.008  11.891  0.3137  0.3521 -0.0092
15449TIP3    H267839   2.408   5.017  11.888  0.3328  0.3701  1.0151
15450TIP3   OH267840   4.975   3.962   6.602  0.2450  0.4832  0.8649
15450TIP3    H167841   4.931   4.031   6.552  0.1551 -0.3964 -0.2851
15450TIP3    H267842   5.057   3.947   6.555 -0.0178 -0.6252  0.7472
15451TIP3   OH267843   6.710   5.163   4.248  0.1575 -0.5005 -0.0144
15451TIP3    H167844   6.655   5.101   4.297 -1.1753  1.1074  0.5649
15451TIP3    H267845   6.688   5.147   4.156  0.9894 -1.9608  0.0225
15452TIP3   OH267846   1.537   5.667   0.698  0.4115  0.3652  0.5552
15452TIP3    H167847   1.545   5.748   0.648 -0.4735 -1.1859 -2.2535
15452TIP3    H267848   1.626   5.643   0.721  0.9657  0.6014 -1.2492
15453TIP3   OH267849   0.090   3.357   1.833  0.2059 -0.3365 -0.5675
15453TIP3    H167850   0.171   3.392   1.871 -1.6950  2.2104  1.2951
15453TIP3    H267851   0.066   3.285   1.891 -0.0796  0.3883  0.2204
15454TIP3   OH267852   3.944   2.176   3.143  0.4506 -0.6350  0.1215
15454TIP3    H167853   3.864   2.129   3.166  0.0757 -0.4472 -0.8156
15454TIP3    H267854   3.919   2.233   3.071  1.0077  0.7276  0.9916
15455TIP3   OH267855   2.651   2.307   0.065  0.1362 -0.3390 -0.2083
15455TIP3    H167856   2.649   2.356  -0.017 -0.9071 -2.4415 -1.4922
15455TIP3    H267857   2.570   2.330   0.109 -0.9833 -1.7971 -1.4082
15456TIP3   OH267858   3.495   4.017   1.684  0.3414 -0.5759 -0.6563
15456TIP3    H167859   3.526   4.105   1.662  1.2790  0.1896  3.3527
15456TIP3    H267860   3.400   4.023   1.679  0.3110  1.2367  1.3061
15457TIP3   OH267861   2.447   1.468  15.312  0.4396 -0.0608 -0.0082
15457TIP3    H167862   2.397   1.504  15.239 -0.0707 -0.3655  0.1846
15457TIP3    H267863   2.516   1.532  15.329  0.1741  0.3125 -0.3449
15458TIP3   OH267864   4.291   0.301   1.193 -0.4575 -0.6091 -0.0796
15458TIP3    H167865   4.238   0.252   1.257 -0.1843 -0.4320  0.2866
15458TIP3    H267866   4.248   0.386   1.186 -0.9359 -0.8989 -0.7213
15459TIP3   OH267867   3.905   4.552   6.335  0.2378  0.2282 -0.3140
15459TIP3    H167868   3.832   4.515   6.284  0.0220  0.3687 -0.1060
15459TIP3    H267869   3.957   4.600   6.270  0.7628 -0.7987 -0.6674
15460TIP3   OH267870   1.449   4.749   3.901 -0.2757 -0.0093  0.5249
15460TIP3    H167871   1.522   4.749   3.962 -0.2150  2.3460  0.4666
15460TIP3    H267872   1.381   4.801   3.943 -1.6183 -1.4526  0.2014
15461TIP3   OH267873   3.306   0.284  12.152  0.1516  0.4458  0.1970
15461TIP3    H167874   3.257   0.294  12.234 -1.8824  0.6559 -1.0201
15461TIP3    H267875   3.310   0.190  12.138  2.3710  0.2998  1.6190
15462TIP3   OH267876   6.009   2.145  15.897 -0.1249  0.3090  0.4353
15462TIP3    H167877   5.991   2.230  15.857  1.6000  1.3962  1.8694
15462TIP3    H267878   6.076   2.107  15.840  1.3984  1.3027  1.5218
15463TIP3   OH267879   4.954   6.460   2.373 -0.2388 -0.2113  0.3643
15463TIP3    H167880   4.897   6.383   2.374  1.3230 -1.3987  0.3929
15463TIP3    H267881   5.003   6.455   2.455  0.6581  0.2077 -0.1339
15464TIP3   OH267882   1.499   0.970  13.160  0.6770  0.4836  0.3377
15464TIP3    H167883   1.468   0.884  13.134 -0.5941  1.3522 -1.1275
15464TIP3    H267884   1.498   0.969  13.256 -0.0444 -0.8536  0.3145
15465TIP3   OH267885   4.154   5.079  12.419 -0.0581  0.6214 -0.4437
15465TIP3    H167886   4.228   5.060  12.361 -0.1291  1.3522 -0.7795
15465TIP3    H267887   4.187   5.148  12.477 -0.1555  0.2510  0.0559
15466TIP3   OH267888   4.594   4.506  15.043  0.0619  0.0309  0.1734
15466TIP3    H167889   4.609   4.514  15.137 -0.9160  0.4395  0.3007
15466TIP3    H267890   4.579   4.596  15.014  0.0242 -0.1345 -0.3150
15467TIP3   OH267891   2.766   2.199   1.123  0.1007  0.1656 -0.2341
15467TIP3    H167892   2.764   2.185   1.029 -0.5732 -0.2937 -0.1572
15467TIP3    H267893   2.773   2.111   1.160  0.2825  0.3378  0.1420
15468TIP3   OH267894   6.071   3.195  13.833 -0.1674  0.5316  0.4671
15468TIP3    H167895   6.128   3.271  13.844  0.0459  0.5903 -0.9267
15468TIP3    H267896   6.111   3.146  13.762 -0.5771 -0.6408  1.0358
15469TIP3   OH267897   6.777   2.940   0.310  0.2471  0.1011  0.5216
15469TIP3    H167898   6.751   2.875   0.244 -1.0370  1.2151 -0.0943
15469TIP3    H267899   6.717   3.013   0.296  1.4238  1.2623  1.4716
15470TIP3   OH267900   0.644   5.979   2.222  0.3968 -0.0911 -1.0684
15470TIP3    H167901   0.559   5.950   2.255 -0.0940  1.9188 -0.4896
15470TIP3    H267902   0.623   6.039   2.150  1.3138  0.5375 -0.8206
15471TIP3   OH267903   4.089   6.076  10.629  0.3123  0.0235  0.3318
15471TIP3    H167904   4.075   6.069  10.535  1.0045 -0.0542  0.2294
15471TIP3    H267905   4.007   6.111  10.663  0.4206  1.0478 -0.4299
15472TIP3   OH267906   1.784   4.121   1.484  0.0064 -0.6640 -0.5803
15472TIP3    H167907   1.788   4.199   1.428  0.8658 -0.2769 -0.0052
15472TIP3    H267908   1.867   4.122   1.531 -1.4791  0.1107  2.1233
15473TIP3   OH267909   1.259   6.193   4.722  0.3189 -0.0461 -0.4862
15473TIP3    H167910   1.216   6.148   4.649  0.8156 -1.8086  0.2603
15473TIP3    H267911   1.287   6.122   4.779 -1.6611  1.3435  2.3336
15474TIP3   OH267912   4.107   6.194  14.790  0.3251  0.4105  0.3416
15474TIP3    H167913   4.138   6.239  14.869 -0.5747  0.7007  0.5355
15474TIP3    H267914   4.150   6.240  14.718  0.3910  0.7696  0.6085
15475TIP3   OH267915   2.543   0.700  15.146  0.4790  0.2758  0.2170
15475TIP3    H167916   2.543   0.791  15.175  1.7414  0.1372  0.6996
15475TIP3    H267917   2.593   0.701  15.064  1.8570 -0.2145  1.0393
15476TIP3   OH267918   1.867   1.450  16.727  0.1508 -0.5674  0.5508
15476TIP3    H167919   1.898   1.468  16.639 -0.2679  0.6918  0.6517
15476TIP3    H267920   1.837   1.359  16.724  0.3051 -0.5869 -0.5528
15477TIP3   OH267921   4.412   4.622  12.741 -0.0539 -0.2040  0.7234
15477TIP3    H167922   4.444   4.560  12.674 -1.5743  0.1804 -0.3730
15477TIP3    H267923   4.382   4.698  12.691 -1.2228  0.0872  1.8449
15478TIP3   OH267924   1.467   6.425   1.451 -0.1116  0.2467 -0.3523
15478TIP3    H167925   1.527   6.371   1.399  3.0716  2.5616  0.7333
15478TIP3    H267926   1.475   6.513   1.413  0.7812  1.5664  2.6900
15479TIP3   OH267927   3.505   2.544   2.717 -0.2128  0.7104  0.0924
15479TIP3    H167928   3.539   2.538   2.807  0.2489  4.4289  0.2395
15479TIP3    H267929   3.411   2.558   2.729 -0.4774 -0.8404 -0.0868
15480TIP3   OH267930   6.029   2.138  15.027 -0.2835  0.0973 -0.3686
15480TIP3    H167931   5.985   2.078  15.087  2.9096 -0.6856  1.2838
15480TIP3    H267932   6.044   2.086  14.948  3.5228 -1.7760  1.4754
15481TIP3   OH267933   1.184   4.493   4.471 -0.9259  0.4295  0.3110
15481TIP3    H167934   1.125   4.477   4.397 -0.5293  0.2076  0.0371
15481TIP3    H267935   1.131   4.539   4.535 -0.3453  3.8813 -1.5704
15482TIP3   OH267936   2.862   4.638  17.289  0.2893  0.2438  0.3565
15482TIP3    H167937   2.894   4.551  17.315  1.7109  0.6812  0.0800
15482TIP3    H267938   2.940   4.693  17.289 -0.4708  1.3232 -0.3482
15483TIP3   OH267939   1.954   0.058   6.062  0.1995 -0.4363 -0.0479
15483TIP3    H167940   2.009   0.102   6.126  2.1007 -2.0983 -0.4632
15483TIP3    H267941   1.996   0.076   5.978 -1.2634  0.2478 -0.6508
15484TIP3   OH267942   1.668   1.375   4.034  0.0511 -0.1786 -0.0245
15484TIP3    H167943   1.763   1.389   4.034 -0.0846  0.8876 -1.2897
15484TIP3    H267944   1.653   1.309   3.966 -0.1823  0.2439 -0.3877
15485TIP3   OH267945   2.233   4.421  16.675 -0.0425  0.2608  0.4370
15485TIP3    H167946   2.168   4.415  16.605 -2.2024  0.7071  2.3433
15485TIP3    H267947   2.295   4.488  16.645 -1.0242  0.5559 -0.9725
15486TIP3   OH267948   0.269   0.422   5.615 -0.1607  0.0084  0.3599
15486TIP3    H167949   0.195   0.482   5.620  2.2878  3.3018 -0.6601
15486TIP3    H267950   0.252   0.369   5.536 -1.1409  1.1232 -0.1858
15487TIP3   OH267951   3.798   4.773  16.803 -0.2426 -0.4148 -0.5285
15487TIP3    H167952   3.803   4.843  16.868 -2.3451  0.0919 -0.8748
15487TIP3    H267953   3.887   4.766  16.768  0.2516  1.2657  0.3460
15488TIP3   OH267954   0.481   6.800   1.706 -0.4145  0.1669 -0.1255
15488TIP3    H167955   0.549   6.782   1.642 -0.8625 -1.4381 -0.1755
15488TIP3    H267956   0.509   6.881   1.750  1.0825 -0.0256 -0.7097
15489TIP3   OH267957   6.072   4.069  17.208  0.6160 -0.6767  0.0157
15489TIP3    H167958   6.138   4.134  17.234  0.8943 -1.0211  0.1731
15489TIP3    H267959   5.998   4.086  17.265  1.6184 -2.1322  1.7963
15490TIP3   OH267960   0.284   2.889   0.483 -0.0273 -0.2748 -0.4823
15490TIP3    H167961   0.233   2.909   0.562 -1.0294 -2.3804 -0.5545
15490TIP3    H267962   0.218   2.864   0.418  0.9616 -1.0054 -1.2125
15491TIP3   OH267963   5.103   1.478  12.365 -0.1112  0.0695  0.4691
15491TIP3    H167964   5.022   1.522  12.391  0.0126 -0.2456  1.4021
15491TIP3    H267965   5.088   1.452  12.274 -0.1717  2.0532 -0.0972
15492TIP3   OH267966   0.546   6.340  13.533  0.2811 -0.2376 -0.1769
15492TIP3    H167967   0.573   6.355  13.623 -0.5715 -1.7033  0.3403
15492TIP3    H267968   0.508   6.252  13.533 -0.1348 -0.0889 -1.8694
15493TIP3   OH267969   5.258   2.594   3.561  0.1665 -0.1830  0.5150
15493TIP3    H167970   5.258   2.551   3.647 -1.9806  0.9792  1.1330
15493TIP3    H267971   5.320   2.666   3.570 -0.3214  0.1531  1.2127
15494TIP3   OH267972   1.766   5.355  16.130 -0.6716 -0.4511 -0.1368
15494TIP3    H167973   1.782   5.335  16.222 -0.1674  0.9982  0.1142
15494TIP3    H267974   1.831   5.304  16.082  1.4864  1.5632  0.5589
15495TIP3   OH267975   2.771   2.699  14.178 -0.0349  0.0777 -0.2575
15495TIP3    H167976   2.842   2.636  14.185 -0.4856 -0.1306  3.2281
15495TIP3    H267977   2.692   2.651  14.204 -1.2865  0.6788 -2.7239
15496TIP3   OH267978   5.315   2.139   0.590  0.0828 -0.4697  0.6115
15496TIP3    H167979   5.307   2.231   0.563 -0.5526 -0.4038  1.0026
15496TIP3    H267980   5.389   2.106   0.540 -0.4962 -0.1036 -0.5212
15497TIP3   OH267981   6.369   2.582   3.959 -0.4532 -0.1599  0.1754
15497TIP3    H167982   6.439   2.575   3.893  0.6049  0.0291  1.2584
15497TIP3    H267983   6.364   2.495   3.998  0.5060  0.3242  1.4163
15498TIP3   OH267984   4.790   3.009   2.090 -0.4524  0.1958  0.0612
15498TIP3    H167985   4.709   3.060   2.097 -0.9520 -0.5902  0.0602
15498TIP3    H267986   4.767   2.923   2.124  0.4237  0.0021  0.1747
15499TIP3   OH267987   3.116   3.232   4.646  0.1246 -0.5461 -0.3671
15499TIP3    H167988   3.120   3.184   4.564  1.0628 -0.9808 -0.0655
15499TIP3    H267989   3.205   3.230   4.681  0.1330  1.2040 -0.2324
15500TIP3   OH267990   1.444   1.297   3.604 -0.6453 -0.5340 -0.0727
15500TIP3    H167991   1.492   1.257   3.676  0.9246 -1.5310 -1.6376
15500TIP3    H267992   1.380   1.231   3.578 -1.7674  0.1421  0.9091
15501TIP3   OH267993   0.877   6.100   5.782 -0.4150  0.7144  0.2455
15501TIP3    H167994   0.859   6.014   5.818 -1.4889 -0.3593 -2.7194
15501TIP3    H267995   0.967   6.120   5.810 -0.0615 -1.4886  0.7044
15502TIP3   OH267996   0.528   1.722   5.950 -0.1512 -0.3064 -0.4151
15502TIP3    H167997   0.473   1.781   6.001 -1.2352 -1.1404 -0.6045
15502TIP3    H267998   0.564   1.776   5.880 -0.4815  0.3148 -0.1018
15503TIP3   OH267999   0.409   6.204   2.848 -0.7175 -0.0169 -0.3662
15503TIP3    H168000   0.332   6.165   2.889 -1.2102 -0.6798 -1.8887
15503TIP3    H268001   0.460   6.130   2.816  1.2527  0.3510  1.7958
15504TIP3   OH268002   4.367   3.497  13.784 -0.5223 -0.6944 -0.2927
15504TIP3    H168003   4.371   3.590  13.804  0.6302 -0.6495 -0.7133
15504TIP3    H268004   4.398   3.490  13.693 -1.5970 -1.3703 -0.6227
15505TIP3   OH268005   4.022   2.867  14.941  0.6826  0.1975  0.1727
15505TIP3    H168006   4.057   2.936  14.885 -0.6839  0.3920 -0.4735
15505TIP3    H268007   3.941   2.839  14.897  1.2534 -1.8737  0.3845
15506TIP3   OH268008   2.684   1.850  13.702  0.6905 -0.4153 -0.4664
15506TIP3    H168009   2.731   1.778  13.661 -1.4870 -1.1421 -1.7409
15506TIP3    H268010   2.663   1.909  13.630  2.3627  1.4853  0.5427
15507TIP3   OH268011   2.910   0.086  12.455 -0.0064  0.3223  0.4584
15507TIP3    H168012   2.880  -0.003  12.435 -1.0414  0.7512  0.0285
15507TIP3    H268013   2.919   0.128  12.370  1.3196  0.3780  0.6147
15508TIP3   OH268014   5.107   0.848  12.099 -0.5686  0.3651 -0.2365
15508TIP3    H168015   5.176   0.914  12.108 -1.1618  0.9251  0.2664
15508TIP3    H268016   5.053   0.860  12.176 -0.6974 -0.7090 -0.1512
15509TIP3   OH268017   0.992   3.272   5.530 -0.2833  0.2758 -0.3078
15509TIP3    H168018   1.047   3.213   5.478 -1.6149 -0.7742 -0.5458
15509TIP3    H268019   0.988   3.353   5.479 -0.0493 -0.0972 -0.9200
15510TIP3   OH268020   3.608   0.296  12.013  0.3028  0.2529 -0.3757
15510TIP3    H168021   3.542   0.365  12.023  0.1003 -0.1308  1.1217
15510TIP3    H268022   3.689   0.343  11.993  0.1974  0.9555  0.7726
15511TIP3   OH268023   3.276   5.991   0.051  1.1538 -0.4041 -0.1759
15511TIP3    H168024   3.247   6.077   0.021  2.7489 -0.1674 -1.0797
15511TIP3    H268025   3.198   5.935   0.042  0.9246  0.2440 -2.3942
15512TIP3   OH268026   3.462   5.624   1.835  0.5625 -0.5253  0.1477
15512TIP3    H168027   3.443   5.551   1.776 -1.3423 -0.3389  0.4823
15512TIP3    H268028   3.387   5.684   1.824  1.1121  0.4189  1.3428
15513TIP3   OH268029   3.902   5.277  12.273  0.4268  0.0917 -0.1553
15513TIP3    H168030   3.847   5.206  12.308 -1.2117  1.0468 -0.7094
15513TIP3    H268031   3.879   5.281  12.180 -0.0896  1.8325  0.0173
15514TIP3   OH268032   6.048   0.155  13.357 -0.2116  0.6198 -0.0640
15514TIP3    H168033   6.143   0.154  13.342 -0.2241 -0.7943 -0.1867
15514TIP3    H268034   6.011   0.123  13.275 -0.8476  1.8699 -0.2703
15515TIP3   OH268035   1.162   1.588   2.106  0.2640 -0.3621  0.1304
15515TIP3    H168036   1.186   1.523   2.040 -0.2510  1.0105 -1.4356
15515TIP3    H268037   1.239   1.595   2.162  1.4595 -0.0757 -1.5202
15516TIP3   OH268038   1.961   1.953   2.409 -0.0413  0.3956 -0.4428
15516TIP3    H168039   1.983   1.920   2.496 -0.5030 -0.8268 -0.7719
15516TIP3    H268040   1.968   2.048   2.416  2.2441  0.1847  0.2862
15517TIP3   OH268041   4.046   5.116   6.316 -0.1395 -0.0342 -0.0304
15517TIP3    H168042   3.969   5.150   6.270 -1.6761 -2.3416  0.7739
15517TIP3    H268043   4.114   5.113   6.249 -0.8166  1.7033 -0.8400
15518TIP3   OH268044   5.128   6.050   1.712 -0.4485  0.0708 -0.0788
15518TIP3    H168045   5.044   6.005   1.709  0.2578 -1.2069 -1.5097
15518TIP3    H268046   5.183   6.002   1.650  1.2943  0.9746  0.7339
15519TIP3   OH268047   1.185   2.120   1.052  0.1002 -0.4315  0.0638
15519TIP3    H168048   1.123   2.120   0.979 -0.6948  2.8557  0.6568
15519TIP3    H268049   1.269   2.098   1.013 -0.8506 -1.7681 -1.2896
15520TIP3   OH268050   4.586   3.764  15.713  0.0651  0.1154 -0.7373
15520TIP3    H168051   4.549   3.852  15.718 -1.8621 -0.6886 -0.4531
15520TIP3    H268052   4.533   3.719  15.647 -0.3361 -1.4454  0.5965
15521TIP3   OH268053   2.548   0.621  17.253  0.1363 -0.8735 -0.5571
15521TIP3    H168054   2.501   0.651  17.331  0.5575  1.5014 -1.1664
15521TIP3    H268055   2.481   0.622  17.184  0.0822 -1.6436 -0.5131
15522TIP3   OH268056   1.747   6.280   1.032 -0.0209  0.0872  0.5929
15522TIP3    H168057   1.721   6.205   0.978  0.4257  0.0404  0.4410
15522TIP3    H268058   1.831   6.308   0.994 -1.3774  2.2109 -0.9146
15523TIP3   OH268059   4.147   0.380  13.815  0.3802 -0.0763  0.2783
15523TIP3    H168060   4.173   0.357  13.726 -1.1805 -0.8751  0.0111
15523TIP3    H268061   4.122   0.472  13.810  2.1093  0.4132  0.3197
15524TIP3   OH268062   1.793   5.078  17.191 -0.0690  0.3034 -1.0836
15524TIP3    H168063   1.727   5.045  17.130 -0.5026  2.4056 -1.7876
15524TIP3    H268064   1.749   5.149  17.237  0.8572 -0.0575  0.3786
15525TIP3   OH268065   6.451   1.165  13.372  0.8031 -0.1385  0.2691
15525TIP3    H168066   6.484   1.222  13.441 -2.1531  1.2878  0.5992
15525TIP3    H268067   6.395   1.102  13.417 -1.6164  1.1671 -0.8358
15526TIP3   OH268068   5.501   4.520  12.142  0.1836 -0.0194  0.1874
15526TIP3    H168069   5.443   4.456  12.101  1.3395 -0.6114 -0.5658
15526TIP3    H268070   5.505   4.494  12.234  1.4886 -1.7235 -0.3189
15527TIP3   OH268071   4.357   4.882  12.642 -0.0464  0.1594  0.1797
15527TIP3    H168072   4.362   4.977  12.630 -0.9650  0.1927  0.0671
15527TIP3    H268073   4.270   4.858  12.610 -0.0985 -0.6200  0.8924
15528TIP3   OH268074   6.722   3.048  10.687 -0.1833  0.0317  0.0610
15528TIP3    H168075   6.805   3.003  10.697  0.0332  0.2161 -0.8384
15528TIP3    H268076   6.746   3.140  10.678 -0.4429  0.0118 -0.8440
15529TIP3   OH268077   5.618   2.434   3.571 -0.4369 -0.3887  0.1385
15529TIP3    H168078   5.682   2.370   3.540  0.1311  0.8218 -1.2156
15529TIP3    H268079   5.619   2.503   3.505 -2.3153  0.1911  0.6905
15530TIP3   OH268080   0.494   6.789  14.737  0.0155  0.9915  0.1138
15530TIP3    H168081   0.480   6.823  14.825  1.9580 -1.6637  1.5216
15530TIP3    H268082   0.589   6.776  14.731 -0.1233  0.7579 -2.2325
15531TIP3   OH268083   4.683   5.942   6.329  0.3860 -0.3094 -0.0481
15531TIP3    H168084   4.709   6.033   6.343  0.3049 -0.3300  0.2337
15531TIP3    H268085   4.672   5.906   6.417  1.2935 -0.8396 -0.1342
15532TIP3   OH268086   1.643   5.804  12.283  0.0878 -0.3612 -0.0090
15532TIP3    H168087   1.612   5.762  12.203 -0.4021 -0.7979  0.4043
15532TIP3    H268088   1.624   5.897  12.271  1.1072 -0.2607 -0.8945
15533TIP3   OH268089   6.275   3.610   3.893 -0.0518 -0.2324 -0.2866
15533TIP3    H168090   6.271   3.700   3.928  0.6854  0.4202 -1.8511
15533TIP3    H268091   6.214   3.611   3.819 -0.6466 -1.2648  0.1809
15534TIP3   OH268092   6.243   5.502   2.749 -0.0994 -0.0516  0.1497
15534TIP3    H168093   6.253   5.597   2.754  1.8266 -0.2137 -0.4858
15534TIP3    H268094   6.279   5.478   2.664  0.7948 -1.5247  0.9244
15535TIP3   OH268095   0.382   4.893   4.636  0.0382  0.2461  0.1120
15535TIP3    H168096   0.358   4.972   4.686  0.9256  1.1260 -0.8360
15535TIP3    H268097   0.377   4.921   4.545 -1.7723 -1.4098 -0.3304
15536TIP3   OH268098   0.850   1.972  16.937 -0.2432 -0.0291 -0.0410
15536TIP3    H168099   0.807   1.900  16.893  3.4921 -1.9783 -0.6981
15536TIP3    H268100   0.855   1.945  17.029 -0.9157  0.4656  0.1470
15537TIP3   OH268101   3.562   5.498   4.224 -0.1849  0.4486 -0.0574
15537TIP3    H168102   3.545   5.408   4.198 -0.8106  0.2094  1.1249
15537TIP3    H268103   3.525   5.552   4.154 -0.4628 -0.2006 -0.4101
15538TIP3   OH268104   4.440   5.539   4.417  0.1893 -0.2329 -0.1694
15538TIP3    H168105   4.438   5.467   4.480  0.9313 -0.9675 -0.9778
15538TIP3    H268106   4.380   5.511   4.348 -0.4284  0.4568  0.0839
15539TIP3   OH268107   2.990   4.358   1.509  0.1091 -0.3105  0.0876
15539TIP3    H168108   2.930   4.382   1.438 -0.5746 -0.7832  0.5022
15539TIP3    H268109   3.018   4.442   1.546  1.4032 -0.0167 -1.4952
15540TIP3   OH268110   6.668   0.846  14.629 -0.3909 -0.3149 -0.6845
15540TIP3    H168111   6.722   0.802  14.564  2.7420  1.1461  0.8420
15540TIP3    H268112   6.725   0.857  14.705 -3.6531 -1.1319  2.0197
15541TIP3   OH268113   4.789   2.956   1.826 -0.1505  0.1333  0.3148
15541TIP3    H168114   4.802   2.980   1.918  3.7374  0.8179 -0.2956
15541TIP3    H268115   4.775   2.862   1.827 -0.2170  0.1469  1.6384
15542TIP3   OH268116   4.022   5.076   5.517  0.6017  0.6432 -0.0753
15542TIP3    H168117   4.002   5.130   5.594  1.0936  0.7877 -0.0478
15542TIP3    H268118   3.998   5.131   5.442  1.1269  0.9144 -0.0482
15543TIP3   OH268119   4.713   3.843   1.105 -0.1812  0.0764 -0.6754
15543TIP3    H168120   4.695   3.788   1.028 -0.4062  0.8725 -1.2033
15543TIP3    H268121   4.650   3.814   1.170  0.9216 -1.5583 -0.3032
15544TIP3   OH268122   4.388   6.446   2.920  0.8948  0.8549 -0.1119
15544TIP3    H168123   4.375   6.486   3.006 -0.5379  1.4065 -0.5689
15544TIP3    H268124   4.425   6.516   2.866  0.7420  0.8447 -0.2333
15545TIP3   OH268125   2.512   5.507   2.649  0.5994 -0.5002 -0.5448
15545TIP3    H168126   2.441   5.562   2.683  0.7802  0.5697 -1.8564
15545TIP3    H268127   2.581   5.514   2.715 -0.0247 -0.5323  0.1300
15546TIP3   OH268128   4.681   5.916   4.521 -0.0733  0.2494  0.0564
15546TIP3    H168129   4.758   5.858   4.525  0.1399  0.5690  0.6215
15546TIP3    H268130   4.607   5.859   4.541  0.0199 -0.0464 -0.4164
15547TIP3   OH268131   0.453   0.089  15.387 -0.1586  0.5639 -0.3913
15547TIP3    H168132   0.465  -0.006  15.388 -1.0833  0.4477  2.3209
15547TIP3    H268133   0.525   0.121  15.333  1.1980 -1.5586  0.0867
15548TIP3   OH268134   0.380   1.503   0.670  0.5064 -0.7001  0.1543
15548TIP3    H168135   0.294   1.512   0.629  0.6071 -1.2604 -0.1784
15548TIP3    H268136   0.428   1.442   0.614  0.2902 -2.2854  1.6454
15549TIP3   OH268137   6.274   0.605   3.212 -0.5491 -1.1482  0.3072
15549TIP3    H168138   6.288   0.651   3.129 -4.0362  0.2982  0.4498
15549TIP3    H268139   6.361   0.600   3.251  1.0594 -1.2452 -3.0992
15550TIP3   OH268140   0.061   2.300  16.355 -0.0652  0.5254 -0.3432
15550TIP3    H168141  -0.030   2.281  16.335  0.2701 -0.5263 -0.8925
15550TIP3    H268142   0.069   2.395  16.342 -1.4992  0.9090  1.4619
15551TIP3   OH268143   6.163   4.318  15.516 -0.5331  0.2710  0.0626
15551TIP3    H168144   6.160   4.381  15.589 -0.5526 -1.5788  1.6941
15551TIP3    H268145   6.077   4.276  15.516 -0.6571  0.4945 -1.2713
15552TIP3   OH268146   3.938   2.657  13.909  0.2212 -0.2966  0.2043
15552TIP3    H168147   3.936   2.732  13.849 -3.3203  0.4237  1.1383
15552TIP3    H268148   3.972   2.585  13.855  0.2594  1.1145 -1.7128
15553TIP3   OH268149   5.975   5.562  15.163 -0.2108  0.3945 -0.0588
15553TIP3    H168150   6.031   5.629  15.123  1.4169 -1.5886 -1.2049
15553TIP3    H268151   6.033   5.514  15.222 -1.4798  0.3201  1.1473
15554TIP3   OH268152   4.843   3.306   2.517  0.4325  0.1902 -0.3488
15554TIP3    H168153   4.823   3.232   2.460  1.2131 -0.1861 -0.1317
15554TIP3    H268154   4.765   3.316   2.572 -0.4046  0.6698 -1.5994
15555TIP3   OH268155   6.360   0.375   5.796  0.2589 -0.3197 -0.4472
15555TIP3    H168156   6.405   0.308   5.746  0.5411 -0.2871 -0.2405
15555TIP3    H268157   6.274   0.338   5.815  0.7588 -1.0179  0.4931
15556TIP3   OH268158   6.549   4.074   5.876  0.3457  0.6565 -0.2401
15556TIP3    H168159   6.524   4.161   5.846  2.1122  1.3645  0.2619
15556TIP3    H268160   6.535   4.077   5.971 -0.2696  0.1626 -0.3164
15557TIP3   OH268161   3.092   2.935   5.648  0.1869 -0.4883  0.0116
15557TIP3    H168162   3.128   2.912   5.734  0.5460 -0.4448 -0.1280
15557TIP3    H268163   3.055   3.023   5.660 -1.0510 -1.0623  0.5034
15558TIP3   OH268164   3.050   1.047   1.708  0.0327  0.8569 -0.3617
15558TIP3    H168165   3.078   1.132   1.676 -1.4471  0.8917 -1.6276
15558TIP3    H268166   3.044   0.992   1.630 -0.7766  0.0987  0.2157
15559TIP3   OH268167   2.042   6.760   4.552  0.3252 -0.1515 -0.3207
15559TIP3    H168168   2.050   6.746   4.646 -1.1792  1.5810  0.0863
15559TIP3    H268169   2.122   6.805   4.527 -0.8374  2.6617  0.8174
15560TIP3   OH268170   0.053   0.886  16.940  0.1315 -0.0740  0.2361
15560TIP3    H168171   0.046   0.791  16.944  0.3917 -0.0534  1.3798
15560TIP3    H268172  -0.022   0.914  16.887  0.4616 -0.9574 -0.7129
15561TIP3   OH268173   3.225   3.760   2.604  0.3468 -0.5738 -0.4168
15561TIP3    H168174   3.175   3.733   2.527  0.4732 -0.2437 -0.6158
15561TIP3    H268175   3.211   3.690   2.667 -0.5719 -0.3611 -0.3827
15562TIP3   OH268176   0.263   4.763   0.445 -0.3319 -0.6175  0.0944
15562TIP3    H168177   0.241   4.827   0.513 -2.3301 -0.0495 -1.0553
15562TIP3    H268178   0.335   4.803   0.397 -1.2382  0.5729 -0.3003
15563TIP3   OH268179   6.450   5.764  10.814  0.5556  0.1906 -0.6554
15563TIP3    H168180   6.374   5.707  10.803  0.8822 -0.8640  1.9584
15563TIP3    H268181   6.414   5.853  10.817 -0.6584 -0.3256  0.8877
15564TIP3   OH268182   5.382   2.600  11.439  0.1294  0.3131 -0.4299
15564TIP3    H168183   5.428   2.673  11.479  0.6814 -0.2882  0.0394
15564TIP3    H268184   5.425   2.586  11.355 -0.1963  0.7400 -0.6729
15565TIP3   OH268185   5.325   4.984  12.494 -0.4510 -0.1693 -0.1734
15565TIP3    H168186   5.272   5.021  12.423  0.4111  1.3978 -0.0170
15565TIP3    H268187   5.298   5.033  12.572 -0.2190 -0.7578  0.2813
15566TIP3   OH268188   1.582   5.635  14.242 -0.4170  0.1668 -0.1992
15566TIP3    H168189   1.537   5.557  14.276  0.4586 -1.4193 -2.5029
15566TIP3    H268190   1.639   5.662  14.314 -2.1391 -0.1436  1.3397
15567TIP3   OH268191   3.729   5.822   4.292  0.1537  0.3479 -0.4281
15567TIP3    H168192   3.643   5.825   4.333  1.0946  1.0407  1.5638
15567TIP3    H268193   3.757   5.731   4.301 -0.6626 -0.0439 -1.7364
15568TIP3   OH268194   3.183   0.124   2.388 -0.2452  0.5059  0.0842
15568TIP3    H168195   3.193   0.032   2.412 -1.3258  0.1919 -0.6184
15568TIP3    H268196   3.270   0.149   2.356  0.1572 -0.1641  0.6283
15569TIP3   OH268197   6.754   0.982  16.248 -0.4410 -0.9407 -0.2011
15569TIP3    H168198   6.774   0.889  16.253 -0.5876 -1.0845 -1.9552
15569TIP3    H268199   6.830   1.021  16.204 -0.4115 -0.2325  0.4573
15570TIP3   OH268200   0.353   5.597  12.995  0.4047 -0.1205  0.4228
15570TIP3    H168201   0.307   5.679  12.978 -0.6778 -0.6860  0.5371
15570TIP3    H268202   0.370   5.560  12.908 -1.4388 -1.0228  0.4272
15571TIP3   OH268203   1.352   3.627   5.835 -0.6064 -0.6375  0.0318
15571TIP3    H168204   1.399   3.684   5.895 -0.5473 -1.4593  0.7864
15571TIP3    H268205   1.420   3.588   5.780 -0.5541 -0.6793  0.1257
15572TIP3   OH268206   4.544   6.311   5.272  0.2883  0.4214  0.0678
15572TIP3    H168207   4.571   6.393   5.313 -3.4172  1.7511  0.0633
15572TIP3    H268208   4.554   6.245   5.341  0.4746  1.4317  1.0144
15573TIP3   OH268209   0.421   1.912  12.622 -0.5065 -0.4778  0.8227
15573TIP3    H168210   0.442   1.856  12.547 -1.5454 -0.2823  0.3816
15573TIP3    H268211   0.331   1.941  12.606  1.0120  3.8439 -0.5727
15574TIP3   OH268212   6.357   3.418  14.274  0.3612  0.3558  0.1387
15574TIP3    H168213   6.401   3.373  14.201  0.9551  1.2446 -0.0683
15574TIP3    H268214   6.270   3.380  14.277  0.3974  0.1673 -0.9198
15575TIP3   OH268215   1.893   5.359   2.946 -0.0097 -0.6057  0.3720
15575TIP3    H168216   1.828   5.293   2.921  0.5968 -0.8465 -0.5823
15575TIP3    H268217   1.949   5.315   3.010  0.9200 -1.3190 -0.9014
15576TIP3   OH268218   5.011   1.218   1.769  0.3795  0.8705  0.0083
15576TIP3    H168219   5.042   1.146   1.824 -2.6426 -0.7571 -0.3136
15576TIP3    H268220   4.922   1.235   1.800 -0.3173  1.8805 -2.4794
15577TIP3   OH268221   3.308   3.551  11.915 -0.2853 -0.1913 -0.0478
15577TIP3    H168222   3.398   3.518  11.911 -0.1034  0.1751  0.7547
15577TIP3    H268223   3.311   3.634  11.867 -0.9234 -1.6741 -2.7485
15578TIP3   OH268224   4.374   1.383   3.071  0.2543  0.1810 -0.8382
15578TIP3    H168225   4.281   1.392   3.089  0.3044  0.4314 -0.6936
15578TIP3    H268226   4.405   1.474   3.061  0.4147  0.0845 -1.2167
15579TIP3   OH268227   4.486   3.044   0.105 -0.1854  0.0698 -0.4033
15579TIP3    H168228   4.435   3.039   0.186 -0.2129 -1.2269 -0.4793
15579TIP3    H268229   4.424   3.078   0.040 -0.0121  1.6155  0.2264
15580TIP3   OH268230   5.233   0.783  13.730 -0.2073  0.2025 -0.3587
15580TIP3    H168231   5.300   0.845  13.758  1.2797 -1.4384 -0.1956
15580TIP3    H268232   5.280   0.719  13.677 -2.0122  0.1376 -1.9461
15581TIP3   OH268233   0.812   1.554  12.340  0.0064  0.6014  0.0542
15581TIP3    H168234   0.863   1.506  12.405 -2.3877  0.0691  1.6216
15581TIP3    H268235   0.772   1.486  12.286 -3.0664  0.7031  2.0278
15582TIP3   OH268236   1.372   2.293  14.553  0.7461 -0.0016 -0.8951
15582TIP3    H168237   1.338   2.203  14.547 -1.7690  0.9010 -0.6651
15582TIP3    H268238   1.390   2.306  14.646 -2.6799  1.0344 -0.3213
15583TIP3   OH268239   3.609   4.225   4.763  0.0665  0.5383 -0.2976
15583TIP3    H168240   3.562   4.296   4.806 -0.9173 -0.5438  0.4410
15583TIP3    H268241   3.541   4.168   4.727  0.8035 -0.5871  0.0244
15584TIP3   OH268242   6.567   2.419   4.245  0.3982 -0.1807  0.2815
15584TIP3    H168243   6.644   2.377   4.285  0.7461  0.5205  0.3567
15584TIP3    H268244   6.504   2.425   4.317  0.1640 -1.0188  0.1487
15585TIP3   OH268245   2.793   4.367  17.155  0.9691  0.4110 -0.0967
15585TIP3    H168246   2.834   4.287  17.188  1.8717  1.5195  1.5783
15585TIP3    H268247   2.864   4.413  17.109  0.7438  0.7800 -0.0740
15586TIP3   OH268248   5.352   6.141   4.890 -0.3971 -0.4104  0.0977
15586TIP3    H168249   5.420   6.140   4.822  0.1924  0.8893  0.6577
15586TIP3    H268250   5.380   6.073   4.952 -1.8698 -2.8703 -1.8149
15587TIP3   OH268251   6.358   6.447   0.275  0.8534  0.4055  0.2117
15587TIP3    H168252   6.397   6.394   0.344  3.3037  0.6762 -0.9270
15587TIP3    H268253   6.380   6.401   0.194  0.6458  1.7194 -0.6042
15588TIP3   OH268254   2.188   1.382  16.532 -0.0500 -0.6826  0.5187
15588TIP3    H168255   2.163   1.322  16.461  0.8565 -0.8469  0.3325
15588TIP3    H268256   2.183   1.328  16.611  1.7908 -1.2982  0.2258
15589TIP3   OH268257   5.601   1.495  11.832  0.0625  0.4566  0.1927
15589TIP3    H168258   5.540   1.501  11.906 -0.5633 -1.1745 -0.1814
15589TIP3    H268259   5.610   1.401  11.816 -0.2616  0.8263 -2.2055
15590TIP3   OH268260   6.429   1.009   5.972  0.4954 -0.0083  0.4812
15590TIP3    H168261   6.349   0.989   5.925  0.3583 -1.2758  1.2450
15590TIP3    H268262   6.427   0.953   6.050  1.7244  0.5354  0.9281
15591TIP3   OH268263   0.664   6.652   0.340 -0.2152  0.0350 -0.2859
15591TIP3    H168264   0.584   6.641   0.393 -1.3381  1.0867 -1.7145
15591TIP3    H268265   0.637   6.630   0.251  0.9321  1.0399 -0.8911
15592TIP3   OH268266   3.535   0.732   5.129 -0.5364  0.2818 -0.6707
15592TIP3    H168267   3.596   0.735   5.056  1.9244  0.9467  1.3367
15592TIP3    H268268   3.529   0.639   5.152  0.6776  0.3392 -0.1097
15593TIP3   OH268269   3.441   0.483   4.490  0.8651 -0.3936  0.4044
15593TIP3    H168270   3.438   0.561   4.435 -1.7407 -0.0815  0.9530
15593TIP3    H268271   3.424   0.515   4.578 -1.1664 -1.6952  0.5083
15594TIP3   OH268272   4.456   1.760   1.019  0.3603 -0.1686 -0.3866
15594TIP3    H168273   4.518   1.770   0.947  1.8817 -0.6997  0.8329
15594TIP3    H268274   4.503   1.710   1.085 -0.3855  1.7855  1.6995
15595TIP3   OH268275   3.816   5.121  15.073  0.3562  0.1063  0.1025
15595TIP3    H168276   3.734   5.074  15.089  1.7838 -1.7250  2.4754
15595TIP3    H268277   3.791   5.213  15.072 -1.9919 -0.4904 -1.1262
15596TIP3   OH268278   1.152   2.327   2.284 -0.5017 -0.0038 -0.6223
15596TIP3    H168279   1.198   2.262   2.230 -1.6538 -3.0572  1.9273
15596TIP3    H268280   1.069   2.285   2.307 -1.3201  2.4123  1.0684
15597TIP3   OH268281   5.015   3.700  12.631  0.1487  0.0330 -0.1351
15597TIP3    H168282   5.092   3.757  12.632 -0.1416  0.4409  1.6676
15597TIP3    H268283   4.943   3.758  12.608  0.1071  0.0424  0.0180
15598TIP3   OH268284   4.059   1.403  11.227  0.2819 -0.9312  0.3901
15598TIP3    H168285   4.149   1.389  11.259 -0.1043 -2.4097  0.8812
15598TIP3    H268286   4.070   1.423  11.134  1.1848 -0.1283  0.6595
15599TIP3   OH268287   0.692   4.105   0.925  0.0431 -0.1935 -0.1836
15599TIP3    H168288   0.616   4.119   0.869 -0.0219 -1.1997 -0.3563
15599TIP3    H268289   0.764   4.086   0.865  0.6910  1.8202 -0.0760
15600TIP3   OH268290   2.959   1.439  14.361  0.4268 -0.5008  0.5174
15600TIP3    H168291   2.878   1.405  14.399 -0.1106  0.9829  0.7225
15600TIP3    H268292   3.017   1.453  14.436  0.3824 -0.2587  0.5052
15601TIP3   OH268293   2.073   2.835  14.204  0.4566 -0.2211 -0.0252
15601TIP3    H168294   2.048   2.744  14.188 -0.5533 -0.2857  1.7880
15601TIP3    H268295   2.075   2.875  14.118  0.8735 -1.9468 -0.8427
15602TIP3   OH268296   5.274   1.643   4.994 -0.4454  0.4948  0.7720
15602TIP3    H168297   5.185   1.607   4.992  0.2753 -1.3331  0.5551
15602TIP3    H268298   5.316   1.600   5.068  0.9131 -0.2964 -0.4226
15603TIP3   OH268299   1.896   6.196  15.689  0.2522 -0.4684  0.3110
15603TIP3    H168300   1.953   6.260  15.646  2.1921 -0.6235  2.5277
15603TIP3    H268301   1.813   6.203  15.643  1.5668  0.9355 -1.9653
15604TIP3   OH268302   6.587   1.666   4.608  0.7429 -0.2218  0.1024
15604TIP3    H168303   6.599   1.752   4.567 -0.1910 -0.3511 -0.4459
15604TIP3    H268304   6.517   1.679   4.672  2.8861  0.2354  2.4723
15605TIP3   OH268305   5.236   1.308   6.299  0.1487 -0.2872 -0.6813
15605TIP3    H168306   5.318   1.350   6.273  0.4339 -0.0217  0.6241
15605TIP3    H268307   5.263   1.222   6.330 -0.1642 -0.5097 -1.0265
15606TIP3   OH268308   6.728   0.570  10.279  0.5539 -0.8275  0.1362
15606TIP3    H168309   6.817   0.556  10.311  0.0326 -1.2564  1.4205
15606TIP3    H268310   6.715   0.664  10.285  0.1021 -0.9878  2.2374
15607TIP3   OH268311   0.713   1.021  13.624  0.2290  0.3721 -0.1753
15607TIP3    H168312   0.660   0.942  13.632 -2.3889  1.9588 -1.2727
15607TIP3    H268313   0.706   1.063  13.710 -0.8819  0.9499 -0.5513
15608TIP3   OH268314   4.001   1.624   5.350  0.1926  0.8563  0.0904
15608TIP3    H168315   4.053   1.673   5.287  4.3022 -1.6812  1.2367
15608TIP3    H268316   3.992   1.537   5.311 -1.8650  0.7889  0.6571
15609TIP3   OH268317   1.196   0.148  11.427 -0.0884  0.5114 -0.3000
15609TIP3    H168318   1.171   0.238  11.450  0.6308  0.8909 -0.9759
15609TIP3    H268319   1.243   0.157  11.345 -1.0632 -0.6338 -0.9940
15610TIP3   OH268320   1.905   6.469  16.439 -0.0034  0.1357 -0.2409
15610TIP3    H168321   1.964   6.473  16.515  0.4442  0.5587 -0.6088
15610TIP3    H268322   1.956   6.423  16.372 -0.0961  0.4874 -0.5535
15611TIP3   OH268323   6.485   4.919   3.798 -0.0672  0.3309 -0.2178
15611TIP3    H168324   6.432   4.996   3.779 -2.6247 -1.1736  0.6098
15611TIP3    H268325   6.485   4.912   3.894  1.4691  0.2003 -0.2158
15612TIP3   OH268326   1.889   2.379  12.952 -0.3844  0.1350 -0.3316
15612TIP3    H168327   1.941   2.459  12.959 -1.1252  0.4700  1.5825
15612TIP3    H268328   1.940   2.312  12.997 -0.2696 -0.2270 -0.9890
15613TIP3   OH268329   0.177   6.311  15.537 -0.2643 -0.3403 -0.2309
15613TIP3    H168330   0.269   6.286  15.529 -0.0271 -0.3114  2.0612
15613TIP3    H268331   0.167   6.387  15.480  0.8986 -0.9120 -1.2005
15614TIP3   OH268332   2.284   5.682  17.131 -0.0149 -0.1968  0.6163
15614TIP3    H168333   2.303   5.634  17.050  0.8622  0.9631  0.1114
15614TIP3    H268334   2.216   5.745  17.106  0.8731  0.7573  0.5405
15615TIP3   OH268335   4.563   3.181   0.975  0.3582  0.0342 -0.8176
15615TIP3    H168336   4.644   3.190   1.025  0.2077 -1.7408 -0.2125
15615TIP3    H268337   4.495   3.218   1.031  0.3514 -0.9662 -0.1592
15616TIP3   OH268338   0.172   3.851  12.617 -0.5227  0.6390 -0.0439
15616TIP3    H168339   0.161   3.762  12.583 -0.1995  0.9034 -0.8616
15616TIP3    H268340   0.122   3.906  12.557 -2.2679  0.8273  1.5247
15617TIP3   OH268341   4.304   2.339  14.221 -0.1102 -0.6820 -0.0931
15617TIP3    H168342   4.267   2.296  14.299 -0.6664 -0.3302 -0.1647
15617TIP3    H268343   4.252   2.418  14.210  0.4563 -0.3499 -0.3860
15618TIP3   OH268344   3.055   4.015   0.947  0.1145  1.0798 -0.5556
15618TIP3    H168345   2.961   4.024   0.967  0.5618 -0.1470  2.2670
15618TIP3    H268346   3.095   4.094   0.982  0.4774  0.3584  0.6975
15619TIP3   OH268347   0.222   6.782   2.821  0.2029 -0.1242  0.5427
15619TIP3    H168348   0.222   6.700   2.870 -1.4570  0.1988  1.1221
15619TIP3    H268349   0.162   6.766   2.748  0.9937  0.1024 -0.1599
15620TIP3   OH268350   0.224   4.478  17.003  0.1788  0.1833  0.0038
15620TIP3    H168351   0.288   4.473  16.932 -0.4134  0.4569 -0.5592
15620TIP3    H268352   0.144   4.442  16.965 -0.2050  0.5540  0.4591
15621TIP3   OH268353   1.508   3.875  13.913 -0.2827  0.5291  0.3472
15621TIP3    H168354   1.463   3.792  13.930  0.9848  0.2061  2.3249
15621TIP3    H268355   1.487   3.895  13.822 -3.9429  0.1262  1.0275
15622TIP3   OH268356   2.422   2.072   3.158  0.0202 -0.1175  0.3527
15622TIP3    H168357   2.486   2.014   3.116  0.3729 -0.3444  1.1795
15622TIP3    H268358   2.475   2.141   3.197 -0.2063 -0.4189  1.2230
15623TIP3   OH268359   4.463   3.762  11.223 -0.2757 -0.1060 -0.9228
15623TIP3    H168360   4.486   3.669  11.229 -1.3406 -0.3486 -0.3188
15623TIP3    H268361   4.533   3.802  11.172  0.7100 -1.0663 -0.3348
15624TIP3   OH268362   4.666   0.746   5.377 -0.0875 -0.2591 -0.5311
15624TIP3    H168363   4.753   0.713   5.355 -1.0365 -2.9581 -0.4038
15624TIP3    H268364   4.623   0.758   5.292  0.2317  0.6369 -0.5739
15625TIP3   OH268365   4.516   6.758  13.315  0.1147 -0.0027  0.1500
15625TIP3    H168366   4.505   6.698  13.241  0.0836  0.0495  0.1114
15625TIP3    H268367   4.434   6.751  13.364 -0.5385  1.2027 -0.7294
15626TIP3   OH268368   0.193   0.587   2.701  0.3580 -0.0944 -0.6849
15626TIP3    H168369   0.158   0.498   2.705 -0.9764  0.4575  0.2959
15626TIP3    H268370   0.236   0.600   2.786  0.5692  0.1868 -0.8349
15627TIP3   OH268371   4.551   2.072   5.111  1.0033  0.1255 -0.0706
15627TIP3    H168372   4.555   2.156   5.064 -0.6937 -0.0375 -0.5429
15627TIP3    H268373   4.633   2.028   5.088  1.3450  1.1390 -0.8235
15628TIP3   OH268374   3.295   2.031  16.678 -0.0291 -0.6358 -0.0417
15628TIP3    H168375   3.290   2.084  16.757  1.4969 -0.8602  0.2238
15628TIP3    H268376   3.241   2.076  16.614  1.0675  1.1221  0.2471
15629TIP3   OH268377   4.736   5.556   0.059 -0.3094  0.1507  0.6030
15629TIP3    H168378   4.716   5.647   0.036  0.8143  0.6984  1.7020
15629TIP3    H268379   4.664   5.530   0.116 -0.1678  0.6543  1.0154
15630TIP3   OH268380   6.644   1.846  15.139 -0.2319 -0.3818 -0.6784
15630TIP3    H168381   6.727   1.886  15.117 -0.8232  1.7917  0.8344
15630TIP3    H268382   6.664   1.788  15.212  0.3729 -1.7885 -1.9381
15631TIP3   OH268383   6.144   1.111   2.432  0.4895 -0.0178  0.2917
15631TIP3    H168384   6.075   1.046   2.446 -0.2812  1.2011  2.4065
15631TIP3    H268385   6.177   1.130   2.520  1.8418  1.2383 -0.4626
15632TIP3   OH268386   5.809   2.709   0.568  0.1942  0.1096 -0.3302
15632TIP3    H168387   5.797   2.800   0.538 -2.5113  0.7237  2.3804
15632TIP3    H268388   5.899   2.706   0.599  0.0270  2.2096  0.4575
15633TIP3   OH268389   0.999   0.260   1.755  0.5260 -0.6037 -0.2147
15633TIP3    H168390   0.995   0.356   1.761  1.8303 -0.5660  0.1988
15633TIP3    H268391   0.995   0.242   1.661  0.7415 -0.1179 -0.3172
15634TIP3   OH268392   2.251   0.945  14.330  0.0654 -0.6699 -0.3053
15634TIP3    H168393   2.217   0.910  14.248 -3.3024 -0.6426  0.9874
15634TIP3    H268394   2.199   1.024  14.346  0.3553 -0.9063  2.0522
15635TIP3   OH268395   5.207   4.208  15.847  0.7071  0.1777  0.7210
15635TIP3    H168396   5.124   4.227  15.891  0.4627 -3.1166  1.8170
15635TIP3    H268397   5.191   4.227  15.755 -0.5534  1.7211  1.2484
15636TIP3   OH268398   4.901   1.618   3.023 -0.8644 -0.0473  0.2249
15636TIP3    H168399   4.985   1.661   3.038 -0.7892 -0.3457  0.6622
15636TIP3    H268400   4.902   1.596   2.930 -1.1446  1.4107 -0.1343
15637TIP3   OH268401   3.160   6.813  14.795 -0.2887  0.3328  0.6262
15637TIP3    H168402   3.248   6.777  14.798 -1.3311 -2.2665  0.9274
15637TIP3    H268403   3.126   6.804  14.885 -1.5641 -0.5701  0.0781
15638TIP3   OH268404   6.775   0.141   3.499 -0.6318  0.0158  0.3888
15638TIP3    H168405   6.859   0.186   3.508 -1.6077  1.8163  0.9535
15638TIP3    H268406   6.792   0.051   3.527  0.3293  1.2508  4.0423
15639TIP3   OH268407   1.317   4.032  14.082  0.3278 -0.3619 -0.0644
15639TIP3    H168408   1.376   3.960  14.061 -0.9503 -0.9766 -1.6247
15639TIP3    H268409   1.357   4.108  14.040  0.5261 -0.5768 -0.2680
15640TIP3   OH268410   2.713   2.038   1.531  0.1862 -0.3194  0.2839
15640TIP3    H168411   2.762   1.957   1.521  1.4617  0.2443  1.7525
15640TIP3    H268412   2.752   2.098   1.467 -1.1061 -0.9813 -1.1772
15641TIP3   OH268413   3.342   1.269   4.770  0.3554  0.5332  0.0844
15641TIP3    H168414   3.269   1.330   4.777  0.6887  0.8692  0.6602
15641TIP3    H268415   3.380   1.266   4.858 -0.5374 -1.6038  0.4209
15642TIP3   OH268416   2.659   6.101  12.042 -0.1543  0.0071 -0.6274
15642TIP3    H168417   2.611   6.057  12.112  0.4607  0.2509 -0.0399
15642TIP3    H268418   2.708   6.032  11.999  0.7225  0.0764  0.2215
15643TIP3   OH268419   0.184   1.714  14.087  0.0904  0.4218 -0.0221
15643TIP3    H168420   0.200   1.676  14.000 -1.1913  1.3458 -0.6796
15643TIP3    H268421   0.090   1.732  14.088  0.1934  0.9148  1.3630
15644TIP3   OH268422   6.534   6.304   4.843 -0.0227  0.3006 -0.0700
15644TIP3    H168423   6.611   6.282   4.895  0.9435  0.0539 -1.5587
15644TIP3    H268424   6.482   6.362   4.899  0.6028 -0.5893  1.4360
15645TIP3   OH268425   0.352   1.727  13.105  0.0971 -0.0089 -0.1897
15645TIP3    H168426   0.317   1.792  13.044 -0.7394 -1.3796 -1.2281
15645TIP3    H268427   0.351   1.645  13.054  0.7770 -0.8894  1.1981
15646TIP3   OH268428   4.185   2.811   4.947 -0.2858 -0.2730  0.0464
15646TIP3    H168429   4.094   2.834   4.925 -0.0348  1.5400  0.8457
15646TIP3    H268430   4.199   2.850   5.033  0.6500 -2.2006  0.7942
15647TIP3   OH268431   5.523   4.068   5.162  0.3264 -0.0062 -0.1867
15647TIP3    H168432   5.427   4.076   5.158  0.4664  1.3726 -1.9530
15647TIP3    H268433   5.545   4.013   5.087  0.8606 -0.9196  0.6487
15648TIP3   OH268434   4.656   2.380  14.660 -0.0669 -0.3470  0.0910
15648TIP3    H168435   4.715   2.453  14.682 -0.3554 -0.0943  0.0251
15648TIP3    H268436   4.671   2.364  14.567 -0.1037 -0.2797  0.0734
15649TIP3   OH268437   4.820   4.540   3.291  0.1191 -0.0135  0.1081
15649TIP3    H168438   4.805   4.607   3.358  1.4160 -0.5387  0.9470
15649TIP3    H268439   4.856   4.466   3.339  2.3397  0.0812 -1.3427
15650TIP3   OH268440   6.158   2.291   2.644  0.0711  0.0412  0.5111
15650TIP3    H168441   6.141   2.289   2.738  1.2243 -0.2160  0.7125
15650TIP3    H268442   6.073   2.311   2.605 -0.3717  0.3344  1.6177
15651TIP3   OH268443   6.433   2.310   4.868 -0.0642 -0.2073  0.1243
15651TIP3    H168444   6.515   2.359   4.858 -0.0645 -0.0484  0.8618
15651TIP3    H268445   6.450   2.249   4.940 -0.1940 -1.0254 -0.5357
15652TIP3   OH268446   0.798   0.981  16.708  0.0021  0.0092  0.4367
15652TIP3    H168447   0.706   0.974  16.734 -0.1676 -0.6331 -0.2891
15652TIP3    H268448   0.795   1.021  16.621  0.3348 -0.9098 -0.0108
15653TIP3   OH268449   1.434   1.230  13.775  0.1300  0.2733 -0.1904
15653TIP3    H168450   1.515   1.180  13.787 -0.2338 -0.6889 -1.5755
15653TIP3    H268451   1.462   1.307  13.725  0.2386  0.0754 -0.4384
15654TIP3   OH268452   5.173   1.437  11.862 -0.3892 -0.0036 -0.1173
15654TIP3    H168453   5.220   1.514  11.832  1.9220 -0.0126  3.1974
15654TIP3    H268454   5.211   1.365  11.813  2.0510  0.2086  1.3677
15655TIP3   OH268455   2.432   2.241  17.134  0.5636 -0.7210  0.3814
15655TIP3    H168456   2.404   2.158  17.096  2.9228 -1.7032  0.6804
15655TIP3    H268457   2.354   2.275  17.178 -0.5796 -2.5007 -0.2028
15656TIP3   OH268458   3.857   0.750   2.830 -0.6174  0.1346 -0.1344
15656TIP3    H168459   3.892   0.735   2.917 -0.1727 -0.9838 -0.4913
15656TIP3    H268460   3.920   0.809   2.788  1.4085 -2.5442 -1.0736
15657TIP3   OH268461   1.223   5.710  15.383  0.5658  0.4586 -0.1664
15657TIP3    H168462   1.300   5.676  15.428 -0.3593 -1.4387  0.0607
15657TIP3    H268463   1.161   5.728  15.453 -0.6229 -1.8283 -0.5861
15658TIP3   OH268464   6.461   2.282  13.371 -0.6034  0.0254  0.2915
15658TIP3    H168465   6.515   2.219  13.323  1.2498  0.4628  1.7092
15658TIP3    H268466   6.525   2.334  13.420 -2.0265  3.4591 -1.3605
15659TIP3   OH268467   6.409   3.163  14.611 -0.0059 -0.2683  0.4202
15659TIP3    H168468   6.335   3.201  14.658  0.7286  1.4942  0.1809
15659TIP3    H268469   6.447   3.236  14.562  0.9341 -1.4868 -0.7151
15660TIP3   OH268470   1.671   1.107  11.847 -0.1247 -0.4904 -0.4220
15660TIP3    H168471   1.716   1.148  11.773 -0.7244  1.2251  0.1485
15660TIP3    H268472   1.616   1.039  11.807  1.7119 -1.5315 -1.2721
15661TIP3   OH268473   4.584   1.017  16.236 -0.5364  0.3712  0.2361
15661TIP3    H168474   4.639   1.079  16.284 -2.5529  0.8238  2.0154
15661TIP3    H268475   4.503   1.066  16.218 -1.5027 -1.2103  0.2054
15662TIP3   OH268476   4.832   3.148   1.393 -0.1051 -0.8861 -0.1808
15662TIP3    H168477   4.788   3.192   1.465  0.5759  0.1342 -0.3869
15662TIP3    H268478   4.912   3.112   1.431 -2.2800 -4.9733  0.8037
15663TIP3   OH268479   3.022   2.859  14.343  0.6758 -0.0981  0.1962
15663TIP3    H168480   3.015   2.836  14.436 -1.9961 -1.5341 -0.3053
15663TIP3    H268481   2.941   2.906  14.324  2.2940  2.3819 -0.8697
15664TIP3   OH268482   5.473   6.755  17.291  0.0810  0.2074  0.2572
15664TIP3    H168483   5.509   6.843  17.279 -0.1452  0.3231  0.4278
15664TIP3    H268484   5.539   6.697  17.252  0.0596  0.4771 -0.1857
15665TIP3   OH268485   0.878   3.827   0.529  0.3620 -0.3876  0.0939
15665TIP3    H168486   0.824   3.853   0.454  0.0165  0.8142  0.7469
15665TIP3    H268487   0.910   3.739   0.506 -0.8025 -0.5735 -0.8704
15666TIP3   OH268488   0.203   6.246  10.869  0.7210 -0.1959 -0.0970
15666TIP3    H168489   0.298   6.256  10.866  0.4896  1.7972 -1.8011
15666TIP3    H268490   0.178   6.223  10.780 -0.4066 -0.6118  0.3168
15667TIP3   OH268491   1.523   3.124  10.735  0.7207  0.4263  0.4761
15667TIP3    H168492   1.555   3.041  10.769  2.5910  0.6131 -0.7470
15667TIP3    H268493   1.431   3.107  10.712  0.6303 -0.8348  1.6939
15668TIP3   OH268494   5.089   5.567  11.055 -0.1901 -0.2886 -0.0977
15668TIP3    H168495   5.116   5.546  10.966  0.1918  0.3058 -0.1250
15668TIP3    H268496   5.145   5.640  11.081 -1.0997  0.3189  0.1975
15669TIP3   OH268497   5.334   1.452   3.394  0.6101 -0.3323 -0.3269
15669TIP3    H168498   5.376   1.538   3.389  1.3713 -0.6907 -0.2605
15669TIP3    H268499   5.347   1.414   3.308  1.3462 -0.8594  0.0042
15670TIP3   OH268500   4.452   2.140  15.672 -0.8685  0.1939 -0.2689
15670TIP3    H168501   4.545   2.161  15.671 -0.8498  0.1955  0.8208
15670TIP3    H268502   4.409   2.220  15.702 -1.1793  0.0588 -0.3456
15671TIP3   OH268503   6.677   0.002  13.948 -0.1487 -0.7291 -0.0684
15671TIP3    H168504   6.644   0.076  13.898  1.1303  2.0154  3.0002
15671TIP3    H268505   6.636   0.010  14.034  1.3001 -2.6340  0.8442
15672TIP3   OH268506   0.571   1.982   1.744  0.2492 -0.7177  0.0068
15672TIP3    H168507   0.611   2.034   1.813 -3.5452  0.6573  1.2861
15672TIP3    H268508   0.615   2.011   1.664  3.0652 -0.6745  1.5076
15673TIP3   OH268509   3.015   5.039  15.221  0.0464 -0.2319 -0.2591
15673TIP3    H168510   2.989   4.948  15.231  0.9085 -0.6280 -1.5871
15673TIP3    H268511   2.932   5.087  15.219 -0.4437 -1.0764 -0.3990
15674TIP3   OH268512   1.293   3.592  14.890  0.1772  0.0508  0.1007
15674TIP3    H168513   1.274   3.659  14.824 -0.0066 -0.6022 -0.5060
15674TIP3    H268514   1.382   3.563  14.871 -0.0751 -0.5296 -0.2027
15675TIP3   OH268515   5.219   3.977   6.458 -0.0036  0.4387  0.5591
15675TIP3    H168516   5.295   3.921   6.477 -0.6928 -0.4161  0.8173
15675TIP3    H268517   5.257   4.057   6.422  0.8961 -1.0254 -1.8724
15676TIP3   OH268518   2.283   6.803  15.218  0.1628  0.5474 -0.4465
15676TIP3    H168519   2.245   6.855  15.148 -0.1966  0.1639 -0.5375
15676TIP3    H268520   2.366   6.771  15.182  2.1812  4.0363  0.8895
15677TIP3   OH268521   1.425   6.386  14.446 -0.3173 -0.2885  0.5414
15677TIP3    H168522   1.424   6.328  14.370  2.4433  0.6241 -0.2517
15677TIP3    H268523   1.407   6.473  14.410  0.7033  0.1011  0.9486
15678TIP3   OH268524   6.769   5.867   3.372  0.2928 -0.2359  0.6411
15678TIP3    H168525   6.803   5.777   3.368  0.9184 -0.0026  0.6509
15678TIP3    H268526   6.795   5.906   3.288 -1.4205 -0.5675 -0.0699
15679TIP3   OH268527   1.030   3.247   6.661  0.7714  0.3441  0.3208
15679TIP3    H168528   0.952   3.239   6.606  1.1013 -4.9628  0.3882
15679TIP3    H268529   1.102   3.263   6.599  0.3680 -0.0748 -0.2538
15680TIP3   OH268530   4.264   3.004  10.643  0.2590 -0.4307 -0.1528
15680TIP3    H168531   4.318   2.931  10.612 -0.2394 -1.0920  0.5208
15680TIP3    H268532   4.176   2.982  10.616 -0.0837 -0.6902  1.1294
15681TIP3   OH268533   5.711   6.511  16.389 -0.1692  0.0450  0.2636
15681TIP3    H168534   5.679   6.600  16.407  0.5400  0.6295 -1.2487
15681TIP3    H268535   5.788   6.524  16.334 -0.1752 -1.5109 -0.1405
15682TIP3   OH268536   3.527   3.855  15.629  0.1364 -0.4500 -0.2086
15682TIP3    H168537   3.497   3.946  15.623 -1.3177 -1.0535 -2.4713
15682TIP3    H268538   3.560   3.847  15.719  2.5754  2.9814 -0.6950
15683TIP3   OH268539   2.582   1.143  12.271 -0.3566  0.3374  0.2532
15683TIP3    H168540   2.527   1.215  12.302  0.7039  0.3074  2.3452
15683TIP3    H268541   2.631   1.180  12.198 -2.0080  0.8186 -0.6337
15684TIP3   OH268542   3.611   1.450  11.579  0.1663 -0.1865 -0.1061
15684TIP3    H168543   3.685   1.393  11.559  0.3809  0.1644 -0.3165
15684TIP3    H268544   3.540   1.418  11.524 -0.1396 -1.1698  0.8490
15685TIP3   OH268545   0.112   3.218   3.329 -0.6333  0.3134 -0.2701
15685TIP3    H168546   0.173   3.272   3.279 -0.5272 -0.1499 -0.6454
15685TIP3    H268547   0.065   3.280   3.385 -0.0060  0.7051 -0.1720
15686TIP3   OH268548   5.630   1.722  10.937 -0.6642  0.3497  0.4087
15686TIP3    H168549   5.700   1.663  10.966 -1.0770 -0.1991  0.2807
15686TIP3    H268550   5.637   1.723  10.842  0.4948  1.9169  0.4715
15687TIP3   OH268551   0.215   1.355   5.429 -0.0730 -0.0385  0.6543
15687TIP3    H168552   0.163   1.324   5.503  3.4971 -2.8655  2.1139
15687TIP3    H268553   0.265   1.429   5.463  2.1996 -1.8624  1.4036
15688TIP3   OH268554   1.203   2.360   5.765  0.0744 -0.7411  0.2074
15688TIP3    H168555   1.263   2.330   5.832 -0.4888 -2.6599 -0.1240
15688TIP3    H268556   1.116   2.347   5.802 -0.2725 -2.5967 -1.1582
15689TIP3   OH268557   2.471   2.190   2.880  0.1489 -0.1064  0.5285
15689TIP3    H168558   2.481   2.127   2.952  1.6141  0.4043  0.7902
15689TIP3    H268559   2.529   2.157   2.812 -1.9017 -1.0742 -0.7894
15690TIP3   OH268560   5.594   1.100  14.940 -0.2707  0.0600  0.0400
15690TIP3    H168561   5.545   1.026  14.975 -0.7183  0.7916  0.9792
15690TIP3    H268562   5.686   1.074  14.948 -0.4048 -0.1739  0.8900
15691TIP3   OH268563   2.857   3.621   6.472  0.0258 -0.0807  0.1708
15691TIP3    H168564   2.817   3.539   6.499  0.3551 -0.1391  0.4779
15691TIP3    H268565   2.891   3.604   6.384 -0.9416  0.0757 -0.2467
15692TIP3   OH268566   5.685   2.820  11.284 -0.0557  0.0177  0.3889
15692TIP3    H168567   5.771   2.821  11.327  0.1679 -1.0929  0.0061
15692TIP3    H268568   5.702   2.857  11.197  0.2454 -1.0487 -0.0218
15693TIP3   OH268569   5.511   3.624   1.187  0.0532 -0.3529 -0.3269
15693TIP3    H168570   5.495   3.583   1.103  3.9426 -0.5108 -1.0934
15693TIP3    H268571   5.501   3.718   1.171  1.2435 -0.3534 -1.0993
15694TIP3   OH268572   4.852   0.266   3.498 -0.2964 -0.5496  0.0121
15694TIP3    H168573   4.814   0.339   3.449 -1.9145 -0.7886  0.8760
15694TIP3    H268574   4.945   0.288   3.507 -0.4769  0.6450 -1.0755
15695TIP3   OH268575   3.447   5.194   2.905 -0.2542  0.4435  0.5421
15695TIP3    H168576   3.535   5.165   2.880 -1.0135 -0.4850 -1.1537
15695TIP3    H268577   3.439   5.281   2.866 -1.8653 -1.4628 -3.7257
15696TIP3   OH268578   2.612   6.764  11.755 -0.4644  0.4557 -0.3882
15696TIP3    H168579   2.611   6.740  11.663 -0.8713  3.0488 -1.0851
15696TIP3    H268580   2.664   6.696  11.797 -0.0800 -0.6151 -2.5546
15697TIP3   OH268581   0.510   3.910  13.754  0.5257 -0.1210  0.6947
15697TIP3    H168582   0.587   3.940  13.802 -0.1618  0.8987  1.1862
15697TIP3    H268583   0.444   3.977  13.771 -0.3695 -0.8203  0.0186
15698TIP3   OH268584   3.067   4.993   2.918 -0.6546 -0.2897 -0.3587
15698TIP3    H168585   3.149   4.986   2.968 -0.4946 -0.0859 -0.5943
15698TIP3    H268586   2.998   4.973   2.982 -0.3914 -0.9680 -0.2789
15699TIP3   OH268587   4.068   6.529  16.886  0.6706  0.1860  0.0763
15699TIP3    H168588   3.982   6.510  16.849  0.8556  1.2154 -0.9158
15699TIP3    H268589   4.106   6.594  16.826  2.2820 -0.5361  0.2982
15700TIP3   OH268590   1.066   5.293   1.669 -0.5692  0.9175 -0.1646
15700TIP3    H168591   0.975   5.306   1.640 -0.7946 -0.7953 -0.2763
15700TIP3    H268592   1.119   5.342   1.606 -1.2194 -0.6616 -1.9850
15701TIP3   OH268593   6.099   1.093  13.505 -0.1679  0.1706  0.5305
15701TIP3    H168594   6.021   1.042  13.483 -0.1761  0.4870 -0.1781
15701TIP3    H268595   6.070   1.184  13.505  0.0230  0.2360  1.0384
15702TIP3   OH268596   6.728   2.946   5.270  0.2694 -0.3502  0.2232
15702TIP3    H168597   6.749   3.039   5.271 -0.9005 -0.0864  0.5456
15702TIP3    H268598   6.719   2.924   5.177 -0.3538  0.0663  0.1818
15703TIP3   OH268599   2.580   5.217   3.776  0.6692 -0.6271  0.0146
15703TIP3    H168600   2.556   5.299   3.820  1.7125 -0.7484  0.8287
15703TIP3    H268601   2.631   5.245   3.700 -0.2326 -0.4610 -0.5331
15704TIP3   OH268602   5.965   4.505  16.880  0.0002 -0.6444 -0.4597
15704TIP3    H168603   6.000   4.430  16.928 -0.9437 -1.0199 -0.3297
15704TIP3    H268604   5.934   4.565  16.948 -0.0627 -0.5401 -0.5821
15705TIP3   OH268605   2.826   0.531  14.270 -0.2355 -0.3389  0.5325
15705TIP3    H168606   2.917   0.505  14.256  0.1195  1.3813 -0.4688
15705TIP3    H268607   2.830   0.592  14.344 -0.6675 -0.8642  0.9871
15706TIP3   OH268608   1.245   4.052  15.525 -0.1195 -0.9022  0.6106
15706TIP3    H168609   1.274   3.964  15.551  0.6512 -0.7777  0.1530
15706TIP3    H268610   1.322   4.107  15.536 -1.0163  0.0427  2.4227
15707TIP3   OH268611   3.668   3.646   4.539 -0.2713 -0.2448 -0.0754
15707TIP3    H168612   3.739   3.664   4.600 -0.1632 -0.8767 -0.0162
15707TIP3    H268613   3.620   3.574   4.578 -1.1202  0.3650  0.0253
15708TIP3   OH268614   1.114   4.387  11.334 -0.8494 -0.0854  0.5862
15708TIP3    H168615   1.097   4.391  11.429  0.7179 -2.5526  1.0138
15708TIP3    H268616   1.185   4.324  11.325 -0.3006  0.8632 -2.1840
15709TIP3   OH268617   2.304   1.197   2.069  0.2127 -0.9722 -0.0597
15709TIP3    H168618   2.368   1.171   2.135 -0.5391 -1.9341  0.3004
15709TIP3    H268619   2.348   1.182   1.985  0.6506 -1.0929  0.1926
15710TIP3   OH268620   1.027   0.227  17.263  0.2573  0.2956 -0.1566
15710TIP3    H168621   1.003   0.147  17.309  1.7032  0.2973  0.6480
15710TIP3    H268622   1.007   0.298  17.325  0.8714  0.3949 -0.0577
15711TIP3   OH268623   2.545   4.158  12.559  0.7990  0.5820 -0.1869
15711TIP3    H168624   2.538   4.239  12.508 -0.3701 -0.2620 -1.3855
15711TIP3    H268625   2.576   4.093  12.497  4.1879  0.6053  1.3475
15712TIP3   OH268626   2.557   3.507   3.905  0.4077  0.4550 -0.6779
15712TIP3    H168627   2.527   3.420   3.880 -1.6438  0.7937  0.5120
15712TIP3    H268628   2.650   3.496   3.925  0.2272 -1.3911 -0.8202
15713TIP3   OH268629   5.808   6.781  14.250 -0.2079 -0.0914 -0.0026
15713TIP3    H168630   5.729   6.727  14.240  0.7047 -1.2202 -1.4364
15713TIP3    H268631   5.808   6.838  14.173 -0.7094  1.3848  1.0679
15714TIP3   OH268632   6.329   5.792  15.332  0.5114  0.1050 -0.2018
15714TIP3    H168633   6.236   5.770  15.340  0.7062 -0.1079  2.0436
15714TIP3    H268634   6.372   5.708  15.318  0.5244 -0.0655  0.7592
15715TIP3   OH268635   0.404   4.606   3.194 -0.3539  0.1155  0.0601
15715TIP3    H168636   0.363   4.680   3.238 -0.9842  0.3036 -0.8264
15715TIP3    H268637   0.359   4.529   3.227 -0.9047  0.2643 -0.3404
15716TIP3   OH268638   2.404   0.709  13.823  0.4349 -0.1557 -0.1961
15716TIP3    H168639   2.384   0.803  13.827  0.7504 -0.1050  0.2130
15716TIP3    H268640   2.487   0.700  13.870  1.8937 -0.2347 -2.6635
15717TIP3   OH268641   2.737   1.122   4.406 -0.4934 -0.4201  0.1505
15717TIP3    H168642   2.782   1.128   4.491 -2.5812  0.2285  1.2492
15717TIP3    H268643   2.704   1.210   4.390 -2.1390 -1.0862 -0.1979
15718TIP3   OH268644   5.950   3.426   2.825  0.0119  0.1491  0.3810
15718TIP3    H168645   5.861   3.455   2.842 -0.3549 -0.1741 -0.9341
15718TIP3    H268646   5.994   3.503   2.788  0.5034  0.5363  1.7523
15719TIP3   OH268647   6.529   2.618  17.275 -0.4574 -0.6708  0.4167
15719TIP3    H168648   6.533   2.546  17.213  0.0317  0.5875 -1.0382
15719TIP3    H268649   6.499   2.693  17.224  1.0720  0.6718  1.4055
15720TIP3   OH268650   2.345   3.861  15.027  0.4236 -0.2012 -0.5463
15720TIP3    H168651   2.349   3.949  14.990  0.0452 -0.6290 -1.6407
15720TIP3    H268652   2.267   3.821  14.988 -0.7538 -0.2433  1.7561
15721TIP3   OH268653   1.902   2.145   6.356  0.1651  0.0705  0.3638
15721TIP3    H168654   1.948   2.210   6.409  0.6704  0.7400 -0.8592
15721TIP3    H268655   1.939   2.155   6.268  0.1153 -1.7489  0.1098
15722TIP3   OH268656   4.879   1.630   6.029  0.5563  0.3847  0.8170
15722TIP3    H168657   4.967   1.593   6.026  1.7887  3.0842  1.2121
15722TIP3    H268658   4.894   1.725   6.038 -2.3878  1.1903 -1.9638
15723TIP3   OH268659   5.630   5.702   1.013  0.2148 -0.0846  0.3426
15723TIP3    H168660   5.551   5.754   1.004  0.4540  0.1490 -0.4510
15723TIP3    H268661   5.607   5.616   0.976  0.1077 -0.2417  0.7775
15724TIP3   OH268662   3.661   0.570   6.244  0.6169  0.0690  0.0752
15724TIP3    H168663   3.745   0.570   6.291  0.3737  1.0011  0.5008
15724TIP3    H268664   3.616   0.649   6.273 -1.2519 -1.4051  1.3497
15725TIP3   OH268665   5.842   5.042  16.144  0.2430 -0.0794 -0.1397
15725TIP3    H168666   5.880   5.077  16.064 -0.1654 -1.8350 -1.1286
15725TIP3    H268667   5.917   5.006  16.192  0.2971 -0.2939 -0.3867
15726TIP3   OH268668   3.391   1.519   2.428  0.0152 -0.8155 -0.0626
15726TIP3    H168669   3.330   1.563   2.369 -0.4388 -0.8024  0.4081
15726TIP3    H268670   3.348   1.436   2.449 -0.5637 -0.1425  1.4902
15727TIP3   OH268671   3.905   4.441  12.847  0.1312 -0.3069  0.3401
15727TIP3    H168672   3.863   4.370  12.895 -1.4082  0.6891  0.5002
15727TIP3    H268673   3.851   4.452  12.768  0.8298  0.1411 -0.0858
15728TIP3   OH268674   1.777   5.771  11.874 -0.3494 -0.1045  0.1339
15728TIP3    H168675   1.760   5.746  11.784  1.4164  0.6044 -0.4190
15728TIP3    H268676   1.851   5.717  11.901  0.2849  0.9590  0.5557
15729TIP3   OH268677   4.489   2.925   5.978 -0.1766 -0.4181 -0.0624
15729TIP3    H168678   4.419   2.901   5.917  0.3196 -1.5077 -0.2088
15729TIP3    H268679   4.518   3.011   5.947 -2.0686  0.4723  0.5557
15730TIP3   OH268680   5.460   4.354   5.287  0.3574 -0.2633  0.3032
15730TIP3    H168681   5.469   4.444   5.254  0.6044 -0.4546 -0.1573
15730TIP3    H268682   5.549   4.319   5.285  0.1273 -0.8152 -0.3624
15731TIP3   OH268683   0.170   5.586  15.717  0.1602  0.0703 -0.4791
15731TIP3    H168684   0.158   5.491  15.716  0.8403 -0.0400  1.1347
15731TIP3    H268685   0.260   5.599  15.686  0.2421  0.1661 -0.1974
15732TIP3   OH268686   0.348   3.023   4.739 -0.0903 -0.2668 -0.4393
15732TIP3    H168687   0.341   3.027   4.643  2.0050  0.9034 -0.5785
15732TIP3    H268688   0.399   3.100   4.762  0.8019 -1.4077  1.4905
15733TIP3   OH268689   4.269   3.271  16.384 -0.1669  0.4161  0.2307
15733TIP3    H168690   4.321   3.203  16.340  0.2070  2.3863 -2.5761
15733TIP3    H268691   4.327   3.305  16.452  1.4439  1.0634 -1.4059
15734TIP3   OH268692   1.983   3.882   3.887 -0.3019 -0.2034 -0.4628
15734TIP3    H168693   1.977   3.793   3.921  0.6220  0.3967  1.3044
15734TIP3    H268694   2.076   3.897   3.873 -0.4021  0.6732 -0.2302
15735TIP3   OH268695   2.339   4.898   0.347  0.0041  0.2354  0.0578
15735TIP3    H168696   2.420   4.911   0.298 -1.1573 -1.4127 -2.4395
15735TIP3    H268697   2.283   4.972   0.322 -1.6111 -2.0259 -3.4540
15736TIP3   OH268698   6.775   0.385  12.550 -0.1938  0.0035 -0.6497
15736TIP3    H168699   6.714   0.346  12.613  0.1509  0.8174  0.2016
15736TIP3    H268700   6.861   0.356  12.580 -0.1237 -0.8442 -1.6374
15737TIP3   OH268701   3.773   3.234  16.700 -0.2316 -0.1617 -0.4092
15737TIP3    H168702   3.719   3.291  16.644 -1.8432 -0.2791  0.9678
15737TIP3    H268703   3.818   3.177  16.638 -2.0309 -0.3479 -1.6201
15738TIP3   OH268704   5.369   6.023  15.546  0.3345 -0.0012 -0.2480
15738TIP3    H168705   5.324   5.963  15.605  2.0505  0.3178  1.4534
15738TIP3    H268706   5.319   6.105  15.552  0.7396  0.1634  1.1402
15739TIP3   OH268707   4.994   0.132   3.760 -0.2030  0.9599 -0.0235
15739TIP3    H168708   5.048   0.112   3.837  1.1366  1.0551 -0.9294
15739TIP3    H268709   5.056   0.163   3.694 -1.1035 -0.7577 -1.7313
15740TIP3   OH268710   1.538   5.041   3.264 -0.1303  0.0997 -0.1117
15740TIP3    H168711   1.507   5.130   3.253  1.7125  0.7566 -0.1278
15740TIP3    H268712   1.529   5.001   3.178 -2.7173 -0.3458  0.3122
15741TIP3   OH268713   5.949   6.201  15.457  0.7941  0.1522  0.4530
15741TIP3    H168714   5.894   6.277  15.440 -0.3999 -0.3100  2.1249
15741TIP3    H268715   5.907   6.130  15.408  1.5470  0.4108 -0.5889
15742TIP3   OH268716   5.482   3.442   4.033 -0.3922 -0.5251  0.0231
15742TIP3    H168717   5.436   3.389   3.968 -0.1767 -1.2300  0.4483
15742TIP3    H268718   5.415   3.501   4.067 -0.6845 -0.6887 -0.2704
15743TIP3   OH268719   1.088   4.149   4.503 -0.5171  0.7520 -0.4202
15743TIP3    H168720   1.168   4.167   4.553 -0.2767  0.8052 -0.8300
15743TIP3    H268721   1.018   4.159   4.568 -0.2301  1.1657 -0.1692
15744TIP3   OH268722   6.602   2.530   4.921 -0.2711  0.6049 -0.4458
15744TIP3    H168723   6.685   2.576   4.909 -0.5140  1.1929  0.0840
15744TIP3    H268724   6.549   2.556   4.845 -0.0153  0.3249 -0.7207
15745TIP3   OH268725   4.159   2.302  15.968  0.1385 -0.1157 -0.5307
15745TIP3    H168726   4.183   2.210  15.974  2.2928  0.1820 -3.3077
15745TIP3    H268727   4.239   2.349  15.994 -0.2143  0.9405 -1.3055
15746TIP3   OH268728   2.078   5.628   6.534  0.0556  0.4404 -0.5011
15746TIP3    H168729   2.023   5.684   6.587 -0.7701  0.6195 -1.5239
15746TIP3    H268730   2.052   5.539   6.557 -0.9533  0.5331 -1.2849
15747TIP3   OH268731   0.325   2.376   0.165  0.0210  0.3433 -0.7746
15747TIP3    H168732   0.372   2.313   0.110  1.4473  1.1011 -0.4626
15747TIP3    H268733   0.233   2.349   0.159  0.5991 -1.8335 -0.5650
15748TIP3   OH268734   4.374   3.380   3.938  0.3928  0.3776  0.0631
15748TIP3    H168735   4.331   3.333   3.866 -0.6713  1.3137  0.0754
15748TIP3    H268736   4.414   3.456   3.896  1.3230 -0.0303  0.1916
15749TIP3   OH268737   3.138   2.839  15.766 -0.1088  0.2073  0.5502
15749TIP3    H168738   3.106   2.831  15.855 -0.1748 -0.2226  0.4872
15749TIP3    H268739   3.091   2.773  15.717 -0.7701  1.0722  0.0045
15750TIP3   OH268740   0.133   5.095   4.611  0.1255 -0.5460 -0.0364
15750TIP3    H168741   0.207   5.142   4.650 -0.0532 -0.3384  0.0497
15750TIP3    H268742   0.095   5.046   4.684 -0.0766 -0.3257  0.0088
15751TIP3   OH268743   5.253   3.536   5.400  0.0602  0.0745  0.5928
15751TIP3    H168744   5.235   3.613   5.454 -0.8553  1.0114 -1.0187
15751TIP3    H268745   5.345   3.544   5.376 -0.4516  1.5534 -0.9327
15752TIP3   OH268746   2.110   3.923   2.612  0.5329 -0.8895  0.7160
15752TIP3    H168747   2.047   3.967   2.670 -2.9225 -3.6461 -0.7372
15752TIP3    H268748   2.096   3.964   2.526  1.9736 -0.3678  0.7134
15753TIP3   OH268749   4.925   0.829  14.916  0.5897  0.2562 -0.2701
15753TIP3    H168750   4.851   0.888  14.930  0.4661  0.3303 -1.1956
15753TIP3    H268751   5.001   0.879  14.944  0.4613  0.7744 -0.8471
15754TIP3   OH268752   1.889   4.400  15.761 -0.6200  0.2145  0.1333
15754TIP3    H168753   1.894   4.463  15.834  0.7142 -0.2879  0.5027
15754TIP3    H268754   1.981   4.385  15.737 -1.0201 -0.1969 -1.1652
15755TIP3   OH268755   3.131   1.328  11.168 -0.2128 -0.0283 -0.0383
15755TIP3    H168756   3.224   1.331  11.146  0.1331  0.5045  1.4663
15755TIP3    H268757   3.122   1.387  11.243 -2.0471  1.2219 -1.2124
15756TIP3   OH268758   4.847   3.931   1.649  0.7585 -0.2347 -0.3389
15756TIP3    H168759   4.894   3.938   1.732  2.2290  0.0626 -1.1890
15756TIP3    H268760   4.853   4.019   1.611  0.4292 -0.4682 -0.9395
15757TIP3   OH268761   6.068   3.262  16.025 -0.0596  0.5018  0.0784
15757TIP3    H168762   6.066   3.234  16.117 -2.2205  1.5986  0.4162
15757TIP3    H268763   5.994   3.218  15.985 -0.2185  1.4532 -0.6905
15758TIP3   OH268764   4.679   5.975   0.028  0.9933 -1.0726 -0.3752
15758TIP3    H168765   4.636   6.034  -0.034  0.1741 -0.2284  0.9898
15758TIP3    H268766   4.607   5.928   0.070  1.5425 -1.5259  0.0638
15759TIP3   OH268767   4.331   3.731  14.563 -0.0316  0.5301  0.1670
15759TIP3    H168768   4.356   3.656  14.617  0.6164 -0.5358 -1.5749
15759TIP3    H268769   4.256   3.701  14.513 -0.3076  1.3397  0.0840
15760TIP3   OH268770   4.091   1.298   1.613  0.0720  0.1206 -0.7285
15760TIP3    H168771   4.138   1.380   1.598  1.8535 -0.5044  1.1563
15760TIP3    H268772   4.146   1.250   1.675 -1.7617 -1.7939 -0.5265
15761TIP3   OH268773   3.437   4.846   3.907 -0.1664 -0.3416  0.5561
15761TIP3    H168774   3.429   4.877   3.817  1.2581  1.2834  0.9766
15761TIP3    H268775   3.513   4.789   3.906 -0.7214 -1.0918  0.5382
15762TIP3   OH268776   3.816   2.989  11.302  0.5094 -0.0323 -0.3911
15762TIP3    H168777   3.792   3.059  11.242  0.2595 -0.6327 -1.0041
15762TIP3    H268778   3.877   2.935  11.252 -1.6876 -1.9967 -1.0584
15763TIP3   OH268779   3.437   5.273   4.126  0.4675 -0.1035 -0.7036
15763TIP3    H168780   3.394   5.188   4.119  0.5804 -0.2188 -0.0558
15763TIP3    H268781   3.528   5.255   4.102  0.5722 -0.2462 -0.2238
15764TIP3   OH268782   4.529   1.165   2.013 -0.5307  0.3938  0.7768
15764TIP3    H168783   4.589   1.233   1.981 -1.5342  0.6060 -0.6833
15764TIP3    H268784   4.586   1.103   2.058  0.5915  1.4296  0.8184
15765TIP3   OH268785   0.704   5.690   2.847 -0.4759 -0.0875  0.1582
15765TIP3    H168786   0.657   5.637   2.910 -1.6396 -0.2502 -0.8266
15765TIP3    H268787   0.796   5.681   2.871 -0.8444 -0.8129  1.3064
15766TIP3   OH268788   4.272   6.681   3.910 -0.0147  0.1085  0.3291
15766TIP3    H168789   4.225   6.611   3.953  0.3604  1.2162  2.6345
15766TIP3    H268790   4.344   6.702   3.969  1.9062  0.1598 -1.9196
15767TIP3   OH268791   1.788   5.884  13.419  0.1717  0.3746  0.4477
15767TIP3    H168792   1.819   5.953  13.478  1.7253  1.0388 -1.1220
15767TIP3    H268793   1.843   5.808  13.439 -1.2078 -0.3021  1.8224
15768TIP3   OH268794   4.551   0.186   1.950  0.1207 -0.4246 -0.2658
15768TIP3    H168795   4.508   0.226   1.875  0.9084  1.1361  0.0820
15768TIP3    H268796   4.609   0.120   1.913  2.5436  2.1435 -1.3281
15769TIP3   OH268797   1.536   3.816   1.165  0.2062 -0.3214  0.0585
15769TIP3    H168798   1.589   3.863   1.101  1.5246 -0.6722  0.8749
15769TIP3    H268799   1.557   3.724   1.150 -1.3806 -0.5870 -0.6680
15770TIP3   OH268800   0.260   2.832   4.925  0.5959 -0.1483  0.3107
15770TIP3    H168801   0.348   2.794   4.926  0.3835 -0.7087 -0.7697
15770TIP3    H268802   0.267   2.906   4.864  0.3695 -0.0819  0.3653
15771TIP3   OH268803   6.567   5.770  14.692 -0.4282  0.0384 -0.0668
15771TIP3    H168804   6.486   5.821  14.691 -0.6626 -0.2776  1.4252
15771TIP3    H268805   6.625   5.818  14.751  0.6294  0.4835 -1.4503
15772TIP3   OH268806   5.450   2.968   3.711  0.0150 -0.1676  0.0493
15772TIP3    H168807   5.466   2.973   3.805  0.0557 -1.9008  0.1472
15772TIP3    H268808   5.390   3.040   3.693  1.4296  1.3284  1.0784
15773TIP3   OH268809   4.126   1.337  15.172  0.3300  0.1789 -0.6134
15773TIP3    H168810   4.125   1.354  15.078  1.8584  2.1224 -0.3270
15773TIP3    H268811   4.170   1.414  15.210  1.5370 -1.4758  1.4787
15774TIP3   OH268812   1.140   0.169  15.941 -0.1516  0.1923 -0.8185
15774TIP3    H168813   1.126   0.239  16.005 -0.3773 -0.4477 -0.1749
15774TIP3    H268814   1.235   0.155  15.941  0.0867  1.5516 -2.0711
15775TIP3   OH268815   2.629   3.886  11.287 -0.0515 -0.0166  0.2807
15775TIP3    H168816   2.668   3.842  11.211 -0.3529 -1.0923  0.7384
15775TIP3    H268817   2.653   3.978  11.276  0.8126 -0.3289 -0.5616
15776TIP3   OH268818   1.222   6.118  16.426 -0.7201  0.0735 -0.7727
15776TIP3    H168819   1.257   6.059  16.359 -1.9264 -0.9413 -0.5172
15776TIP3    H268820   1.207   6.200  16.380  0.2034 -0.0458 -1.3134
15777TIP3   OH268821   3.298   0.311  14.900  0.1262 -0.2120  0.1037
15777TIP3    H168822   3.313   0.263  14.981  0.3156 -1.5145 -0.6859
15777TIP3    H268823   3.221   0.270  14.862  0.0571  0.3707 -0.3920
15778TIP3   OH268824   4.172   0.228  13.316 -0.2823  0.6740 -0.3113
15778TIP3    H168825   4.108   0.237  13.246 -1.1974  1.0644  0.5547
15778TIP3    H268826   4.137   0.282  13.388  0.6605  0.3294  0.4262
15779TIP3   OH268827   4.354   3.437   1.684 -0.4317  0.4961 -0.0966
15779TIP3    H168828   4.420   3.506   1.686  0.9901 -0.8512  0.6988
15779TIP3    H268829   4.271   3.482   1.700  0.7968  1.6210  3.6160
15780TIP3   OH268830   1.126   6.114  16.676  0.8557 -0.1255 -0.2026
15780TIP3    H168831   1.123   6.022  16.704 -1.3018 -0.2494 -0.7915
15780TIP3    H268832   1.172   6.112  16.593  1.0338 -0.6443 -0.0933
15781TIP3   OH268833   5.445   2.069  11.057 -0.6624  0.3039 -0.3558
15781TIP3    H168834   5.480   2.010  11.124 -0.3551 -0.1712 -0.9290
15781TIP3    H268835   5.383   2.124  11.105  0.0274  0.4058  0.4424
15782TIP3   OH268836   3.741   4.460   3.843  0.7056 -0.0619  0.0435
15782TIP3    H168837   3.693   4.457   3.760  0.9840 -2.9281 -0.0304
15782TIP3    H268838   3.722   4.548   3.877 -2.8704 -0.3178 -1.0143
15783TIP3   OH268839   1.693   0.042   4.687 -0.2513  0.3738 -0.2742
15783TIP3    H168840   1.767   0.083   4.644  0.8481 -0.6994  0.5649
15783TIP3    H268841   1.706   0.060   4.780 -1.3134  0.6005 -0.1618
15784TIP3   OH268842   5.353   1.055   4.985  0.1264 -0.1105  0.8709
15784TIP3    H168843   5.357   1.049   4.889  0.2461 -2.6591  1.0181
15784TIP3    H268844   5.269   1.016   5.008  0.7543 -0.8643  1.9180
15785TIP3   OH268845   4.533   0.709   0.602  0.4101  0.2684  0.4926
15785TIP3    H168846   4.479   0.785   0.622  0.1306 -0.1824  1.4741
15785TIP3    H268847   4.474   0.634   0.612  0.3916 -0.0003 -1.5928
15786TIP3   OH268848   6.681   3.140   3.641 -0.4576 -0.1086  0.0328
15786TIP3    H168849   6.727   3.210   3.688  0.3863 -0.1153 -0.7796
15786TIP3    H268850   6.598   3.179   3.615  0.2516  0.7897 -0.9270
15787TIP3   OH268851   2.896   1.690  13.207  0.4732 -0.2189  0.1270
15787TIP3    H168852   2.979   1.647  13.227  0.3844 -0.1396  0.6751
15787TIP3    H268853   2.830   1.634  13.247  0.2336 -0.4456 -0.5694
15788TIP3   OH268854   5.703   4.393  13.949 -0.8399  0.8679 -0.0148
15788TIP3    H168855   5.668   4.394  13.860 -2.7686 -1.3811  0.6709
15788TIP3    H268856   5.743   4.479  13.960 -0.0540  0.9764 -3.2440
15789TIP3   OH268857   3.461   2.820   5.362  0.3883 -0.1863 -0.3120
15789TIP3    H168858   3.406   2.889   5.400  0.5866  0.7797 -1.7742
15789TIP3    H268859   3.408   2.740   5.371  0.1736  0.1252  1.4142
15790TIP3   OH268860   0.205   3.317  13.496 -0.2362  0.2809  0.1494
15790TIP3    H168861   0.128   3.363  13.463 -0.7935  0.0664  1.1383
15790TIP3    H268862   0.214   3.241  13.439 -0.6492  0.4063 -0.0821
15791TIP3   OH268863   6.474   6.787  11.184 -0.0853 -0.1118 -0.0452
15791TIP3    H168864   6.567   6.798  11.204  0.1355  0.1669 -1.1551
15791TIP3    H268865   6.473   6.733  11.105 -0.8566  0.0563 -0.1584
15792TIP3   OH268866   0.430   1.805   1.076  0.0532 -0.1242 -0.0422
15792TIP3    H168867   0.461   1.862   1.006 -1.4573  0.8483  0.0388
15792TIP3    H268868   0.353   1.761   1.039  0.2250 -0.8477  0.4557
15793TIP3   OH268869   4.547   4.026  17.281  0.3223 -0.1144 -0.0877
15793TIP3    H168870   4.470   3.971  17.266  0.0400  0.4765 -0.8447
15793TIP3    H268871   4.617   3.963  17.301 -0.8168 -0.5515  2.8378
15794TIP3   OH268872   4.233   3.060  17.194 -0.2511 -0.4053  0.1418
15794TIP3    H168873   4.153   3.066  17.246  0.3716 -1.1334  1.2013
15794TIP3    H268874   4.262   3.151  17.184 -0.1260 -0.2854  1.4786
15795TIP3   OH268875   3.057   0.200   1.810  0.2365  0.6560 -0.3078
15795TIP3    H168876   3.003   0.199   1.731 -0.1382  2.5238 -0.0919
15795TIP3    H268877   3.065   0.292   1.833  1.1769  0.2036  1.2756
15796TIP3   OH268878   1.921   3.565   4.031  0.0471  0.4021 -0.5691
15796TIP3    H168879   1.830   3.537   4.028  0.1433  0.2149 -3.5201
15796TIP3    H268880   1.971   3.492   3.993  1.6505 -0.1786  2.5057
15797TIP3   OH268881   2.983   4.431   4.986  0.2111 -0.0984 -0.8865
15797TIP3    H168882   3.064   4.482   4.988 -0.7765  1.4550  0.7652
15797TIP3    H268883   2.927   4.479   4.926  0.6957 -1.4948 -2.4833
15798TIP3   OH268884   5.861   5.262   0.073 -1.1435  0.2683  0.2249
15798TIP3    H168885   5.940   5.219   0.107 -1.5058 -0.7485 -0.1762
15798TIP3    H268886   5.816   5.295   0.150 -0.1637  1.1332  0.4331
15799TIP3   OH268887   5.443   3.198  17.225  0.3539  0.9514 -0.0558
15799TIP3    H168888   5.509   3.161  17.283 -1.6191 -1.7202  0.5615
15799TIP3    H268889   5.400   3.265  17.278  1.0473  1.1240  0.2943
15800TIP3   OH268890   0.570   2.989   2.132 -0.0014  0.4978  0.5562
15800TIP3    H168891   0.612   2.906   2.107  2.1158  1.6284  0.2805
15800TIP3    H268892   0.622   3.022   2.205 -1.5349  1.0366  1.4310
15801TIP3   OH268893   0.961   6.177  13.858  0.0431  0.0205  0.4589
15801TIP3    H168894   0.999   6.223  13.783  2.4611 -2.0151  0.3414
15801TIP3    H268895   0.878   6.221  13.875 -0.6293  0.4454 -3.5269
15802TIP3   OH268896   5.577   4.826  17.197 -1.1861  0.1641 -0.0473
15802TIP3    H168897   5.595   4.904  17.145 -2.3809  2.1684  2.4497
15802TIP3    H268898   5.484   4.810  17.185 -0.9030 -1.0882 -0.7561
15803TIP3   OH268899   6.347   1.548  10.763  0.0038 -0.1454 -0.1109
15803TIP3    H168900   6.252   1.553  10.756 -0.0252 -0.4311  0.0674
15803TIP3    H268901   6.364   1.464  10.806  0.3451 -0.1918 -0.3304
15804TIP3   OH268902   4.197   1.660   5.629 -0.1348  0.4385  0.1478
15804TIP3    H168903   4.217   1.683   5.538  4.0654 -0.4611  0.7608
15804TIP3    H268904   4.266   1.701   5.680 -0.9674 -1.2281  2.6968
15805TIP3   OH268905   3.178   2.693  10.561  0.1517  0.3707  0.0367
15805TIP3    H168906   3.209   2.737  10.640 -0.0887 -0.8442  0.8254
15805TIP3    H268907   3.257   2.658  10.519  0.0320 -1.4285  1.2531
15806TIP3   OH268908   0.978   6.660  15.926  0.6860 -0.0526  0.3507
15806TIP3    H168909   0.964   6.726  15.858  0.3476 -0.1491  0.3250
15806TIP3    H268910   1.030   6.592  15.884  0.0344 -0.3597  0.0394
15807TIP3   OH268911   4.009   0.788   4.280  0.2077  0.3584  0.4558
15807TIP3    H168912   4.096   0.777   4.241  0.2226 -0.3304  0.6872
15807TIP3    H268913   4.014   0.871   4.327  0.5379  0.6387 -0.0650
15808TIP3   OH268914   3.522   4.580   2.450  0.6082 -0.6103  0.4026
15808TIP3    H168915   3.583   4.521   2.405  1.6886  1.8762 -1.5167
15808TIP3    H268916   3.499   4.646   2.384 -0.9872  0.8236  2.3196
15809TIP3   OH268917   1.410   5.621  16.441 -0.0049  0.4040  0.2754
15809TIP3    H168918   1.496   5.582  16.459  0.2391  0.4464 -0.7350
15809TIP3    H268919   1.348   5.549  16.450  0.2438  0.1717  0.1363
15810TIP3   OH268920   1.331   4.357  14.446 -0.2662  0.3651 -0.1964
15810TIP3    H168921   1.263   4.394  14.390  1.8174  1.2677 -2.2020
15810TIP3    H268922   1.351   4.427  14.508 -1.2767  0.0295  0.5222
15811TIP3   OH268923   3.417   1.574   5.450 -0.6322  0.2070 -0.2615
15811TIP3    H168924   3.448   1.645   5.394  0.5415  1.2055  1.5877
15811TIP3    H268925   3.340   1.610   5.494 -0.1409  0.2917  0.5428
15812TIP3   OH268926   6.141   1.967  13.682 -0.6407  0.2054 -0.2276
15812TIP3    H168927   6.169   2.039  13.625 -0.0135  0.4465  0.3788
15812TIP3    H268928   6.212   1.904  13.677 -0.1194  0.6631  1.0456
15813TIP3   OH268929   1.011   2.822   5.690 -0.1387  0.1225  0.4946
15813TIP3    H168930   1.092   2.854   5.649 -0.3978 -1.3447 -1.2236
15813TIP3    H268931   1.040   2.754   5.750 -0.0178  0.3760  0.7294
15814TIP3   OH268932   0.826   0.100  14.165 -0.0406 -0.1124  0.5215
15814TIP3    H168933   0.733   0.124  14.166 -0.3395 -1.2490  2.5173
15814TIP3    H268934   0.826   0.004  14.166  1.1091 -0.1499  3.9405
15815TIP3   OH268935   0.372   6.816  16.669 -0.3300 -0.0396  0.0673
15815TIP3    H168936   0.368   6.836  16.576  2.0088  0.5800  0.0769
15815TIP3    H268937   0.292   6.856  16.705 -0.4316  1.1336 -1.4077
15816TIP3   OH268938   3.543   2.713  16.188  0.4143 -0.1761  0.2046
15816TIP3    H168939   3.461   2.745  16.225  0.2995  0.9227 -0.9562
15816TIP3    H268940   3.545   2.620  16.209 -0.7914 -0.0617  0.8352
15817TIP3   OH268941   0.069   0.888   2.082 -0.5751 -0.1299  0.3258
15817TIP3    H168942   0.010   0.826   2.038 -3.1573  0.9237  2.1581
15817TIP3    H268943   0.013   0.933   2.145  2.5574 -0.0599  3.1602
15818TIP3   OH268944   2.059   1.121   4.283  0.5261 -0.0315 -0.0216
15818TIP3    H168945   2.141   1.076   4.300  1.3783  0.9668 -1.4218
15818TIP3    H268946   2.032   1.091   4.196 -0.1102  0.3564  0.0339
15819TIP3   OH268947   5.564   2.865   0.738 -0.1767 -0.0567 -0.4864
15819TIP3    H168948   5.512   2.799   0.694 -0.6252 -0.3138  0.4182
15819TIP3    H268949   5.628   2.893   0.673 -0.2654 -1.0623 -1.0021
15820TIP3   OH268950   2.203   4.887   5.044 -0.1172 -0.0540 -0.1119
15820TIP3    H168951   2.292   4.881   5.080  0.3372  0.9045 -1.0204
15820TIP3    H268952   2.203   4.826   4.971 -0.4149 -0.5363  0.2909
15821TIP3   OH268953   5.034   4.098   2.174 -0.2529  0.4960 -0.1052
15821TIP3    H168954   5.115   4.118   2.127 -1.1944 -0.2508 -2.0615
15821TIP3    H268955   5.020   4.174   2.231  1.9527  0.5193  0.4603
15822TIP3   OH268956   2.694   4.104   4.937  0.2692 -0.7625 -0.1281
15822TIP3    H168957   2.628   4.053   4.890  0.7179 -1.0014 -0.5060
15822TIP3    H268958   2.754   4.133   4.869 -0.3740  0.8887 -0.0135
15823TIP3   OH268959   0.185   0.890   0.537  0.4263  0.3086  0.1436
15823TIP3    H168960   0.152   0.893   0.447  2.0230  2.3001 -0.4060
15823TIP3    H268961   0.230   0.973   0.549  0.1138  0.1291  2.8610
15824TIP3   OH268962   5.140   2.527  12.287  0.2622  0.1476  0.1813
15824TIP3    H168963   5.144   2.498  12.379  0.2640 -2.6481 -0.6443
15824TIP3    H268964   5.224   2.500  12.250 -0.6245 -0.7686 -1.1825
15825TIP3   OH268965   2.979   1.655   0.486  0.4733  0.6252  0.4219
15825TIP3    H168966   3.041   1.645   0.559  1.4708  1.9449 -0.2245
15825TIP3    H268967   3.034   1.679   0.412 -0.8745  2.2919 -0.0614
15826TIP3   OH268968   5.844   4.420  12.663 -0.3851  0.6814 -0.0903
15826TIP3    H168969   5.753   4.427  12.692 -0.0380  0.9850  0.9155
15826TIP3    H268970   5.896   4.416  12.743  0.5395  1.0610 -0.6581
15827TIP3   OH268971   1.074   3.264  16.947  0.2361 -0.6390 -0.0162
15827TIP3    H168972   0.997   3.208  16.937 -0.5421  0.3819  0.1802
15827TIP3    H268973   1.094   3.261  17.041 -0.0352 -0.3001  0.0558
15828TIP3   OH268974   6.774   0.903  15.479 -0.0570 -0.3655  0.4428
15828TIP3    H168975   6.841   0.949  15.429 -0.4612  0.1567  0.3827
15828TIP3    H268976   6.816   0.882  15.562  0.0251  0.3790  0.5899
15829TIP3   OH268977   4.990   3.158   4.288 -0.0550  0.4517 -0.5414
15829TIP3    H168978   4.920   3.177   4.350  1.5909  2.1101  0.8545
15829TIP3    H268979   4.983   3.226   4.221 -0.8663 -0.4358 -1.3813
15830TIP3   OH268980   5.517   6.338   2.139  0.6378  0.2721  0.1294
15830TIP3    H168981   5.516   6.317   2.232  0.4285  0.3083  0.1354
15830TIP3    H268982   5.487   6.258   2.096 -0.8491  0.7779  0.1954
15831TIP3   OH268983   5.183   3.533  13.095 -0.6210  0.2042 -0.1237
15831TIP3    H168984   5.205   3.518  13.187  1.4917  1.3751 -0.3919
15831TIP3    H268985   5.090   3.555  13.096 -1.1587 -1.9404  1.4546
15832TIP3   OH268986   4.572   4.491  14.170 -0.4248 -0.7110 -0.2420
15832TIP3    H168987   4.576   4.401  14.139  0.3786 -0.4484 -0.9310
15832TIP3    H268988   4.547   4.542  14.093 -1.6975 -0.4367  0.3404
15833TIP3   OH268989   4.749   2.205  12.708  0.0025  0.2930  0.4684
15833TIP3    H168990   4.816   2.270  12.685  1.8714 -1.6864  0.2309
15833TIP3    H268991   4.717   2.173  12.623 -0.9493  0.8912  0.5873
15834TIP3   OH268992   3.695   6.082  12.669 -0.0305  0.5030 -0.2033
15834TIP3    H168993   3.742   6.002  12.644  0.2045  1.0047 -1.3764
15834TIP3    H268994   3.755   6.153  12.647 -0.1968  1.0121  0.9291
15835TIP3   OH268995   1.477   3.653   4.191  0.0329 -0.0016  0.0963
15835TIP3    H168996   1.407   3.659   4.125 -0.5275  1.3233  0.7773
15835TIP3    H268997   1.495   3.744   4.214  1.4144 -0.3821  0.5412
15836TIP3   OH268998   5.468   0.023  12.233  0.1137  0.3050  0.1230
15836TIP3    H168999   5.526   0.076  12.289 -0.6828  1.1387  0.1663
15836TIP3    H269000   5.383   0.028  12.276 -0.0062 -0.8871  0.0255
15837TIP3   OH269001   1.418   1.626  13.964 -0.3346 -0.4224 -0.2570
15837TIP3    H169002   1.323   1.622  13.950 -0.3412 -0.6696 -0.1593
15837TIP3    H269003   1.443   1.715  13.941 -0.6436 -0.2583  0.0358
15838TIP3   OH269004   5.590   3.786  12.136  0.1007  0.3826 -0.3480
15838TIP3    H169005   5.601   3.833  12.218 -0.6691 -0.8950  0.5099
15838TIP3    H269006   5.498   3.799  12.113  0.8171  2.5066 -2.1371
15839TIP3   OH269007   0.189   0.868  16.383 -0.3784  0.1068 -0.1158
15839TIP3    H169008   0.223   0.951  16.347  0.7133 -1.0515 -1.8703
15839TIP3    H269009   0.228   0.862  16.470  0.9525  0.6300 -0.6523
15840TIP3   OH269010   0.738   4.253  11.393 -0.0258  0.1860 -0.1456
15840TIP3    H169011   0.662   4.245  11.336 -1.3451 -0.5002  1.6452
15840TIP3    H269012   0.717   4.327  11.450  1.2705  0.8726 -0.5336
15841TIP3   OH269013   5.906   0.899   3.258  0.8685 -0.5729 -0.6266
15841TIP3    H169014   5.933   0.985   3.289  1.1386 -0.3281 -1.5297
15841TIP3    H269015   5.945   0.838   3.320 -2.4424  0.0962  2.2829
15842TIP3   OH269016   4.102   6.482   2.196 -0.0944 -0.1064  0.1638
15842TIP3    H169017   4.173   6.530   2.154  1.0583  0.5327  2.7058
15842TIP3    H269018   4.022   6.520   2.160  0.8134  2.7498  0.9957
15843TIP3   OH269019   4.630   3.307  16.609  0.8164  1.1304  0.1673
15843TIP3    H169020   4.601   3.240  16.672  2.2314  0.9623  0.6571
15843TIP3    H269021   4.653   3.257  16.531  1.8794  1.0415  0.5346
15844TIP3   OH269022   1.732   4.351  13.444 -0.2082 -0.3775  0.0380
15844TIP3    H169023   1.650   4.390  13.415 -0.0928 -1.1784 -1.4294
15844TIP3    H269024   1.794   4.372  13.374 -0.0268 -2.7237 -0.5612
15845TIP3   OH269025   6.054   4.672  12.708 -0.0943 -0.3282 -0.3637
15845TIP3    H169026   6.045   4.632  12.621  3.3630 -0.9561 -0.4906
15845TIP3    H269027   6.006   4.613  12.766  1.0395 -2.1512 -1.2379
15846TIP3   OH269028   0.040   1.677  14.882 -0.6033 -0.1416  0.1973
15846TIP3    H169029   0.103   1.619  14.838  0.2814  0.3824  0.7464
15846TIP3    H269030   0.009   1.736  14.814 -1.4966 -1.2517 -0.3649
15847TIP3   OH269031   2.174   3.318   4.692 -0.6008 -0.1686 -0.1015
15847TIP3    H169032   2.250   3.263   4.710  0.6928  1.6508  0.1959
15847TIP3    H269033   2.170   3.325   4.597  0.6545  1.1055 -0.0780
15848TIP3   OH269034   6.469   6.114  15.834 -0.2318  0.6106  0.1156
15848TIP3    H169035   6.377   6.141  15.834 -0.1327  0.9362  1.0590
15848TIP3    H269036   6.509   6.163  15.905 -0.0703 -2.1556  1.9859
15849TIP3   OH269037   6.407   4.710   1.858  0.0825 -0.1077  0.3586
15849TIP3    H169038   6.435   4.744   1.773 -0.6544  0.1981  0.2278
15849TIP3    H269039   6.487   4.677   1.899  0.6088  0.6921 -0.0170
15850TIP3   OH269040   1.854   5.531  13.686 -0.1414  0.0692 -0.2568
15850TIP3    H169041   1.851   5.465  13.755  2.3042 -0.3473 -0.5032
15850TIP3    H269042   1.791   5.598  13.714  1.3607  0.3081  2.7996
15851TIP3   OH269043   1.301   0.340  17.173 -0.0714 -0.2117 -0.4431
15851TIP3    H169044   1.340   0.403  17.233  0.6160 -1.0015 -0.0572
15851TIP3    H269045   1.225   0.306  17.220 -0.1034 -0.1079 -0.4187
15852TIP3   OH269046   2.501   3.275  16.013  0.5023  0.2120 -0.2210
15852TIP3    H169047   2.585   3.321  16.002  0.5853 -0.2280 -1.5381
15852TIP3    H269048   2.435   3.345  16.011  0.7747  0.4754 -0.0978
15853TIP3   OH269049   0.842   2.138   0.919  0.4701  0.2491  0.2399
15853TIP3    H169050   0.866   2.117   1.009  0.7763 -0.9223 -0.1012
15853TIP3    H269051   0.920   2.181   0.882  0.2079  1.0756  0.6415
15854TIP3   OH269052   3.271   2.809   1.708 -0.0180  0.7544 -0.4214
15854TIP3    H169053   3.306   2.794   1.796  1.2266  1.2977 -0.8079
15854TIP3    H269054   3.176   2.799   1.717  0.3293 -2.0554  0.3858
15855TIP3   OH269055   2.453   0.231   2.095  0.2619  0.5431  0.0370
15855TIP3    H169056   2.414   0.287   2.027  1.3171 -1.1373 -1.9830
15855TIP3    H269057   2.539   0.270   2.112  0.7157 -0.0806 -0.8628
15856TIP3   OH269058   5.544   4.296   4.287  0.0488  0.4250  0.6467
15856TIP3    H169059   5.575   4.232   4.352  0.7310 -1.1320 -1.1616
15856TIP3    H269060   5.615   4.302   4.223 -1.2375  0.7499 -0.7814
15857TIP3   OH269061   0.745   6.702  15.566 -0.4486 -0.1212 -0.2877
15857TIP3    H169062   0.688   6.661  15.500  1.0991  1.3665 -2.6408
15857TIP3    H269063   0.822   6.645  15.569  0.0113  0.4689 -0.6902
15858TIP3   OH269064   2.615   1.494   0.747  0.2970 -0.1245  0.3932
15858TIP3    H169065   2.530   1.536   0.740  0.2619 -0.1066  0.8814
15858TIP3    H269066   2.613   1.423   0.682  0.4173  0.7159 -0.5320
15859TIP3   OH269067   5.123   6.662   5.215 -0.0828 -0.2470 -0.1220
15859TIP3    H169068   5.055   6.656   5.149 -1.5144  0.3318  1.2716
15859TIP3    H269069   5.101   6.594   5.279 -0.6769  1.4296  1.5021
15860TIP3   OH269070   0.232   0.802   1.864  0.2789 -0.3738  0.6045
15860TIP3    H169071   0.160   0.833   1.918 -0.7717 -0.4256 -0.7560
15860TIP3    H269072   0.230   0.859   1.787  1.4308 -0.6463  0.3592
15861TIP3   OH269073   5.790   2.887   0.947  0.0832  0.5735 -0.4113
15861TIP3    H169074   5.778   2.945   0.872  0.2982  1.4591  0.2325
15861TIP3    H269075   5.759   2.938   1.022  1.8040  0.4876  0.3774
15862TIP3   OH269076   5.359   5.514   6.018  0.2002  0.6556  0.4282
15862TIP3    H169077   5.300   5.515   5.943 -0.6695 -0.3639  1.0951
15862TIP3    H269078   5.302   5.512   6.095  1.0846  1.0600  1.1190
15863TIP3   OH269079   6.559   0.921  12.805  0.3058  0.3755 -0.1125
15863TIP3    H169080   6.481   0.934  12.751 -0.0669  0.0651  0.3498
15863TIP3    H269081   6.557   0.993  12.868 -0.9974 -1.0697  1.5397
15864TIP3   OH269082   3.034   0.415   0.199  0.3652 -0.2021 -0.2045
15864TIP3    H169083   3.008   0.375   0.116  1.4198 -1.3058 -0.0253
15864TIP3    H269084   2.952   0.444   0.239 -0.0821  0.9486 -1.9289
15865TIP3   OH269085   4.023   5.862   3.452 -0.0327  0.1864 -0.3007
15865TIP3    H169086   3.933   5.846   3.425 -0.4844  2.6408 -0.3413
15865TIP3    H269087   4.076   5.813   3.389 -1.3413 -2.1559  0.3730
15866TIP3   OH269088   3.686   5.071   3.444  0.3040 -0.1249 -0.3892
15866TIP3    H169089   3.768   5.053   3.398  0.3176 -1.5720  0.1715
15866TIP3    H269090   3.687   5.010   3.518  0.4981  2.4555  1.8016
15867TIP3   OH269091   5.916   6.482   0.206  0.0528  0.1227  0.0920
15867TIP3    H169092   5.858   6.558   0.203 -0.3915 -0.1999  0.4199
15867TIP3    H269093   5.885   6.425   0.135 -0.3732 -0.2937  0.6100
15868TIP3   OH269094   5.067   0.781   2.722 -0.1142  0.2718 -0.3206
15868TIP3    H169095   5.131   0.711   2.738 -0.4436  0.3337  1.4067
15868TIP3    H269096   5.109   0.837   2.657  1.1581 -0.2729  0.0014
15869TIP3   OH269097   4.937   1.530  15.288  0.2601  0.2778 -0.7218
15869TIP3    H169098   5.016   1.477  15.274  0.7351  0.5325  0.9190
15869TIP3    H269099   4.903   1.501  15.373 -0.3488  1.5193 -0.5297
15870TIP3   OH269100   2.731   3.893  11.004 -0.0069 -0.4137 -0.1939
15870TIP3    H169101   2.709   3.941  10.924 -0.6757  0.5219  0.5355
15870TIP3    H269102   2.762   3.808  10.974  2.0451  0.7719 -1.5785
15871TIP3   OH269103   1.528   0.945  10.666 -0.6503  0.5000 -0.6554
15871TIP3    H169104   1.503   0.858  10.635 -1.1229  0.3819  0.0444
15871TIP3    H269105   1.461   0.968  10.731  0.4509  0.6247  0.4747
15872TIP3   OH269106   6.640   5.745  14.415  0.3506 -0.0897  0.3253
15872TIP3    H169107   6.606   5.723  14.502  1.1416  2.6148  1.3896
15872TIP3    H269108   6.570   5.722  14.355 -0.7809 -0.6718  1.8260
15873TIP3   OH269109   1.033   1.125  12.325 -0.3151 -0.2821 -0.2557
15873TIP3    H169110   0.991   1.105  12.408 -1.3026 -0.5679 -0.8151
15873TIP3    H269111   1.127   1.122  12.344 -0.5129  2.5437  1.5185
15874TIP3   OH269112   2.235   1.240  14.583 -0.1804 -0.3536  0.0906
15874TIP3    H169113   2.155   1.201  14.549  0.4731 -1.8334  0.2176
15874TIP3    H269114   2.206   1.294  14.657 -1.1290 -0.3652 -0.2739
15875TIP3   OH269115   1.827   0.826   0.484 -0.0864 -0.1660  0.4573
15875TIP3    H169116   1.810   0.904   0.538  0.8265 -0.3071  0.9530
15875TIP3    H269117   1.742   0.806   0.445 -0.6572  0.2159  1.4819
15876TIP3   OH269118   4.373   3.845  12.021  0.0072 -0.3956  0.5183
15876TIP3    H169119   4.363   3.877  12.111  1.7125  1.0594  0.2120
15876TIP3    H269120   4.464   3.864  11.998 -0.2737 -1.1717 -1.3647
15877TIP3   OH269121   3.087   4.526  13.624 -0.2810  0.6462 -0.0077
15877TIP3    H169122   3.065   4.433  13.630  0.5652  0.5183  1.0908
15877TIP3    H269123   3.167   4.528  13.570 -0.3808  0.7548 -0.1528
15878TIP3   OH269124   3.985   1.864   6.303 -0.1490  0.4472  0.5218
15878TIP3    H169125   4.078   1.875   6.324  0.5189  0.6103 -2.3781
15878TIP3    H269126   3.976   1.771   6.281 -0.3545  0.7315 -0.6356
15879TIP3   OH269127   5.303   4.123  16.717  0.2263  0.0433 -0.2475
15879TIP3    H169128   5.290   4.029  16.723 -0.9413  0.1946 -0.3205
15879TIP3    H269129   5.371   4.134  16.650  1.5210 -0.8191  0.9013
15880TIP3   OH269130   4.673   1.035  14.323 -0.1575 -0.1286  0.5949
15880TIP3    H169131   4.701   0.962  14.379 -0.3212  2.1123  3.6909
15880TIP3    H269132   4.743   1.099  14.329 -1.3025  1.1972  0.1984
15881TIP3   OH269133   0.053   2.583  17.060  0.1489 -0.4674  0.0131
15881TIP3    H169134   0.068   2.620  16.973 -0.8748 -0.5583 -0.2150
15881TIP3    H269135  -0.016   2.518  17.046  0.1807 -0.6867  0.8454
15882TIP3   OH269136   3.925   1.564  13.711 -0.1684 -0.5702 -0.0544
15882TIP3    H169137   3.878   1.497  13.661 -1.4930 -0.0415  0.4827
15882TIP3    H269138   3.928   1.640  13.653  0.8736 -0.9149 -0.4595
15883TIP3   OH269139   3.121   6.580  13.799  0.3793  0.2367 -0.0099
15883TIP3    H169140   3.157   6.629  13.725 -0.1714  0.3547 -0.2080
15883TIP3    H269141   3.080   6.503  13.759  0.3401  0.1489  0.2014
15884TIP3   OH269142   1.606   5.142   0.588 -0.3743 -0.1144 -0.1982
15884TIP3    H169143   1.600   5.057   0.546  0.8932 -0.2307 -0.1682
15884TIP3    H269144   1.560   5.202   0.529 -0.6449 -0.6846 -0.5662
15885TIP3   OH269145   6.607   2.402   5.172  0.9795  0.0106  0.1023
15885TIP3    H169146   6.619   2.449   5.089  0.9750 -0.7198 -0.3179
15885TIP3    H269147   6.560   2.322   5.147  1.1017 -0.2765  0.7900
15886TIP3   OH269148   4.524   0.806  14.894  0.0493  0.5125  0.2112
15886TIP3    H169149   4.541   0.899  14.912 -0.7129  0.4836  1.1330
15886TIP3    H269150   4.501   0.804  14.801  0.7509  1.1479  0.0190
15887TIP3   OH269151   1.445   6.744   1.448 -0.0898 -0.5246 -0.4552
15887TIP3    H169152   1.351   6.761   1.453  0.1096  1.2810 -2.1250
15887TIP3    H269153   1.463   6.740   1.354  1.5780 -0.3482 -0.1532
15888TIP3   OH269154   1.624   3.630   6.041  0.5877  0.1016  0.5247
15888TIP3    H169155   1.708   3.584   6.036  1.7066  2.1134  0.1829
15888TIP3    H269156   1.630   3.684   6.119  0.5468  1.9942 -0.7454
15889TIP3   OH269157   0.414   5.307   1.857  0.1440 -0.1472 -0.5871
15889TIP3    H169158   0.474   5.233   1.868 -0.8898 -1.3486 -2.7295
15889TIP3    H269159   0.470   5.384   1.868  1.3524 -1.2177  1.0647
15890TIP3   OH269160   4.756   3.106   4.014  0.1261 -0.0373  0.2818
15890TIP3    H169161   4.683   3.057   3.977  0.2767 -0.8781  1.0755
15890TIP3    H269162   4.813   3.039   4.052  1.3257  0.5916 -0.3443
15891TIP3   OH269163   0.237   6.298  13.996 -0.0268 -0.1773 -0.1494
15891TIP3    H169164   0.295   6.304  14.072  0.8518  0.6817 -0.8827
15891TIP3    H269165   0.201   6.386  13.986  0.0464 -0.2260 -0.8630
15892TIP3   OH269166   4.126   4.027  16.909  0.0309  0.6973  0.1096
15892TIP3    H169167   4.122   3.932  16.926  1.8554  0.4565 -0.6496
15892TIP3    H269168   4.058   4.043  16.845  0.2686 -0.2543 -0.3953
15893TIP3   OH269169   0.762   6.087   5.346 -0.2846 -0.1958  0.1342
15893TIP3    H169170   0.826   6.159   5.337  0.7105 -0.8800  1.5716
15893TIP3    H269171   0.737   6.067   5.256 -0.1021  1.5412 -0.3294
15894TIP3   OH269172   1.012   1.739  12.588 -0.1016  0.0736 -0.1097
15894TIP3    H169173   1.029   1.656  12.632 -0.5926  0.4155  0.7341
15894TIP3    H269174   1.037   1.723  12.497  0.5953 -0.7407  0.2170
15895TIP3   OH269175   1.048   3.387  13.211  0.1039  0.6620 -0.0834
15895TIP3    H169176   1.082   3.472  13.241 -0.9481  1.0556  0.0066
15895TIP3    H269177   1.073   3.327  13.281 -1.5297  1.4087  1.1648
15896TIP3   OH269178   4.210   4.198   0.498 -0.6636 -0.9656 -0.6817
15896TIP3    H169179   4.170   4.114   0.522 -0.8821 -0.2745  1.4666
15896TIP3    H269180   4.295   4.198   0.542 -1.1482  0.4146  0.2895
15897TIP3   OH269181   2.300   3.170  17.037  0.2421  0.0324 -0.4834
15897TIP3    H169182   2.281   3.173  17.131  1.3621  0.0406 -0.2356
15897TIP3    H269183   2.291   3.077  17.014  1.4253 -0.2079 -0.0283
15898TIP3   OH269184   4.954   2.869   3.981  0.3134  0.0436  0.6268
15898TIP3    H169185   5.035   2.826   3.955 -0.3062 -1.2841  0.8082
15898TIP3    H269186   4.903   2.799   4.022 -0.5100  1.0915  1.4128
15899TIP3   OH269187   1.526   3.690  14.725 -0.1850  0.1770  0.1165
15899TIP3    H169188   1.521   3.783  14.747  0.9218 -0.2312  2.1993
15899TIP3    H269189   1.618   3.674  14.706 -0.5069 -0.3318 -1.0769
15900TIP3   OH269190   0.718   1.117   2.160  0.6031 -0.3935  0.6959
15900TIP3    H169191   0.693   1.201   2.121  1.1655 -0.7140 -0.3919
15900TIP3    H269192   0.655   1.103   2.230  1.1954  1.4721  1.6343
15901TIP3   OH269193   3.997   5.719  15.716  0.0560 -0.0888 -0.1616
15901TIP3    H169194   3.998   5.696  15.809  0.1576 -1.0465 -0.3878
15901TIP3    H269195   3.956   5.643  15.674  3.3072 -1.3104 -1.3006
15902TIP3   OH269196   2.410   4.500   4.719 -0.9020 -0.2125 -0.4340
15902TIP3    H169197   2.388   4.580   4.766  1.3953 -1.5476  3.1032
15902TIP3    H269198   2.505   4.502   4.712 -0.9461 -1.8152 -1.8876
15903TIP3   OH269199   1.800   4.806   4.112 -0.4150 -0.2740 -0.3832
15903TIP3    H169200   1.836   4.804   4.200 -1.6635  2.0458  0.2404
15903TIP3    H269201   1.752   4.724   4.103 -1.3660  0.0338  1.5921
15904TIP3   OH269202   5.246   2.214   4.345 -0.5909 -0.3459 -0.1262
15904TIP3    H169203   5.254   2.228   4.251 -0.3766 -0.5324 -0.1362
15904TIP3    H269204   5.309   2.145   4.365 -1.0853 -0.7447  0.0540
15905TIP3   OH269205   4.062   6.018   1.677  0.7421 -0.1222 -0.2744
15905TIP3    H169206   4.064   6.113   1.668  0.7067 -0.1136 -0.1949
15905TIP3    H269207   4.081   6.001   1.769  1.8948 -0.2435 -0.5344
15906TIP3   OH269208   0.234   6.352   1.076 -0.2256  0.1504 -0.0543
15906TIP3    H169209   0.187   6.284   1.123 -1.8431  1.5882  0.4394
15906TIP3    H269210   0.325   6.340   1.102 -0.8358 -0.2532  1.9655
15907TIP3   OH269211   0.278   3.364   3.099 -0.0870 -0.1040  0.1649
15907TIP3    H169212   0.364   3.403   3.116 -0.0923  0.1498 -0.3840
15907TIP3    H269213   0.280   3.339   3.007 -0.8466  0.5269 -0.0315
15908TIP3   OH269214   6.074   5.676  14.386  0.4092  0.9157  0.0840
15908TIP3    H169215   6.087   5.589  14.349 -0.1959  1.6020 -1.7854
15908TIP3    H269216   5.983   5.676  14.417  1.5178 -0.3816  3.6799
15909TIP3   OH269217   3.295   6.235  10.336 -0.2310 -0.0724 -0.1283
15909TIP3    H169218   3.322   6.286  10.259 -0.5155 -0.6959 -0.6513
15909TIP3    H269219   3.218   6.187  10.306  1.3931 -2.6035 -0.3663
15910TIP3   OH269220   6.589   3.544  11.829 -0.4877 -0.3671 -0.4991
15910TIP3    H169221   6.593   3.448  11.834  0.5278 -0.2876  0.3356
15910TIP3    H269222   6.681   3.571  11.826 -0.7109  0.7256  1.8105
15911TIP3   OH269223   6.335   2.634  13.343  0.0862 -0.4132  0.2644
15911TIP3    H169224   6.420   2.678  13.336 -0.2558  0.4706  1.5353
15911TIP3    H269225   6.352   2.545  13.311  0.9673  0.3850 -1.5759
15912TIP3   OH269226   6.410   4.928   2.112 -0.1348 -0.1753  0.3988
15912TIP3    H169227   6.422   4.968   2.198  1.7491  1.3472 -0.5447
15912TIP3    H269228   6.341   4.978   2.070  0.4517  0.4813  0.2066
15913TIP3   OH269229   6.682   1.097  11.950 -0.0464  0.0653 -0.1441
15913TIP3    H169230   6.771   1.063  11.939 -0.0019  0.0008  0.4219
15913TIP3    H269231   6.665   1.146  11.869  0.1306 -0.7525 -0.6753
15914TIP3   OH269232   2.625   2.776  13.786  0.2375  0.7045 -0.5015
15914TIP3    H169233   2.539   2.818  13.782  0.0764  0.1812 -4.3238
15914TIP3    H269234   2.688   2.848  13.783 -0.0324  1.0233  1.0615
15915TIP3   OH269235   6.051   1.413  16.722 -0.4336  0.4421 -0.4637
15915TIP3    H169236   6.041   1.448  16.810 -1.1546  0.0046 -0.3691
15915TIP3    H269237   6.145   1.402  16.711 -0.4334 -1.4532  1.0281
15916TIP3   OH269238   5.421   6.702   1.603 -0.0893 -0.2767  0.5798
15916TIP3    H169239   5.386   6.644   1.670  2.8309 -0.3977  2.0727
15916TIP3    H269240   5.416   6.650   1.522 -1.7291 -0.8858  1.0579
15917TIP3   OH269241   1.970   0.642  14.102 -0.3283 -0.6338  0.1671
15917TIP3    H169242   1.942   0.734  14.103  1.5438 -0.0236 -0.5277
15917TIP3    H269243   2.021   0.632  14.182 -1.1898 -1.2826  0.6310
15918TIP3   OH269244   5.001   0.975   4.375  0.1206 -0.2391 -0.4160
15918TIP3    H169245   5.017   1.001   4.466  0.3590 -0.3503 -0.4233
15918TIP3    H269246   4.953   1.047   4.337  0.8935  0.2540 -0.4762
15919TIP3   OH269247   2.892   1.754  15.721 -0.2977 -0.3432  0.9163
15919TIP3    H169248   2.976   1.798  15.735 -0.7334  0.5971  0.6045
15919TIP3    H269249   2.904   1.703  15.641 -1.5237  3.6265 -1.9156
15920TIP3   OH269250   3.806   3.185   3.162  0.3822 -0.4205 -0.1332
15920TIP3    H169251   3.742   3.146   3.103  0.5004  0.2039 -0.6760
15920TIP3    H269252   3.880   3.208   3.105  0.0700  1.1406  0.0823
15921TIP3   OH269253   4.064   2.061  14.974  0.2837 -0.0828  0.5377
15921TIP3    H169254   3.979   2.099  14.997  0.7617 -0.4822  3.1071
15921TIP3    H269255   4.052   1.966  14.985  0.6360 -0.2629 -0.5606
15922TIP3   OH269256   0.702   3.562  13.540 -0.0227  0.5784 -0.2185
15922TIP3    H169257   0.748   3.514  13.470  1.9211 -1.6529  2.4828
15922TIP3    H269258   0.656   3.494  13.589 -1.0320  2.0663  0.9211
15923TIP3   OH269259   4.282   6.811  13.452 -0.1442 -0.6148 -0.5346
15923TIP3    H169260   4.211   6.812  13.517  1.7728  1.6331  1.6204
15923TIP3    H269261   4.274   6.894  13.406 -0.5634 -1.5496 -2.1691
15924TIP3   OH269262   2.747   0.796  13.523 -0.3309 -0.1443 -0.3053
15924TIP3    H169263   2.833   0.776  13.487 -0.1769 -3.0680  1.4696
15924TIP3    H269264   2.765   0.829  13.611 -0.9985 -1.1773  0.2378
15925TIP3   OH269265   0.157   6.091  13.224  0.0074 -1.0594  0.6048
15925TIP3    H169266   0.205   6.136  13.154 -1.5474 -2.1765 -1.2558
15925TIP3    H269267   0.099   6.158  13.260  0.7964 -0.4766  0.7847
15926TIP3   OH269268   1.854   6.009   0.414 -0.0329 -0.0248  0.0799
15926TIP3    H169269   1.816   6.090   0.380 -0.8045 -0.0456  0.8752
15926TIP3    H269270   1.915   5.980   0.346  0.8961  1.6694  0.1635
15927TIP3   OH269271   1.701   0.552  12.441 -0.1346  0.1223  0.0194
15927TIP3    H169272   1.627   0.602  12.408  0.5302  0.0989 -1.5436
15927TIP3    H269273   1.778   0.604  12.417  0.6120 -1.8920 -2.1472
15928TIP3   OH269274   5.218   1.168  11.721 -0.8855  0.0077  0.2264
15928TIP3    H169275   5.240   1.076  11.709 -0.6355  0.1541 -0.4502
15928TIP3    H269276   5.128   1.167  11.754  0.2849 -0.6219  3.6094
15929TIP3   OH269277   5.448   0.250  15.638  0.1935  0.1385 -0.0767
15929TIP3    H169278   5.513   0.277  15.703  0.1769 -0.6509  0.2697
15929TIP3    H269279   5.445   0.323  15.576  0.8816  0.4934  0.3003
15930TIP3   OH269280   5.573   5.937   3.965 -0.3692 -0.1956  0.8240
15930TIP3    H169281   5.644   5.882   3.935  0.3212 -0.0242  2.1187
15930TIP3    H269282   5.614   6.022   3.982 -1.3103  0.5720 -0.6007
15931TIP3   OH269283   2.363   3.524   1.004 -0.5308  0.4126  0.3702
15931TIP3    H169284   2.290   3.488   0.954  0.6831  0.1487 -1.2787
15931TIP3    H269285   2.439   3.513   0.946  0.3267  3.2659  0.8803
15932TIP3   OH269286   5.259   0.132  11.290  0.7688  0.3678  0.2521
15932TIP3    H169287   5.181   0.174  11.326  0.3680 -0.4594  0.3753
15932TIP3    H269288   5.333   0.179  11.328  0.3281  0.7066  0.6808
15933TIP3   OH269289   1.656   6.546   0.265  0.0938  0.2273 -0.1612
15933TIP3    H169290   1.745   6.579   0.261 -0.0808  0.6209 -0.8017
15933TIP3    H269291   1.620   6.584   0.345  0.4274  0.2344 -0.0128
15934TIP3   OH269292   2.976   4.291   3.416  0.0543 -0.0007 -0.0854
15934TIP3    H169293   2.891   4.308   3.455  0.2131  0.2679  0.1492
15934TIP3    H269294   3.013   4.379   3.401  1.1073 -0.1433  1.6257
15935TIP3   OH269295   0.591   6.412   5.535 -0.3224 -0.0772  0.0384
15935TIP3    H169296   0.632   6.408   5.449 -0.1224 -1.1335  0.1735
15935TIP3    H269297   0.646   6.355   5.590  0.4345  1.7311  1.2286
15936TIP3   OH269298   1.553   3.668  13.339  0.5371 -0.3112 -0.3858
15936TIP3    H169299   1.577   3.695  13.427  1.3580  1.0837 -1.0267
15936TIP3    H269300   1.457   3.667  13.340  0.5326 -2.8120  1.2453
15937TIP3   OH269301   0.624   6.765   4.156  0.4464 -0.3854  0.1376
15937TIP3    H169302   0.709   6.807   4.137 -0.8553  1.4295 -1.9009
15937TIP3    H269303   0.573   6.835   4.199 -0.2753 -1.2575  0.7108
15938TIP3   OH269304   2.954   5.376   0.956  0.1745  0.1648  0.3203
15938TIP3    H169305   2.940   5.402   0.865 -0.7623 -1.9306 -0.1659
15938TIP3    H269306   2.879   5.320   0.976  2.0032 -1.9965  1.3407
15939TIP3   OH269307   0.969   0.569   5.179 -0.5091  0.0350  0.1718
15939TIP3    H169308   0.973   0.664   5.166  2.0937  0.1193  1.1454
15939TIP3    H269309   1.038   0.534   5.123 -1.8493 -1.3743 -0.6464
15940TIP3   OH269310   3.096   3.597  12.899  0.0533 -0.3347  0.8032
15940TIP3    H169311   3.153   3.670  12.872  0.3674 -0.7259  0.4034
15940TIP3    H269312   3.027   3.594  12.833  0.1346 -0.5116  0.7281
15941TIP3   OH269313   5.054   5.284  11.718  0.1203 -0.1256  0.3837
15941TIP3    H169314   5.050   5.360  11.777  0.4995 -0.1062  0.3863
15941TIP3    H269315   5.113   5.311  11.648 -1.7366  0.5156 -0.9849
15942TIP3   OH269316   2.267   0.478  14.172 -0.2589 -0.1783 -0.6103
15942TIP3    H169317   2.204   0.515  14.234 -0.4266 -0.4848 -0.5961
15942TIP3    H269318   2.352   0.494  14.213 -0.3771 -0.5016 -0.2314
15943TIP3   OH269319   5.222   0.559   2.774  0.0070  0.4238  0.8544
15943TIP3    H169320   5.174   0.479   2.796 -0.4243  0.2122 -0.8137
15943TIP3    H269321   5.292   0.530   2.715 -0.5646  1.3550 -0.3112
15944TIP3   OH269322   1.660   2.934  16.610  0.1937 -0.2798 -0.5734
15944TIP3    H169323   1.606   3.013  16.613  0.2803 -0.2475  0.5313
15944TIP3    H269324   1.727   2.948  16.677  0.1398 -1.3337 -0.2873
15945TIP3   OH269325   5.913   2.917  14.264 -0.3771  0.3579  0.0581
15945TIP3    H169326   5.936   3.010  14.263 -0.3060  0.3430  0.4694
15945TIP3    H269327   5.905   2.894  14.356 -1.4901  0.2249 -0.0607
15946TIP3   OH269328   6.398   6.227  11.469 -0.0184 -0.1229 -0.1436
15946TIP3    H169329   6.397   6.163  11.398 -0.1938  0.8739 -1.0352
15946TIP3    H269330   6.420   6.310  11.427  0.8695  0.2906  1.1163
15947TIP3   OH269331   3.565   2.875   3.342  0.7067 -0.1883  0.1238
15947TIP3    H169332   3.508   2.947   3.316 -1.8670 -2.2282 -0.1118
15947TIP3    H269333   3.558   2.873   3.438  0.8231 -0.0966  0.1344
15948TIP3   OH269334   3.567   4.033   1.298  0.3977 -0.2408  0.2908
15948TIP3    H169335   3.592   4.016   1.207  1.1111  1.4265  0.1542
15948TIP3    H269336   3.472   4.043   1.295  0.5773  1.3200 -0.5352
15949TIP3   OH269337   0.027   3.606   6.976 -0.1635  0.0636 -0.1728
15949TIP3    H169338  -0.059   3.564   6.983 -0.0081 -0.1067  0.8830
15949TIP3    H269339   0.090   3.535   6.985  0.0914  0.3645  0.4743
15950TIP3   OH269340   1.116   3.118  13.087  0.3670 -0.1228  0.4205
15950TIP3    H169341   1.138   3.141  12.997 -0.2451  0.9177  0.5316
15950TIP3    H269342   1.075   3.197  13.123  0.4994 -0.5674  1.5719
15951TIP3   OH269343   0.661   5.826   0.131  0.5758 -0.0402  0.0380
15951TIP3    H169344   0.705   5.832   0.046 -0.2819 -0.6640 -0.4597
15951TIP3    H269345   0.592   5.761   0.118 -2.5391  3.0783 -0.1404
15952TIP3   OH269346   5.478   6.491   2.737  0.4371  0.3934  0.0437
15952TIP3    H169347   5.416   6.467   2.669 -0.6912  0.9272  0.8671
15952TIP3    H269348   5.563   6.487   2.695 -0.0288 -1.6686 -0.7504
15953TIP3   OH269349   3.183   5.459   2.561  0.1075 -0.2481  0.4046
15953TIP3    H169350   3.131   5.476   2.482 -1.1015 -0.1662  1.1973
15953TIP3    H269351   3.165   5.368   2.583 -0.0913 -0.0750  0.9653
15954TIP3   OH269352   3.063   4.347   2.721 -0.2973 -0.3527  0.1614
15954TIP3    H169353   2.994   4.406   2.692  0.2831  0.1253 -0.2812
15954TIP3    H269354   3.104   4.317   2.640  0.1728 -0.4242  0.4234
15955TIP3   OH269355   3.696   3.515   5.016  0.3854 -0.5653 -0.6051
15955TIP3    H169356   3.735   3.534   5.101 -1.3420  0.9508 -0.1165
15955TIP3    H269357   3.641   3.592   4.997  1.4470 -0.4590 -3.5075
15956TIP3   OH269358   5.999   5.337  16.001  0.2009  0.7366 -0.0601
15956TIP3    H169359   5.925   5.366  15.948  1.4947  3.1962 -0.6289
15956TIP3    H269360   5.999   5.396  16.076  1.6288  0.8314 -0.1184
15957TIP3   OH269361   2.421   5.052  15.898 -0.7654 -0.1949  0.1351
15957TIP3    H169362   2.454   5.052  15.808 -0.6666 -0.0662  0.1714
15957TIP3    H269363   2.428   4.961  15.926 -1.4033 -0.3540 -0.2087
15958TIP3   OH269364   4.317   4.633  13.746 -0.5569  0.2451 -0.1347
15958TIP3    H169365   4.400   4.667  13.713 -1.1552  1.0032 -0.8906
15958TIP3    H269366   4.256   4.706  13.737 -1.4449 -0.4870 -0.1190
15959TIP3   OH269367   0.200   5.954  14.758 -0.0536  0.4223 -0.2370
15959TIP3    H169368   0.236   5.867  14.772 -1.8771 -0.0164  2.2245
15959TIP3    H269369   0.205   5.968  14.664  2.7130 -1.2354 -0.3909
15960TIP3   OH269370   6.439   1.700  12.688 -0.1751  0.0777 -0.4935
15960TIP3    H169371   6.439   1.632  12.621 -2.7699  0.4397 -0.9282
15960TIP3    H269372   6.379   1.668  12.755  2.8466 -0.5436  1.9867
15961TIP3   OH269373   3.189   1.703  15.482 -0.4197 -0.1730 -0.2454
15961TIP3    H169374   3.154   1.623  15.521  0.8763 -0.6695 -0.0658
15961TIP3    H269375   3.182   1.768  15.551  1.3973 -0.9260  0.6813
15962TIP3   OH269376   5.450   1.853   0.434 -0.3611 -0.3932 -0.1006
15962TIP3    H169377   5.479   1.774   0.480 -2.2345 -1.1541 -0.1858
15962TIP3    H269378   5.494   1.849   0.349  2.3626  0.5218  1.1868
15963TIP3   OH269379   5.645   4.001   3.882  0.7575  0.3570  0.0498
15963TIP3    H169380   5.674   4.021   3.793  2.1337  1.4916  0.7417
15963TIP3    H269381   5.679   3.914   3.900  0.2515  0.0194 -0.6338
15964TIP3   OH269382   4.140   1.340  14.443  0.6593 -0.3227 -0.2087
15964TIP3    H169383   4.181   1.347  14.357 -0.1235  0.2266 -0.5413
15964TIP3    H269384   4.174   1.415  14.492  3.0227 -1.9752  0.7991
15965TIP3   OH269385   0.855   1.385   4.117  0.2426 -0.0029  0.0303
15965TIP3    H169386   0.933   1.435   4.144 -0.0995  1.3302 -1.3855
15965TIP3    H269387   0.888   1.296   4.105  0.7328 -0.3139  3.2086
15966TIP3   OH269388   5.110   6.083  15.934  0.1755 -0.1363  0.2935
15966TIP3    H169389   5.159   6.012  15.976  3.2758  0.0906 -2.7520
15966TIP3    H269390   5.171   6.157  15.934 -0.7365  0.6553 -2.1060
15967TIP3   OH269391   2.892   2.935  16.653 -0.6411 -0.1203  0.4972
15967TIP3    H169392   2.810   2.917  16.607 -1.0220 -0.7989  1.4257
15967TIP3    H269393   2.869   2.927  16.746  0.5767 -0.7305  0.7536
15968TIP3   OH269394   5.479   1.001   0.991 -0.1043 -0.0500  0.0322
15968TIP3    H169395   5.391   0.967   0.975  0.1590 -0.3582 -0.8271
15968TIP3    H269396   5.531   0.965   0.919  1.3541 -2.2461  2.0973
15969TIP3   OH269397   0.688   6.277  14.500 -0.3925  0.2253  0.0806
15969TIP3    H169398   0.603   6.249  14.467  0.0746 -0.9358 -0.1508
15969TIP3    H269399   0.700   6.227  14.581 -0.2431  0.9158  0.4965
15970TIP3   OH269400   2.520   2.823   2.164  0.1463 -0.1673 -0.4333
15970TIP3    H169401   2.591   2.882   2.141  0.8435 -0.1827  1.5837
15970TIP3    H269402   2.517   2.759   2.093  2.5795 -0.5558 -0.2343
15971TIP3   OH269403   0.855   2.207  15.702  0.0440  0.7780 -0.6118
15971TIP3    H169404   0.905   2.130  15.675 -0.2320 -0.1765  1.5434
15971TIP3    H269405   0.805   2.230  15.624 -0.2303 -1.5082 -1.1594
15972TIP3   OH269406   1.314   0.395   1.158  0.3406  0.8711  0.1088
15972TIP3    H169407   1.344   0.401   1.249  1.7156 -0.4250 -0.2468
15972TIP3    H269408   1.322   0.302   1.136  0.3308  1.2268 -1.4448
15973TIP3   OH269409   5.883   0.273  11.547 -0.4528  0.5513  0.1724
15973TIP3    H169410   5.970   0.308  11.529 -0.0165  1.0017  2.8943
15973TIP3    H269411   5.899   0.201  11.608 -1.9613  0.3761  0.3654
15974TIP3   OH269412   4.179   1.116  15.334 -0.4968 -0.1409  0.2223
15974TIP3    H169413   4.180   1.182  15.264 -0.3658  0.1532  0.5005
15974TIP3    H269414   4.167   1.167  15.415  0.7772 -0.3580  0.5506
15975TIP3   OH269415   2.381   2.941   2.747 -0.0380 -0.0280 -0.0115
15975TIP3    H169416   2.453   2.978   2.695 -0.1883 -0.8473 -0.8313
15975TIP3    H269417   2.418   2.929   2.834  1.3105 -1.7730 -0.7756
15976TIP3   OH269418   6.384   4.025   5.491  0.3844 -0.5096 -0.3324
15976TIP3    H169419   6.338   4.106   5.469  2.0382  0.2528 -1.0851
15976TIP3    H269420   6.356   4.005   5.580 -0.0166  0.9352 -0.1167
15977TIP3   OH269421   1.890   5.229  16.997 -0.0580 -0.2422 -0.1225
15977TIP3    H169422   1.859   5.165  17.061  0.7805  0.5766  1.1329
15977TIP3    H269423   1.977   5.253  17.027 -0.0760  0.9533 -0.9742
15978TIP3   OH269424   0.877   5.335   0.384 -0.1936  0.3487 -0.5400
15978TIP3    H169425   0.828   5.407   0.345 -1.0564 -0.9461 -1.9089
15978TIP3    H269426   0.893   5.275   0.311 -0.4933 -1.4005  0.8094
15979TIP3   OH269427   2.220   3.440   3.040 -0.2750  0.2017  0.0696
15979TIP3    H169428   2.288   3.451   2.973 -0.6785 -2.6697 -0.8759
15979TIP3    H269429   2.166   3.518   3.032  0.3343  0.4348 -2.2198
15980TIP3   OH269430   2.895   3.299   2.130 -0.6415 -0.1959 -0.1270
15980TIP3    H169431   2.910   3.349   2.050  1.1104 -0.0240  0.2934
15980TIP3    H269432   2.819   3.342   2.171  0.8189  2.1573  0.2294
15981TIP3   OH269433   1.015   4.064   3.559 -0.2335  0.2729 -0.3854
15981TIP3    H169434   1.045   4.151   3.583 -1.8401  0.6200  0.4454
15981TIP3    H269435   1.072   4.004   3.607  0.3890  0.8707 -0.3683
15982TIP3   OH269436   3.377   6.638   2.075 -0.3465  0.0147  0.0777
15982TIP3    H169437   3.301   6.583   2.096 -0.2433 -0.0287  0.3373
15982TIP3    H269438   3.363   6.664   1.984 -0.5338 -0.2182  0.0379
15983TIP3   OH269439   4.790   3.491  12.516 -0.7371  0.3111 -0.1081
15983TIP3    H169440   4.809   3.468  12.426 -0.5581  0.9269 -0.2326
15983TIP3    H269441   4.809   3.585  12.521 -0.5801  0.2453  0.6074
15984TIP3   OH269442   6.287   1.543  12.849  0.4469  0.2214  0.0594
15984TIP3    H169443   6.229   1.540  12.773  0.3452  0.6185  0.1176
15984TIP3    H269444   6.243   1.489  12.915  0.0496  0.6713  0.1654
15985TIP3   OH269445   5.692   2.512   4.926 -0.1925 -0.7514 -0.3843
15985TIP3    H169446   5.734   2.497   4.842  2.2429 -0.6253  0.7692
15985TIP3    H269447   5.630   2.584   4.910  1.2856  0.2374 -1.7381
15986TIP3   OH269448   1.055   1.526  10.673  0.1513  0.4946  0.2212
15986TIP3    H169449   0.965   1.558  10.677  0.2903  0.7130  1.7602
15986TIP3    H269450   1.082   1.516  10.764  1.9001  1.0299 -0.2087
15987TIP3   OH269451   6.412   3.705  14.089  0.1056 -0.0811  0.3256
15987TIP3    H169452   6.490   3.650  14.077 -0.3963 -0.1664 -2.7868
15987TIP3    H269453   6.433   3.788  14.046 -1.1791  0.2450  0.2931
15988TIP3   OH269454   2.095   1.003   9.974 -0.4804 -0.1967  0.5103
15988TIP3    H169455   2.070   0.917  10.009  0.1407 -0.4455  0.3437
15988TIP3    H269456   2.019   1.059   9.992 -0.9856 -0.8396  0.3988
15989TIP3   OH269457   6.555   2.558   3.768  0.2030  0.2116  0.5216
15989TIP3    H169458   6.576   2.639   3.722 -2.3259  0.9133  0.4977
15989TIP3    H269459   6.554   2.491   3.700 -0.9809  0.7848 -0.0462
15990TIP3   OH269460   0.777   3.711   2.144  0.3068 -0.4845 -0.3930
15990TIP3    H169461   0.762   3.789   2.090 -1.1299 -1.7098 -1.8309
15990TIP3    H269462   0.833   3.656   2.089 -0.4329 -1.3582 -0.2826
15991TIP3   OH269463   4.016   5.805   6.186 -0.3113  0.1085 -0.0097
15991TIP3    H169464   4.075   5.877   6.163  0.1123  0.0974  1.0198
15991TIP3    H269465   3.966   5.837   6.261 -2.2562  0.4437 -1.4215
15992TIP3   OH269466   3.557   4.723   0.437 -0.1880 -0.3424 -0.0753
15992TIP3    H169467   3.527   4.659   0.373 -0.6669 -0.6304  0.4320
15992TIP3    H269468   3.620   4.776   0.390 -1.2906  0.0942 -1.0740
15993TIP3   OH269469   6.355   3.658  14.912  0.9330 -0.2152  0.1328
15993TIP3    H169470   6.392   3.597  14.849  0.6084 -0.6122  0.3248
15993TIP3    H269471   6.315   3.727  14.859  1.5690 -0.0083 -0.0824
15994TIP3   OH269472   0.907   0.322  15.904 -0.1747  0.2130  0.5719
15994TIP3    H169473   0.822   0.302  15.866  0.0875 -0.5136  0.3614
15994TIP3    H269474   0.942   0.237  15.930  0.7411  0.4494  0.1216
15995TIP3   OH269475   4.212   4.427  13.484 -0.3406  0.0292  0.2417
15995TIP3    H169476   4.132   4.471  13.455 -0.1563 -0.5950 -1.2546
15995TIP3    H269477   4.275   4.497  13.497 -0.5984  0.3681 -0.3350
15996TIP3   OH269478   0.670   1.238   3.399 -0.2579  0.3950  0.4478
15996TIP3    H169479   0.644   1.280   3.481 -1.0288  0.0375  0.3939
15996TIP3    H269480   0.648   1.302   3.331  2.5786  1.6891  0.6667
15997TIP3   OH269481   2.055   3.373   1.236 -0.2470 -0.3254  0.2745
15997TIP3    H169482   2.059   3.422   1.154 -2.3332 -1.1067 -0.3310
15997TIP3    H269483   2.029   3.285   1.210 -1.7806 -0.3673  1.8415
15998TIP3   OH269484   5.842   0.576  13.452  0.0220 -0.1907  0.1169
15998TIP3    H169485   5.764   0.631  13.463 -0.6091 -0.9721 -0.3404
15998TIP3    H269486   5.911   0.623  13.498 -0.5211  0.9388 -0.1933
15999TIP3   OH269487   1.725   5.221   5.498  0.2889 -0.1276  0.5057
15999TIP3    H169488   1.777   5.268   5.433 -1.0146  0.1159 -0.3871
15999TIP3    H269489   1.789   5.183   5.557  1.4683  0.3486 -0.4436
16000TIP3   OH269490   0.134   6.527  11.484 -0.5047 -0.4736  0.4490
16000TIP3    H169491   0.100   6.597  11.427  0.8232 -0.8160 -0.8110
16000TIP3    H269492   0.066   6.460  11.483 -0.5913 -0.3787 -0.5629
16001TIP3   OH269493   2.127   5.316   5.682  0.5560  0.5165  0.3250
16001TIP3    H169494   2.073   5.242   5.655  1.2199  0.1057  0.1047
16001TIP3    H269495   2.114   5.323   5.777  1.6193 -0.7990  0.5738
16002TIP3   OH269496   2.293   3.223   1.489 -0.0344 -0.0667 -0.0055
16002TIP3    H169497   2.303   3.203   1.396  0.5753  0.3948 -0.0431
16002TIP3    H269498   2.380   3.252   1.517 -0.2494 -0.0612  0.6750
16003TIP3   OH269499   4.624   1.432   4.970 -0.7038  0.5069 -0.5150
16003TIP3    H169500   4.553   1.486   5.006 -0.1137  0.7061  0.3557
16003TIP3    H269501   4.581   1.350   4.946 -1.0904  0.3358  0.7311
16004TIP3   OH269502   1.869   3.651   1.229  0.5101  0.3976 -0.1165
16004TIP3    H169503   1.936   3.687   1.287  0.4230 -0.2072  0.3755
16004TIP3    H269504   1.829   3.580   1.280 -1.3932  1.5791  0.1039
16005TIP3   OH269505   6.751   5.304   5.772  0.0355 -0.0350 -0.0500
16005TIP3    H169506   6.777   5.226   5.723 -2.0595 -0.1043 -1.1305
16005TIP3    H269507   6.679   5.273   5.828  0.4185  0.7150  0.8557
16006TIP3   OH269508   3.311   4.346  15.144 -0.7475 -0.0420 -0.2633
16006TIP3    H169509   3.390   4.393  15.119 -0.8035  0.1631 -0.0651
16006TIP3    H269510   3.341   4.259  15.168 -0.8397 -0.6178 -2.1595
16007TIP3   OH269511   5.895   4.649  13.779 -0.2313  0.3953  0.3668
16007TIP3    H169512   5.906   4.553  13.782 -0.3389  0.3669 -0.0901
16007TIP3    H269513   5.971   4.679  13.729 -1.0241  0.4040 -0.8643
16008TIP3   OH269514   5.810   1.818   6.314  0.2225  0.1809 -0.0135
16008TIP3    H169515   5.740   1.860   6.364 -1.6734  0.3913 -2.7206
16008TIP3    H269516   5.888   1.868   6.335 -0.4699  0.1158  2.8713
16009TIP3   OH269517   3.385   0.979  12.152 -0.0314  0.5735  0.1185
16009TIP3    H169518   3.365   1.047  12.088 -0.1651 -0.1103 -0.5716
16009TIP3    H269519   3.479   0.965  12.145 -0.2757 -0.6129 -1.0642
16010TIP3   OH269520   4.947   3.363  13.335 -0.4389  0.5660  0.3232
16010TIP3    H169521   4.870   3.311  13.313  0.3567 -0.5476  0.0865
16010TIP3    H269522   4.937   3.444  13.287 -0.9576  0.0011 -0.5344
16011TIP3   OH269523   1.915   6.818  17.128 -0.4269 -0.1111  0.1449
16011TIP3    H169524   1.939   6.888  17.188  1.2771  1.1028 -1.8798
16011TIP3    H269525   1.960   6.740  17.161  0.6238  0.5838  0.3554
16012TIP3   OH269526   6.413   1.585   3.807 -0.0104 -0.4465 -0.6305
16012TIP3    H169527   6.318   1.597   3.795  0.1506  1.6284 -0.1247
16012TIP3    H269528   6.435   1.645   3.878  1.7612 -0.5991 -1.0457
16013TIP3   OH269529   2.477   5.678   6.302  0.3292  0.2464 -0.6248
16013TIP3    H169530   2.461   5.746   6.236  0.8025  0.0856 -0.9075
16013TIP3    H269531   2.566   5.697   6.334  0.5780 -0.4150 -0.9135
16014TIP3   OH269532   4.967   4.209   2.719 -0.2304  0.2256  0.0767
16014TIP3    H169533   4.910   4.133   2.720  0.5066 -0.3341  0.4173
16014TIP3    H269534   5.023   4.197   2.642 -1.4575  1.4472 -1.0251
16015TIP3   OH269535   2.033   2.552  12.298  0.1745  0.3054  0.0294
16015TIP3    H169536   2.006   2.460  12.303 -2.3900  0.8963 -2.1188
16015TIP3    H269537   2.073   2.569  12.384  1.7211 -3.0837  0.0992
16016TIP3   OH269538   1.469   5.211  15.824  0.4459 -0.4425 -0.7298
16016TIP3    H169539   1.495   5.296  15.858  1.5684 -1.4162  0.9594
16016TIP3    H269540   1.551   5.163  15.813 -0.3162 -2.1651  0.7939
16017TIP3   OH269541   2.804   1.213   1.764 -0.3951 -0.3449  0.4236
16017TIP3    H169542   2.760   1.170   1.692 -0.0454 -0.0509  0.0313
16017TIP3    H269543   2.886   1.164   1.776  1.0162  1.4568 -1.4153
16018TIP3   OH269544   2.227   2.068  14.617  0.5203  0.0677  0.0281
16018TIP3    H169545   2.131   2.069  14.609  0.5785 -1.9422 -1.5489
16018TIP3    H269546   2.244   2.104  14.704 -1.7031 -0.0844  0.5756
16019TIP3   OH269547   1.690   6.447   3.378  0.0328 -0.2813 -0.6845
16019TIP3    H169548   1.712   6.496   3.299 -1.0074 -0.0170 -0.8242
16019TIP3    H269549   1.684   6.356   3.349  0.1901 -0.2552 -0.7982
16020TIP3   OH269550   6.303   0.592   0.763  0.7174  0.4134  0.2120
16020TIP3    H169551   6.260   0.566   0.845 -2.0317  2.5839 -0.4723
16020TIP3    H269552   6.266   0.678   0.743  2.2372  0.4381 -2.7084
16021TIP3   OH269553   4.736   1.026  14.990 -0.0708 -0.3243 -0.0134
16021TIP3    H169554   4.740   1.112  14.948  1.0403  0.2480  1.2447
16021TIP3    H269555   4.651   1.025  15.034 -1.2480 -0.9227 -2.1842
16022TIP3   OH269556   3.065   0.490  10.956 -0.4479  0.0407 -0.0391
16022TIP3    H169557   2.981   0.457  10.924 -0.2244 -0.8224  0.2623
16022TIP3    H269558   3.043   0.539  11.035 -0.9351  1.7195 -1.1993
16023TIP3   OH269559   5.122   0.107   1.123 -0.1798 -0.0742 -0.1200
16023TIP3    H169560   5.038   0.152   1.118 -0.0334  0.3704  1.3353
16023TIP3    H269561   5.125   0.070   1.211  0.3428 -1.6932 -0.7979
16024TIP3   OH269562   5.765   4.981  16.815  0.0183 -0.5227 -0.3823
16024TIP3    H169563   5.827   4.989  16.887 -2.2456  1.4295  1.4303
16024TIP3    H269564   5.797   5.041  16.748  0.5813 -0.2048  0.1754
16025TIP3   OH269565   3.728   0.492  14.021  0.1351 -0.5570 -0.0639
16025TIP3    H169566   3.805   0.534  14.058  0.4198 -1.3583  0.2568
16025TIP3    H269567   3.727   0.521  13.930  0.6320 -0.2924  0.0110
16026TIP3   OH269568   2.226   5.762  14.419  0.3979  0.4309 -0.3915
16026TIP3    H169569   2.317   5.737  14.399  1.2627  4.0689 -1.4500
16026TIP3    H269570   2.178   5.738  14.340  0.5083 -0.9381 -0.0681
16027TIP3   OH269571   1.590   6.249   5.465  0.3976  0.0570  0.4683
16027TIP3    H169572   1.659   6.184   5.448  1.1880  0.4039  2.2620
16027TIP3    H269573   1.524   6.202   5.515  0.6843  0.4582  1.2370
16028TIP3   OH269574   3.148   5.809  16.012  0.4892  0.0035  0.1369
16028TIP3    H169575   3.111   5.826  15.925  1.4468 -1.2903 -0.5487
16028TIP3    H269576   3.103   5.730  16.042  1.4425 -0.5890  0.0327
16029TIP3   OH269577   0.655   2.913   6.010 -0.3665  0.2207  0.1000
16029TIP3    H169578   0.639   2.876   5.923 -0.1589  0.3076  0.0243
16029TIP3    H269579   0.578   2.887   6.062 -1.2225  1.4544 -0.5188
16030TIP3   OH269580   1.980   5.577   1.317  0.0129  0.1286 -0.5665
16030TIP3    H169581   1.906   5.517   1.329  0.0199  0.5444  1.7904
16030TIP3    H269582   1.941   5.658   1.283 -0.5620  0.2282  0.3358
16031TIP3   OH269583   6.665   3.416  12.554 -0.0095 -0.6880 -0.1627
16031TIP3    H169584   6.739   3.359  12.571 -0.6056 -1.1377  0.9809
16031TIP3    H269585   6.625   3.381  12.474  1.9308  0.5259 -1.7137
16032TIP3   OH269586   4.614   5.186   4.140  0.3931 -0.0070 -0.0403
16032TIP3    H169587   4.709   5.182   4.135  0.4251  0.0614  0.4824
16032TIP3    H269588   4.586   5.212   4.052  0.8763  0.4314 -0.0611
16033TIP3   OH269589   4.199   0.019  14.100  0.5253  0.6462 -0.7909
16033TIP3    H169590   4.247   0.003  14.181 -1.1393 -1.4364 -0.1622
16033TIP3    H269591   4.156  -0.064  14.081 -0.3123  1.5521 -3.0145
16034TIP3   OH269592   2.471   1.392  12.365  0.0084  0.1442  0.0131
16034TIP3    H169593   2.532   1.456  12.329  1.0953 -0.4284  0.7992
16034TIP3    H269594   2.428   1.438  12.437  1.8122 -0.4263  1.4912
16035TIP3   OH269595   2.715   6.119   3.012  0.0128  0.3863 -0.5617
16035TIP3    H169596   2.768   6.188   3.053 -0.5372  1.6775 -1.9558
16035TIP3    H269597   2.718   6.139   2.918 -1.3432 -0.6569 -0.8513
16036TIP3   OH269598   4.944   4.211  11.149 -0.2272  0.1289  0.2222
16036TIP3    H169599   4.875   4.244  11.092  0.6822 -0.2513 -1.1340
16036TIP3    H269600   5.009   4.175  11.088 -0.0820 -1.9455  1.5687
16037TIP3   OH269601   1.469   3.595   4.981  0.3588  0.2707 -0.1226
16037TIP3    H169602   1.519   3.594   4.900 -0.0244  0.6093 -0.3673
16037TIP3    H269603   1.535   3.588   5.050  0.5660 -1.6055 -0.4976
16038TIP3   OH269604   6.248   2.627   4.712  0.0410  0.3954  0.0945
16038TIP3    H169605   6.173   2.682   4.689 -0.5020 -0.5674 -0.4719
16038TIP3    H269606   6.258   2.639   4.807 -0.5823  0.8337  0.1100
16039TIP3   OH269607   4.087   3.841   3.954  0.4804 -0.0652  0.4938
16039TIP3    H169608   4.076   3.766   4.012 -0.1234 -1.5227 -1.4335
16039TIP3    H269609   4.027   3.824   3.881 -0.7878  3.0294  0.7165
16040TIP3   OH269610   5.450   3.165   4.391 -0.0601 -0.4871 -0.3974
16040TIP3    H169611   5.393   3.146   4.466  0.4341 -0.5586 -0.0380
16040TIP3    H269612   5.539   3.151   4.424  0.1715 -0.3103 -0.9380
16041TIP3   OH269613   2.412   0.852  16.309  0.2900 -0.4392  0.2001
16041TIP3    H169614   2.466   0.803  16.247  1.0099 -1.0910  1.3303
16041TIP3    H269615   2.455   0.937  16.317 -1.7283  0.9612 -2.8367
16042TIP3   OH269616   0.235   4.211   6.706  0.7667 -0.0759  0.0032
16042TIP3    H169617   0.195   4.296   6.724  1.2869 -0.2334  2.1009
16042TIP3    H269618   0.176   4.147   6.746  2.3053 -0.3993  1.8952
16043TIP3   OH269619   5.962   6.658  13.292 -0.0244 -0.8168 -0.3282
16043TIP3    H169620   5.922   6.662  13.205  0.7364 -1.0188 -0.6932
16043TIP3    H269621   5.892   6.682  13.352 -0.6722 -1.0964 -0.9651
16044TIP3   OH269622   0.642   5.215   2.554 -0.1568 -0.3723  0.7207
16044TIP3    H169623   0.548   5.219   2.571 -0.3531  0.8461 -0.5734
16044TIP3    H269624   0.679   5.281   2.612 -0.1293 -0.5848  0.9487
16045TIP3   OH269625   5.368   2.536  15.349  0.0998  0.4658 -0.2802
16045TIP3    H169626   5.441   2.593  15.375  1.0978 -0.9402  0.0167
16045TIP3    H269627   5.408   2.469  15.294 -0.5272 -1.7465  1.8761
16046TIP3   OH269628   1.806   5.582   3.042 -0.1601  0.4758 -0.0981
16046TIP3    H169629   1.878   5.628   3.087  0.2746  0.5052 -0.8062
16046TIP3    H269630   1.849   5.512   2.994 -0.3859  1.5341 -1.8963
16047TIP3   OH269631   4.777   4.909   5.210 -0.0659  0.0604  0.4018
16047TIP3    H169632   4.805   4.876   5.125  1.6595  0.5038  0.7863
16047TIP3    H269633   4.857   4.917   5.261 -1.0524 -0.0139  2.0184
16048TIP3   OH269634   3.993   5.693   4.109  0.3732 -0.4059  0.7468
16048TIP3    H169635   3.951   5.695   4.194 -1.6508 -1.2256 -0.2179
16048TIP3    H269636   3.952   5.764   4.060  1.3890 -0.0616  0.3663
16049TIP3   OH269637   2.298   2.325   5.924 -0.0654 -0.1204  0.4506
16049TIP3    H169638   2.358   2.357   5.856  0.9411  1.2918  1.9773
16049TIP3    H269639   2.217   2.373   5.909  0.5790  1.1664  1.0683
16050TIP3   OH269640   4.304   0.671   0.794 -0.6364 -0.2933  0.6242
16050TIP3    H169641   4.301   0.746   0.855  3.1468  0.1380  0.4533
16050TIP3    H269642   4.275   0.597   0.847 -0.3403  0.5931  2.0831
16051TIP3   OH269643   2.674   2.945   4.671  0.2297 -0.2305  0.8333
16051TIP3    H169644   2.741   2.898   4.622  1.8207  1.8801  0.9016
16051TIP3    H269645   2.712   2.956   4.759 -1.2262 -1.1023  1.6055
16052TIP3   OH269646   5.547   0.709   0.352  0.5109  0.1495 -0.0555
16052TIP3    H169647   5.573   0.698   0.260  2.3702 -0.6410  0.5352
16052TIP3    H269648   5.627   0.737   0.396 -0.5885  1.3695  1.1775
16053TIP3   OH269649   2.823   6.178  13.850  0.1463  0.2659  0.1757
16053TIP3    H169650   2.755   6.140  13.795  0.5444  2.2523 -1.7589
16053TIP3    H269651   2.880   6.105  13.871 -0.7661 -0.7939 -0.9299
16054TIP3   OH269652   1.086   6.452  16.930  0.2572 -0.2627 -0.3534
16054TIP3    H169653   1.113   6.530  16.978 -1.1380  0.3931 -0.6197
16054TIP3    H269654   1.166   6.419  16.889  1.3216 -0.3988  1.7918
16055TIP3   OH269655   4.121   3.576  14.469  0.2779  0.0671  0.4251
16055TIP3    H169656   4.113   3.491  14.425 -2.3832 -0.7539  2.3985
16055TIP3    H269657   4.039   3.621  14.450 -0.2129  0.3744  3.1508
16056TIP3   OH269658   3.266   1.494  16.658  0.3118  0.4324 -0.1280
16056TIP3    H169659   3.228   1.406  16.660 -0.4488  0.7564 -0.1265
16056TIP3    H269660   3.348   1.484  16.609  0.5912 -0.4140  0.4951
16057TIP3   OH269661   1.913   3.625   4.696 -0.0992 -0.2294 -0.4359
16057TIP3    H169662   2.000   3.642   4.659 -0.4121 -0.7652 -1.4338
16057TIP3    H269663   1.893   3.704   4.747  0.9205 -0.0599 -0.2831
16058TIP3   OH269664   3.841   1.469  16.894 -0.5598 -0.1223 -0.3012
16058TIP3    H169665   3.751   1.441  16.876 -0.9207  1.8141 -1.5977
16058TIP3    H269666   3.832   1.546  16.950  0.3291 -0.3297  0.1383
16059TIP3   OH269667   3.396   2.572  16.580 -0.0966  0.3999 -0.4732
16059TIP3    H169668   3.431   2.485  16.562 -0.2718  0.2394 -0.0336
16059TIP3    H269669   3.471   2.621  16.615  0.5039  1.0010 -2.4853
16060TIP3   OH269670   1.836   1.520  13.940 -0.0346  0.1938 -0.0834
16060TIP3    H169671   1.907   1.518  13.876  0.8895  1.8534  0.8651
16060TIP3    H269672   1.828   1.429  13.968  2.0688  0.0403  0.1494
16061TIP3   OH269673   1.652   6.135   0.059 -0.8520 -0.0420 -0.6034
16061TIP3    H169674   1.646   6.215   0.007  1.2347  0.0108 -0.8208
16061TIP3    H269675   1.618   6.159   0.145  1.7812  1.7430  0.0029
16062TIP3   OH269676   5.448   0.073  12.831 -0.0412 -0.0475 -0.1519
16062TIP3    H169677   5.452   0.075  12.735 -1.4049 -0.1344 -0.2308
16062TIP3    H269678   5.444  -0.020  12.853  0.4039 -0.0306 -0.0059
16063TIP3   OH269679   0.824   1.316   5.822 -0.2163 -0.4807 -0.1503
16063TIP3    H169680   0.737   1.330   5.782  0.1328 -1.7288 -1.3951
16063TIP3    H269681   0.849   1.229   5.793  0.5536 -0.9763  1.9498
16064TIP3   OH269682   5.027   3.726  16.213  0.2254 -0.3390  0.6157
16064TIP3    H169683   5.011   3.813  16.251 -1.1287 -0.4440  0.2960
16064TIP3    H269684   5.116   3.731  16.179 -0.3060  1.3721 -0.5912
16065TIP3   OH269685   0.831   0.476   4.323  0.2211  0.4935  0.1159
16065TIP3    H169686   0.868   0.499   4.408 -0.1986  1.7476 -0.0233
16065TIP3    H269687   0.752   0.426   4.344 -0.3901  1.5950  0.4971
16066TIP3   OH269688   6.234   5.979  13.631 -0.4123  0.1601  0.1996
16066TIP3    H169689   6.235   6.045  13.701 -0.8546 -0.7125  1.0385
16066TIP3    H269690   6.284   5.906  13.667 -1.0673 -0.4877 -0.2068
16067TIP3   OH269691   5.959   0.919   2.097 -0.1441  0.4826  0.3273
16067TIP3    H169692   5.874   0.875   2.090  0.2440 -0.1696 -0.4695
16067TIP3    H269693   5.938   1.007   2.126 -1.1239  0.3991 -0.0940
16068TIP3   OH269694   2.683   5.494  13.444  0.3281  0.4315  0.1943
16068TIP3    H169695   2.601   5.452  13.418  0.4168  0.1355  0.3903
16068TIP3    H269696   2.662   5.537  13.527  0.4317  0.1623  0.3612
16069TIP3   OH269697   1.673   3.889   1.728 -0.3384  0.1896 -0.6187
16069TIP3    H169698   1.697   3.797   1.722  0.2860  0.1772  1.6847
16069TIP3    H269699   1.660   3.917   1.637  1.4400 -1.6491 -1.4612
16070TIP3   OH269700   2.237   1.792  10.867  0.1172 -0.3227  0.0412
16070TIP3    H169701   2.217   1.708  10.825 -1.4195  0.1072 -0.0866
16070TIP3    H269702   2.251   1.852  10.794  0.9053 -0.3746  0.1392
16071TIP3   OH269703   5.323   2.339  11.495  0.1818  0.1316  0.4838
16071TIP3    H169704   5.228   2.329  11.490  0.2184 -0.3843  0.7732
16071TIP3    H269705   5.339   2.429  11.469 -0.1968 -0.4272 -1.8786
16072TIP3   OH269706   5.134   0.402  11.254 -0.0532  0.0380 -0.8424
16072TIP3    H169707   5.070   0.438  11.193 -0.3871  2.2640  0.7808
16072TIP3    H269708   5.213   0.455  11.239  0.3933 -0.5341 -0.5256
16073TIP3   OH269709   0.308   3.712   3.674  0.4777  0.9446 -0.6387
16073TIP3    H169710   0.351   3.627   3.683 -0.6523  0.3561 -0.6307
16073TIP3    H269711   0.298   3.744   3.763 -2.6438 -0.7598 -0.2810
16074TIP3   OH269712   3.361   5.176  10.918  0.1280 -0.0851 -0.0605
16074TIP3    H169713   3.401   5.252  10.876 -0.7956  0.2946 -0.2486
16074TIP3    H269714   3.282   5.158  10.868  0.3583 -1.2050 -0.0500
16075TIP3   OH269715   0.384   5.636   4.197 -0.4455 -1.0107 -0.1597
16075TIP3    H169716   0.383   5.541   4.191 -1.3406 -1.0941  1.0573
16075TIP3    H269717   0.337   5.666   4.119 -0.0325 -1.5610 -0.6161
16076TIP3   OH269718   4.556   1.386  17.000 -0.8868 -0.4390 -0.5572
16076TIP3    H169719   4.612   1.399  17.077 -1.9622 -0.5618  0.2579
16076TIP3    H269720   4.604   1.427  16.928  1.2121 -2.3012 -0.2662
16077TIP3   OH269721   6.515   3.979   5.258 -0.3957  0.0514 -0.0139
16077TIP3    H169722   6.601   3.952   5.290  0.2134  2.0782  0.1556
16077TIP3    H269723   6.457   3.970   5.333  0.4374  2.0511  0.9180
16078TIP3   OH269724   6.320   4.080  13.964 -0.9088 -0.2094  0.2888
16078TIP3    H169725   6.304   4.164  14.007 -0.3898  0.1434 -0.1900
16078TIP3    H269726   6.276   4.087  13.879 -2.4230 -1.1239  0.9965
16079TIP3   OH269727   3.898   6.407   6.068 -0.0242 -0.0863  0.3722
16079TIP3    H169728   3.923   6.483   6.120  1.6017 -0.4636  0.1638
16079TIP3    H269729   3.955   6.337   6.100  0.7385 -0.4070 -1.6666
16080TIP3   OH269730   5.609   6.277   3.141  0.2637  0.1832  0.8687
16080TIP3    H169731   5.637   6.366   3.118  0.5007 -0.6266 -2.2108
16080TIP3    H269732   5.515   6.285   3.157 -0.2005  0.5805 -1.8794
16081TIP3   OH269733   4.055   2.505  16.663 -0.0749  0.0402 -0.4789
16081TIP3    H169734   4.127   2.527  16.723  1.7171 -1.3968 -2.0344
16081TIP3    H269735   3.981   2.558  16.694  1.5474  1.3149  1.3680
16082TIP3   OH269736   1.570   4.765   0.603 -0.3073  0.1627  0.3824
16082TIP3    H169737   1.555   4.708   0.678  1.0255 -1.1350 -0.3207
16082TIP3    H269738   1.490   4.756   0.550 -0.6659  0.0037  0.9519
16083TIP3   OH269739   0.404   0.101  14.986  0.6808  0.1510 -0.3132
16083TIP3    H169740   0.489   0.117  15.028  0.4476 -0.9990  0.6390
16083TIP3    H269741   0.341   0.107  15.058  0.1371 -0.6235 -0.7247
16084TIP3   OH269742   3.556   5.263   4.985 -0.2661  0.0686  0.2017
16084TIP3    H169743   3.466   5.290   4.963 -0.3267 -1.5805 -1.7392
16084TIP3    H269744   3.545   5.179   5.030  0.2931 -0.0328  0.1426
16085TIP3   OH269745   1.406   5.252  11.765  0.1318  0.2928  0.3535
16085TIP3    H169746   1.465   5.219  11.697 -0.6796  0.8868 -0.6479
16085TIP3    H269747   1.332   5.190  11.765  0.2226  0.1796  0.8399
16086TIP3   OH269748   2.826   0.756  10.946 -0.7607  0.2195 -0.3612
16086TIP3    H169749   2.902   0.813  10.945 -1.5142  1.2615  0.1806
16086TIP3    H269750   2.851   0.681  10.892  0.4437  0.7964 -0.6192
16087TIP3   OH269751   3.467   3.150   4.132  0.0393 -0.2779  0.3159
16087TIP3    H169752   3.387   3.195   4.158  0.4573  0.6889 -0.0719
16087TIP3    H269753   3.535   3.217   4.134  0.8889 -1.1332  0.8295
16088TIP3   OH269754   3.887   3.357   1.080 -0.0027 -0.2286 -0.1477
16088TIP3    H169755   3.821   3.293   1.107 -0.7405 -1.0287 -3.6294
16088TIP3    H269756   3.970   3.319   1.111 -0.4781 -2.7124 -1.7657
16089TIP3   OH269757   4.324   0.219   5.998 -0.1950 -0.1190  0.0419
16089TIP3    H169758   4.337   0.248   6.089 -1.5464 -0.6516  0.4111
16089TIP3    H269759   4.279   0.135   6.006 -0.7155  0.0448 -1.1377
16090TIP3   OH269760   2.777   6.384   1.431 -0.5999  0.2851  0.1219
16090TIP3    H169761   2.812   6.445   1.367 -2.5152  1.7515  0.4064
16090TIP3    H269762   2.834   6.393   1.507 -1.4631  2.5667  0.5517
16091TIP3   OH269763   0.151   3.583  13.691  0.3717  0.4405  0.2629
16091TIP3    H169764   0.234   3.606  13.649  0.1727 -0.8790 -0.8597
16091TIP3    H269765   0.155   3.488  13.703 -0.4097  0.5430  1.4477
16092TIP3   OH269766   5.022   4.729   2.254  0.6547  0.3688  0.1243
16092TIP3    H169767   5.051   4.808   2.207  0.4475 -0.2752 -1.1028
16092TIP3    H269768   5.005   4.665   2.185  0.2257 -0.5604  1.0813
16093TIP3   OH269769   1.588   4.691  11.714  0.1790  0.0145  0.3433
16093TIP3    H169770   1.614   4.686  11.622 -0.3667 -1.1908  0.2518
16093TIP3    H269771   1.493   4.703  11.712  0.3931  2.0439  0.7252
16094TIP3   OH269772   5.857   4.576   0.544  0.4931  0.0194  0.2601
16094TIP3    H169773   5.882   4.565   0.452  2.1992  0.4396  0.6468
16094TIP3    H269774   5.790   4.644   0.543  0.0933 -0.3799 -0.7251
16095TIP3   OH269775   3.706   3.792   2.690  0.0842  0.1965 -0.1469
16095TIP3    H169776   3.747   3.808   2.775 -0.5668  1.3596 -0.0464
16095TIP3    H269777   3.702   3.878   2.648  0.1910 -0.3342 -1.2595
16096TIP3   OH269778   0.639   0.608  13.478  0.4264 -0.3106 -0.2056
16096TIP3    H169779   0.590   0.684  13.446  0.3150 -1.2511 -2.3576
16096TIP3    H269780   0.572   0.540  13.490  0.6482 -0.3556  0.8694
16097TIP3   OH269781   0.684   4.392   5.919  0.1864 -0.0930  0.2305
16097TIP3    H169782   0.642   4.346   5.993  0.7499 -0.6167  0.2268
16097TIP3    H269783   0.630   4.370   5.844  0.6490 -1.0279  0.1710
16098TIP3   OH269784   0.916   5.529   2.680  0.2393  0.1404  0.2246
16098TIP3    H169785   1.002   5.486   2.674  0.8852  1.4020  0.3400
16098TIP3    H269786   0.868   5.477   2.745  0.7746 -0.7959 -0.1145
16099TIP3   OH269787   4.751   1.840  15.791  0.0902  0.2171  0.7039
16099TIP3    H169788   4.693   1.889  15.849 -1.1379 -1.8980  1.2905
16099TIP3    H269789   4.811   1.795  15.851  1.1435  0.8961  0.1689
16100TIP3   OH269790   6.146   4.209   2.917  0.1474  0.4307  0.2301
16100TIP3    H169791   6.238   4.203   2.891 -0.6878 -3.3448 -2.3185
16100TIP3    H269792   6.109   4.274   2.857  0.9491  1.2687  0.6356
16101TIP3   OH269793   5.510   2.474  16.174  0.4117  0.0333  0.1930
16101TIP3    H169794   5.519   2.562  16.138 -1.8201  0.8040  1.4259
16101TIP3    H269795   5.582   2.466  16.236  0.3166  1.2231  0.4834
16102TIP3   OH269796   1.038   5.857   4.498  0.9733  0.0548  0.0094
16102TIP3    H169797   0.972   5.804   4.543  0.4974 -0.9283 -1.8062
16102TIP3    H269798   1.022   5.946   4.530 -0.1535 -0.4287  0.8323
16103TIP3   OH269799   6.722   0.503  11.297 -0.0060  0.1742  0.0416
16103TIP3    H169800   6.636   0.531  11.267 -0.0910  1.1665  1.1510
16103TIP3    H269801   6.783   0.563  11.252 -0.0419  0.7884  0.8012
16104TIP3   OH269802   4.060   6.467   5.842  0.0470  0.4869 -0.2249
16104TIP3    H169803   3.993   6.450   5.908  1.2089  0.8737  1.0887
16104TIP3    H269804   4.030   6.545   5.796 -0.4058  0.6560  0.3518
16105TIP3   OH269805   5.443   2.990   6.272  0.1388  0.2330  0.4362
16105TIP3    H169806   5.405   3.039   6.345 -0.2814 -0.0988  0.4394
16105TIP3    H269807   5.504   2.930   6.313  0.4409  0.5521  0.4560
16106TIP3   OH269808   6.387   1.838  14.996  0.6209 -0.5957 -0.3799
16106TIP3    H169809   6.454   1.883  15.047  0.0667 -0.5606  0.3359
16106TIP3    H269810   6.434   1.798  14.923  0.9308  2.1823 -1.7375
16107TIP3   OH269811   2.285   0.102  16.777  0.1709 -0.7841  0.7919
16107TIP3    H169812   2.210   0.135  16.729  0.1855  1.3820  2.1875
16107TIP3    H269813   2.291   0.009  16.753 -2.2902 -0.7216 -0.1260
16108TIP3   OH269814   1.773   1.404  11.856  0.1630 -0.5174 -0.0809
16108TIP3    H169815   1.688   1.450  11.854  0.3762 -0.1372 -1.0249
16108TIP3    H269816   1.764   1.335  11.790  1.2296  0.7200 -1.5511
16109TIP3   OH269817   1.429   2.852   1.027  0.1777  0.6124 -0.5127
16109TIP3    H169818   1.431   2.763   0.991 -2.0669  0.4513 -0.2947
16109TIP3    H269819   1.395   2.841   1.116  1.2500  1.5433  0.0300
16110TIP3   OH269820   5.915   0.622  11.902  0.4816  0.2883  0.9669
16110TIP3    H169821   5.865   0.638  11.822  0.9495  1.8061  0.9696
16110TIP3    H269822   5.848   0.608  11.969  0.0623  0.9606  0.6940
16111TIP3   OH269823   0.179   5.701   1.021  0.1746 -1.0309 -0.4694
16111TIP3    H169824   0.090   5.714   0.987 -0.1018  1.8156  1.1636
16111TIP3    H269825   0.236   5.734   0.952 -0.2281  0.9004  0.0846
16112TIP3   OH269826   1.966   0.389  13.183 -0.3385  0.0509  0.1671
16112TIP3    H169827   2.026   0.441  13.237  1.0301 -0.4653 -0.8302
16112TIP3    H269828   1.885   0.438  13.183  0.7981  1.9544 -0.3953
16113TIP3   OH269829   4.905   6.133  16.678 -0.2390  0.3973  0.6149
16113TIP3    H169830   4.863   6.083  16.749  1.0314 -0.2438  0.9296
16113TIP3    H269831   4.852   6.213  16.671 -2.6278 -1.1997 -0.2628
16114TIP3   OH269832   6.379   6.120  10.562 -0.3524 -0.0058  0.1483
16114TIP3    H169833   6.289   6.089  10.559 -0.6001  0.5273  2.0845
16114TIP3    H269834   6.372   6.215  10.562  0.2114  0.0352  0.6771
16115TIP3   OH269835   4.130   4.027  11.660 -0.4393 -0.0966  0.3562
16115TIP3    H169836   4.068   3.962  11.695 -0.6994 -0.4170 -0.6886
16115TIP3    H269837   4.212   4.008  11.704 -0.1683 -2.0084 -0.9396
16116TIP3   OH269838   1.832   2.178  13.224  0.1027 -0.6640  0.2588
16116TIP3    H169839   1.809   2.266  13.256 -0.7632 -0.4281 -0.9351
16116TIP3    H269840   1.867   2.133  13.300 -1.5075  0.0082  1.4331
16117TIP3   OH269841   3.867   0.499   4.706 -0.2377  0.0882  0.0717
16117TIP3    H169842   3.952   0.462   4.681  0.0100 -0.7841  2.0654
16117TIP3    H269843   3.824   0.517   4.623  0.8437 -1.9575 -0.9960
16118TIP3   OH269844   5.926   6.162  13.398  0.1056  0.1713  0.3077
16118TIP3    H169845   5.853   6.221  13.376  0.6267  0.5267 -0.4859
16118TIP3    H269846   5.998   6.192  13.343  0.2974 -1.3933 -0.3318
16119TIP3   OH269847   3.247   2.281   1.047 -0.5673 -0.2067  0.3940
16119TIP3    H169848   3.291   2.261   0.964 -0.4997  0.2757  0.3125
16119TIP3    H269849   3.228   2.375   1.042 -1.1349 -0.3103  0.6527
16120TIP3   OH269850   0.864   0.631  16.011  0.2002 -0.0690  0.1909
16120TIP3    H169851   0.902   0.625  16.099 -0.3393  1.7600  0.5760
16120TIP3    H269852   0.939   0.630  15.952  0.6655  0.2900  0.7746
16121TIP3   OH269853   4.488   6.575  15.832 -0.4613 -0.3776 -0.0900
16121TIP3    H169854   4.488   6.669  15.816 -1.6669 -0.3235  0.1615
16121TIP3    H269855   4.581   6.550  15.834 -0.1507  0.7313 -0.5425
16122TIP3   OH269856   0.311   6.550  12.038 -0.1628  0.3428 -0.2182
16122TIP3    H169857   0.266   6.530  12.119 -1.0793  1.1918 -0.5159
16122TIP3    H269858   0.257   6.510  11.970  0.3448  0.0501 -0.4517
16123TIP3   OH269859   3.218   3.311   2.802 -0.0892  0.3589 -0.0300
16123TIP3    H169860   3.207   3.384   2.740  0.2572  0.6651  0.2680
16123TIP3    H269861   3.142   3.255   2.785 -0.0791  0.5138 -0.6326
16124TIP3   OH269862   5.262   0.312   4.054 -0.5279 -0.2296  0.3137
16124TIP3    H169863   5.286   0.389   4.003  1.5021 -1.7272 -1.0515
16124TIP3    H269864   5.259   0.241   3.991 -2.8335 -1.2272  1.4818
16125TIP3   OH269865   0.138   0.168   2.984 -0.5433  0.4903  0.7994
16125TIP3    H169866   0.132   0.086   2.935  0.1055  0.4809  0.7302
16125TIP3    H269867   0.053   0.177   3.027 -0.5533 -0.3007  0.9444
16126TIP3   OH269868   0.235   3.599   2.857 -0.2408 -0.0929 -0.0931
16126TIP3    H169869   0.274   3.513   2.872  1.0623  0.5722  0.4189
16126TIP3    H269870   0.213   3.599   2.764  0.9112 -0.5260 -0.3868
16127TIP3   OH269871   6.778   0.867  10.719 -0.1696 -0.0628  0.8316
16127TIP3    H169872   6.727   0.908  10.649  0.1161  0.1650  0.7573
16127TIP3    H269873   6.808   0.784  10.682  0.6516  0.4162  0.4014
16128TIP3   OH269874   4.611   0.573  16.792  0.2853  0.7136  0.6538
16128TIP3    H169875   4.628   0.649  16.848 -1.5072  1.6259  0.0035
16128TIP3    H269876   4.618   0.607  16.703 -1.3649  0.3170  0.3619
16129TIP3   OH269877   3.078   2.178  16.567 -0.3714  0.1359  0.3076
16129TIP3    H169878   3.095   2.247  16.503 -0.7240 -0.5115 -0.4843
16129TIP3    H269879   3.067   2.225  16.650 -2.7075  1.2546 -0.5759
16130TIP3   OH269880   0.728   0.285  11.864 -0.1891  0.7504  0.1448
16130TIP3    H169881   0.818   0.270  11.894  0.0982  1.5362 -0.3001
16130TIP3    H269882   0.711   0.377  11.885 -0.9348  0.5732  0.3320
16131TIP3   OH269883   6.023   2.524   6.412  0.1566 -0.3988 -0.5622
16131TIP3    H169884   6.089   2.463   6.381  0.3921  0.8990 -2.7125
16131TIP3    H269885   5.947   2.469   6.430  0.1383 -1.3029 -3.1101
16132TIP3   OH269886   4.751   6.115   5.120  0.6335 -0.0730  0.2495
16132TIP3    H169887   4.735   6.179   5.189  2.5218  0.1981  0.4716
16132TIP3    H269888   4.671   6.063   5.115  0.3305  0.1807  2.3540
16133TIP3   OH269889   3.573   3.786   5.096  0.2232  0.1113  0.1417
16133TIP3    H169890   3.557   3.852   5.029  2.8103 -0.1283 -0.7514
16133TIP3    H269891   3.587   3.837   5.176  2.8054  0.7036 -0.6600
16134TIP3   OH269892   0.611   1.473   3.583  0.6604 -0.7814  0.0146
16134TIP3    H169893   0.639   1.491   3.673  0.4770  1.3631 -0.3125
16134TIP3    H269894   0.628   1.555   3.536 -1.2029 -1.1725 -1.4156
16135TIP3   OH269895   2.532   3.935  14.158 -0.2427 -0.5380 -0.2326
16135TIP3    H169896   2.509   3.920  14.067  0.2727  0.5606 -0.5541
16135TIP3    H269897   2.612   3.884  14.171 -1.5925 -2.5695  0.2697
16136TIP3   OH269898   4.807   6.225   2.309  0.6560  0.5798  0.5289
16136TIP3    H169899   4.872   6.189   2.250 -1.4216 -2.5135  0.0019
16136TIP3    H269900   4.736   6.255   2.252  0.5737  1.7991  1.2370
16137TIP3   OH269901   4.457   2.090   1.005  0.1258  0.2742  0.1448
16137TIP3    H169902   4.388   2.139   1.051  0.7225  0.3201  1.0065
16137TIP3    H269903   4.538   2.134   1.029  0.3479  1.1644 -2.1058
16138TIP3   OH269904   0.098   0.798   3.002 -0.1682  0.3894  0.0126
16138TIP3    H169905   0.176   0.851   3.017  0.4692 -0.2340 -1.0552
16138TIP3    H269906   0.116   0.715   3.045  0.0034  0.0383 -0.7251
16139TIP3   OH269907   6.184   6.364  16.505  0.0922 -0.0245 -0.8249
16139TIP3    H169908   6.178   6.280  16.549  0.3524 -0.1256 -0.9803
16139TIP3    H269909   6.140   6.426  16.564  0.5415 -0.1372 -0.3667
16140TIP3   OH269910   1.839   5.685  16.870  0.2787 -0.0961  0.6554
16140TIP3    H169911   1.769   5.675  16.805  0.0252 -0.8987  1.0546
16140TIP3    H269912   1.828   5.775  16.902  2.0961  1.3143 -2.3589
16141TIP3   OH269913   4.648   2.362   0.978  0.3958  0.2903  0.1316
16141TIP3    H169914   4.733   2.388   1.013  0.2070  1.5370 -0.3164
16141TIP3    H269915   4.668   2.316   0.897  0.6406  0.6775 -0.0288
16142TIP3   OH269916   5.279   1.320   1.305  0.0910  0.1826 -0.5187
16142TIP3    H169917   5.198   1.344   1.351  0.5497  1.9216 -0.5988
16142TIP3    H269918   5.272   1.364   1.221  1.5657  1.1850 -0.1417
16143TIP3   OH269919   3.334   3.150   5.291 -0.4578 -0.0227  0.3795
16143TIP3    H169920   3.429   3.160   5.286 -0.3778 -0.3890  1.0546
16143TIP3    H269921   3.321   3.071   5.344 -1.1270 -0.6146 -0.6704
16144TIP3   OH269922   4.915   6.052   0.169 -0.0766 -0.0898  0.3188
16144TIP3    H169923   4.852   6.002   0.116 -1.6929  0.7910  1.3558
16144TIP3    H269924   4.889   6.144   0.155  1.7024  0.3521 -0.1359
16145TIP3   OH269925   3.013   6.511   0.744  0.5477  1.0599 -0.2752
16145TIP3    H169926   3.051   6.424   0.760  0.1762  1.0793  0.7964
16145TIP3    H269927   2.939   6.494   0.686 -1.2990  0.2359  2.2052
16146TIP3   OH269928   4.760   3.495   5.125 -0.0703 -0.4050 -0.1397
16146TIP3    H169929   4.754   3.404   5.095 -1.3632 -0.3105 -0.1877
16146TIP3    H269930   4.817   3.537   5.061 -3.4306 -0.0157 -3.0411
16147TIP3   OH269931   3.452   1.536  10.798  0.1119  0.7547  0.6388
16147TIP3    H169932   3.477   1.540  10.706  2.1059  0.4481  1.1323
16147TIP3    H269933   3.471   1.623  10.832 -0.3234  0.7753  0.8294
16148TIP3   OH269934   4.626   2.270  12.096  0.3389 -0.8176 -0.2617
16148TIP3    H169935   4.641   2.331  12.168  1.3758 -1.0693 -0.2526
16148TIP3    H269936   4.642   2.184  12.133 -0.4843 -1.0504 -0.4439
16149TIP3   OH269937   2.071   0.359  14.442  0.4850  0.3018 -0.3017
16149TIP3    H169938   2.100   0.316  14.361 -1.2191 -0.6444 -0.4362
16149TIP3    H269939   2.059   0.287  14.504  1.0489  0.9520  0.5628
16150TIP3   OH269940   2.406   4.226   0.508  0.1090  0.5439 -0.1317
16150TIP3    H169941   2.474   4.222   0.575  0.6568  0.5226 -0.6752
16150TIP3    H269942   2.418   4.312   0.467  0.9886 -0.1702 -1.4276
16151TIP3   OH269943   5.520   4.152  13.926 -0.2261  0.4227  0.3602
16151TIP3    H169944   5.507   4.170  14.019 -0.6161 -0.8014  0.5485
16151TIP3    H269945   5.608   4.183  13.907  0.2716 -0.3547  1.3930
16152TIP3   OH269946   2.988   0.675  15.936 -0.3375  0.1797 -0.2699
16152TIP3    H169947   2.962   0.724  16.014 -0.5690 -0.3735  0.0107
16152TIP3    H269948   2.983   0.583  15.964  1.2759  0.0355 -0.4165
16153TIP3   OH269949   2.230   4.280  17.169 -0.4987 -0.1363 -0.5010
16153TIP3    H169950   2.185   4.363  17.153  1.0736  0.7230 -0.5626
16153TIP3    H269951   2.214   4.228  17.091 -1.0993  0.2752 -0.6561
16154TIP3   OH269952   0.840   1.703  10.717  0.3901  0.4396 -0.5837
16154TIP3    H169953   0.761   1.652  10.704  1.5670 -1.3382 -0.8976
16154TIP3    H269954   0.810   1.794  10.723 -1.6942 -0.2636 -0.2524
16155TIP3   OH269955   4.480   2.114  16.186 -0.0223  0.5707 -0.4433
16155TIP3    H169956   4.396   2.110  16.232  0.1890 -1.3545 -0.1501
16155TIP3    H269957   4.539   2.060  16.239  0.8001  0.1068 -1.7912
16156TIP3   OH269958   4.475   5.819   0.193  0.0715  0.6747 -0.0011
16156TIP3    H169959   4.445   5.735   0.158  2.7852 -0.8135  1.1331
16156TIP3    H269960   4.446   5.818   0.285  0.5111  0.7682  0.1402
16157TIP3   OH269961   0.773   4.393  14.590 -0.6125 -0.2646 -0.0033
16157TIP3    H169962   0.684   4.424  14.609 -0.3934  0.3584 -0.0025
16157TIP3    H269963   0.761   4.326  14.522 -1.1079 -0.3705  0.1884
16158TIP3   OH269964   1.213   1.011  13.664 -0.4737  0.5927 -0.3000
16158TIP3    H169965   1.277   1.080  13.678  1.9100 -1.6158  0.0664
16158TIP3    H269966   1.232   0.947  13.733 -3.5735  0.2190  0.2733
16159TIP3   OH269967   4.151   4.886  11.383 -0.2056  0.0894 -0.5141
16159TIP3    H169968   4.197   4.894  11.299 -0.1975  3.3621 -0.2589
16159TIP3    H269969   4.076   4.945  11.376 -0.8421 -0.4451  1.3770
16160TIP3   OH269970   5.627   3.007   2.332  0.5384  0.5163  0.1207
16160TIP3    H169971   5.665   2.920   2.321  0.6381  1.0174 -4.6887
16160TIP3    H269972   5.698   3.060   2.368  1.4591 -0.6860  0.0949
16161TIP3   OH269973   3.693   6.689  16.567  0.3777  0.0486  0.3116
16161TIP3    H169974   3.621   6.752  16.556  0.9830  1.1999  2.5784
16161TIP3    H269975   3.658   6.606  16.534 -1.0546  1.1844 -1.0751
16162TIP3   OH269976   0.293   0.953   2.215 -0.0613 -0.4528 -0.2439
16162TIP3    H169977   0.218   0.923   2.164  1.6523 -2.5598 -1.6401
16162TIP3    H269978   0.357   0.883   2.207  1.6634  0.7966  1.8382
16163TIP3   OH269979   2.442   4.016  11.522  0.5804 -0.0033  0.5623
16163TIP3    H169980   2.406   4.103  11.503 -1.1780 -0.7359  0.4845
16163TIP3    H269981   2.510   4.004  11.455  1.3524  1.6083  1.0254
16164TIP3   OH269982   0.734   2.108  16.191 -0.4375  0.1137 -0.5422
16164TIP3    H169983   0.659   2.077  16.140 -0.4009 -0.3642 -0.3049
16164TIP3    H269984   0.806   2.049  16.166 -0.5581 -0.4694  0.4847
16165TIP3   OH269985   2.871   0.554  13.755 -0.8363 -0.1694  0.7489
16165TIP3    H169986   2.832   0.641  13.752  0.4072  0.3854  0.0964
16165TIP3    H269987   2.833   0.508  13.681  0.7487  0.8329 -0.7514
16166TIP3   OH269988   5.381   0.900   4.116  0.2997 -0.6736  0.1019
16166TIP3    H169989   5.459   0.846   4.127  0.1976 -1.0579 -0.9854
16166TIP3    H269990   5.351   0.880   4.027  0.0224  0.8614 -0.1550
16167TIP3   OH269991   0.341   3.354   2.807 -0.0057 -0.1691 -0.7159
16167TIP3    H169992   0.429   3.323   2.785 -0.0659  0.0758 -1.3065
16167TIP3    H269993   0.283   3.307   2.747 -0.6499 -2.8791  1.8887
16168TIP3   OH269994   5.689   6.049   3.288  0.1244  1.0546 -0.1357
16168TIP3    H169995   5.668   6.127   3.237  0.5527  1.6436  0.5889
16168TIP3    H269996   5.611   6.034   3.341  0.5424  1.7675  0.6953
16169TIP3   OH269997   5.404   1.676  16.606  0.0149  0.3430  0.6329
16169TIP3    H169998   5.361   1.593  16.625  1.7728 -0.3333  1.8153
16169TIP3    H269999   5.337   1.729  16.563 -1.5794 -1.1446  1.2350
16170TIP3   OH270000   4.007   5.123   1.133  0.0328 -0.5325  0.0698
16170TIP3    H170001   3.920   5.152   1.160  0.4905  0.1460  0.8543
16170TIP3    H270002   4.019   5.038   1.176  1.1451  0.9793  2.8842
16171TIP3   OH270003   6.250   3.341  11.895 -0.3558 -1.0787 -0.4696
16171TIP3    H170004   6.161   3.375  11.899 -0.1141 -0.3566 -1.0390
16171TIP3    H270005   6.283   3.369  11.810  1.7337  2.0607  1.2541
16172TIP3   OH270006   3.442   3.958   0.386  0.2282  0.2559 -0.5770
16172TIP3    H170007   3.349   3.958   0.405  0.3476  0.1424  0.0160
16172TIP3    H270008   3.474   4.043   0.417  0.4092  0.0956 -0.3114
16173TIP3   OH270009   6.102   5.835   1.353 -0.3127  0.0825 -0.0721
16173TIP3    H170010   6.074   5.927   1.355  0.9453  0.6219 -3.5433
16173TIP3    H270011   6.194   5.839   1.330 -0.1722 -2.0876  0.0437
16174TIP3   OH270012   3.417   6.546  13.065 -0.4197  1.2139  0.6881
16174TIP3    H170013   3.400   6.630  13.106  0.4991  1.8837 -0.2737
16174TIP3    H270014   3.395   6.559  12.972  0.2248  0.5510  0.4328
16175TIP3   OH270015   5.392   4.213  14.402  0.2961  0.5078 -0.4879
16175TIP3    H170016   5.434   4.267  14.469  0.1239  0.0735 -0.0271
16175TIP3    H270017   5.414   4.256  14.320  1.1651  0.6062 -0.2123
16176TIP3   OH270018   2.870   4.765   5.454  0.4336  0.0497  0.4868
16176TIP3    H170019   2.858   4.736   5.364 -0.1268 -0.0324  0.5890
16176TIP3    H270020   2.911   4.851   5.447  0.9239 -0.2113  0.1630
16177TIP3   OH270021   1.525   0.206   2.035  0.1763 -0.0171 -0.0402
16177TIP3    H170022   1.502   0.116   2.056 -0.3511 -0.0323 -0.6692
16177TIP3    H270023   1.618   0.203   2.012  0.4110 -0.2272  0.9429
16178TIP3   OH270024   0.603   6.413   2.866 -0.6129 -0.0120  0.1463
16178TIP3    H170025   0.684   6.373   2.834  0.1039  1.8327 -0.4039
16178TIP3    H270026   0.533   6.356   2.834  0.3244 -0.2287 -1.5495
16179TIP3   OH270027   6.439   3.390   2.212  0.1806 -0.2209 -0.1504
16179TIP3    H170028   6.384   3.338   2.271  0.3093  1.4601  1.5118
16179TIP3    H270029   6.381   3.412   2.139 -1.0983  0.7117  1.1079
16180TIP3   OH270030   2.496   0.817  14.258 -0.5376  0.2244 -0.1037
16180TIP3    H170031   2.424   0.877  14.273  0.3127  1.1004  0.6044
16180TIP3    H270032   2.569   0.854  14.309  0.0445 -1.3050  0.2125
16181TIP3   OH270033   5.694   5.491  12.512  0.1310 -0.4141 -0.1972
16181TIP3    H170034   5.734   5.450  12.588  0.7808 -0.0800 -0.3558
16181TIP3    H270035   5.768   5.520  12.458 -0.3137  0.5165 -0.3183
16182TIP3   OH270036   3.472   1.281   2.727  0.5149  0.1442  0.4045
16182TIP3    H170037   3.422   1.309   2.650  1.1685  0.8285  0.2250
16182TIP3    H270038   3.446   1.343   2.796 -0.4757 -0.7930  0.8901
16183TIP3   OH270039   4.657   0.608   4.902 -0.7925 -0.5330 -0.2581
16183TIP3    H170040   4.578   0.615   4.956 -0.7193  1.4269 -0.3729
16183TIP3    H270041   4.728   0.603   4.965 -0.8059  0.5486 -0.1384
16184TIP3   OH270042   5.035   0.195  11.551  0.2480  0.4802 -0.8465
16184TIP3    H170043   5.035   0.122  11.489 -1.5505  0.8772 -1.3211
16184TIP3    H270044   5.038   0.152  11.637  0.3540 -0.1247 -1.1452
16185TIP3   OH270045   3.028   2.639  11.522 -0.4021  0.0251  0.2624
16185TIP3    H170046   3.079   2.568  11.484  0.9090  0.0937  1.8275
16185TIP3    H270047   3.076   2.718  11.497 -0.0304  0.1267  1.2606
16186TIP3   OH270048   2.780   3.591  11.805  0.3957  0.0749  0.4604
16186TIP3    H170049   2.875   3.601  11.806  0.3352  1.0233 -1.0242
16186TIP3    H270050   2.763   3.509  11.850  2.0640 -1.1642 -1.1109
16187TIP3   OH270051   1.801   1.137  12.844  0.8551 -0.2502  0.0724
16187TIP3    H170052   1.706   1.128  12.856  0.8664  0.2687  0.5866
16187TIP3    H270053   1.810   1.205  12.778  0.8554 -0.7705 -0.4607
16188TIP3   OH270054   3.875   1.674  13.251 -0.1658 -0.0315 -0.6751
16188TIP3    H170055   3.818   1.610  13.210 -1.1243 -0.2256  0.9271
16188TIP3    H270056   3.955   1.625  13.273  0.5005  0.1650 -2.6111
16189TIP3   OH270057   6.303   3.983  13.048  0.4415 -0.2439 -0.4597
16189TIP3    H170058   6.260   3.905  13.083  0.5504 -0.1274 -0.0585
16189TIP3    H270059   6.355   3.952  12.974  1.7894 -0.8238  0.6991
16190TIP3   OH270060   0.540   2.930  16.435  0.5407 -0.1389  0.2773
16190TIP3    H170061   0.500   2.935  16.348  0.5849 -0.5685  0.2290
16190TIP3    H270062   0.629   2.899  16.419  0.6282  0.0206  0.4550
16191TIP3   OH270063   4.764   2.820   2.915 -0.3620 -0.3971  0.5133
16191TIP3    H170064   4.847   2.840   2.958 -0.9351  2.1274  0.5187
16191TIP3    H270065   4.787   2.761   2.844  1.1846 -1.1619  1.6345
16192TIP3   OH270066   0.815   4.177  15.206  0.4145  0.3678  0.1262
16192TIP3    H170067   0.803   4.257  15.155 -1.5015  0.0349 -0.0080
16192TIP3    H270068   0.802   4.205  15.297 -0.7705  0.1304  0.0375
16193TIP3   OH270069   5.232   1.646   2.789  0.7793  0.4029 -0.1840
16193TIP3    H170070   5.143   1.642   2.754  1.2902  0.6958 -1.5491
16193TIP3    H270071   5.251   1.556   2.816  0.4354  0.1365 -0.8110
16194TIP3   OH270072   4.182   0.885   2.632  0.3577  0.4663  0.1383
16194TIP3    H170073   4.118   0.956   2.621  0.7876  1.0803  1.5690
16194TIP3    H270074   4.148   0.814   2.576 -0.4293  1.5469 -0.7795
16195TIP3   OH270075   6.168   6.438   5.585 -0.1155 -0.0169  0.0762
16195TIP3    H170076   6.163   6.522   5.539  0.8051  1.1713  2.0808
16195TIP3    H270077   6.100   6.385   5.544  1.3513  0.6048 -3.3546
16196TIP3   OH270078   4.530   4.205  14.915  0.1543  0.3796 -0.1841
16196TIP3    H170079   4.467   4.269  14.948 -0.4016 -0.2598  0.0075
16196TIP3    H270080   4.481   4.153  14.852  0.2431 -0.6765  0.6025
16197TIP3   OH270081   2.884   2.817   2.706  0.4745  0.3541 -0.4544
16197TIP3    H170082   2.848   2.880   2.769 -0.3530 -0.9785  0.4363
16197TIP3    H270083   2.959   2.779   2.751 -0.0182 -0.4802 -0.3206
16198TIP3   OH270084   1.222   1.567   4.446 -0.4599  0.0308 -0.1508
16198TIP3    H170085   1.243   1.549   4.537  0.1540 -0.1272 -0.3199
16198TIP3    H270086   1.127   1.581   4.445 -0.7538 -1.8823  0.1903
16199TIP3   OH270087   0.075   2.284   0.138 -0.1919  0.0381  0.0764
16199TIP3    H170088   0.071   2.264   0.044  1.0165 -0.1755  0.0626
16199TIP3    H270089  -0.009   2.255   0.172 -0.5332 -0.1452 -0.8955
16200TIP3   OH270090   5.529   2.689  13.047 -0.3216 -0.1106  1.0331
16200TIP3    H170091   5.502   2.760  12.989 -0.9198  0.5155  2.0679
16200TIP3    H270092   5.521   2.610  12.993 -1.9229  0.3377  0.5763
16201TIP3   OH270093   4.956   1.269   6.082  0.0224 -0.3709  0.3474
16201TIP3    H170094   5.005   1.305   6.009  0.9061  1.4499  1.8006
16201TIP3    H270095   4.865   1.297   6.067 -0.0802 -1.2938 -0.8205
16202TIP3   OH270096   0.309   4.983   5.628 -0.5829 -0.6476 -0.3069
16202TIP3    H170097   0.318   4.959   5.536 -0.4178 -2.0889  0.0803
16202TIP3    H270098   0.398   5.007   5.655 -0.6003 -0.3903 -0.4773
16203TIP3   OH270099   6.256   4.141   0.966 -0.1814 -0.6604 -0.3697
16203TIP3    H170100   6.294   4.070   1.019  1.6659  0.7850  0.2840
16203TIP3    H270101   6.236   4.099   0.882 -1.3526 -2.5212  0.7795
16204TIP3   OH270102   2.578   4.341   3.319  0.1425  0.7424  0.2018
16204TIP3    H170103   2.493   4.332   3.363 -0.2651  1.1068 -0.5064
16204TIP3    H270104   2.558   4.388   3.238  0.5740 -1.5737 -1.3233
16205TIP3   OH270105   1.054   3.494   5.361  0.6534 -0.4067  0.6564
16205TIP3    H170106   1.078   3.575   5.317 -0.9124  0.8235  2.0460
16205TIP3    H270107   1.127   3.434   5.342  1.5289  1.1168 -0.8697
16206TIP3   OH270108   5.098   0.718  14.385  0.1525  0.1075 -0.6714
16206TIP3    H170109   5.134   0.767  14.458  0.1859  1.0020 -1.2720
16206TIP3    H270110   5.169   0.717  14.320  0.7073 -2.0997 -0.0538
16207TIP3   OH270111   0.233   2.693  14.099  0.2392 -0.5802  1.0146
16207TIP3    H170112   0.247   2.689  14.194  0.3289 -0.7839  0.9924
16207TIP3    H270113   0.249   2.603  14.069  0.5628 -0.4337  0.7570
16208TIP3   OH270114   0.252   4.899  15.279 -0.0866  1.0114 -0.4120
16208TIP3    H170115   0.177   4.943  15.240  0.3769 -0.3899 -3.0070
16208TIP3    H270116   0.226   4.807  15.283  1.6389  0.4505 -1.7154
16209TIP3   OH270117   0.915   3.520   2.313  0.8225  0.1879 -0.2701
16209TIP3    H170118   0.872   3.550   2.233  0.0546 -0.6515 -0.1864
16209TIP3    H270119   0.909   3.425   2.309 -3.0840  0.1478  2.8029
16210TIP3   OH270120   4.123   4.091  16.204 -0.5120  0.1948 -0.1357
16210TIP3    H170121   4.182   4.074  16.130  0.7919 -0.3873  1.0395
16210TIP3    H270122   4.060   4.155  16.169  0.2171  0.0971 -1.6847
16211TIP3   OH270123   3.662   3.781  15.353  0.5468  0.0547 -0.0487
16211TIP3    H170124   3.703   3.865  15.334  2.2488 -0.9736 -1.0278
16211TIP3    H270125   3.721   3.738  15.414 -0.1895 -0.5268  0.2596
16212TIP3   OH270126   4.223   0.409   1.725  0.1566 -0.1742 -0.3862
16212TIP3    H170127   4.214   0.359   1.807 -0.3616 -0.0351 -0.3573
16212TIP3    H270128   4.151   0.379   1.671  0.7512 -0.5766 -0.9667
16213TIP3   OH270129   3.733   6.791   3.879 -0.2755 -0.2337  0.3898
16213TIP3    H170130   3.676   6.714   3.887 -0.2776 -0.0783  1.9315
16213TIP3    H270131   3.676   6.861   3.848 -0.5107 -0.5630  0.0767
16214TIP3   OH270132   0.931   5.306  12.759  0.0121  0.0200  0.2810
16214TIP3    H170133   0.994   5.378  12.749  1.2642 -0.8541  1.5713
16214TIP3    H270134   0.878   5.309  12.680  1.4421  1.0243 -0.6706
16215TIP3   OH270135   6.518   3.870   4.607 -0.0741  0.1529 -0.9036
16215TIP3    H170136   6.521   3.958   4.571  1.3411  0.1812 -0.7602
16215TIP3    H270137   6.469   3.818   4.543 -2.3166  1.3866 -0.2102
16216TIP3   OH270138   2.389   1.504   5.434  0.2422 -0.3254  0.1083
16216TIP3    H170139   2.462   1.551   5.474 -1.4117  1.6115  0.9287
16216TIP3    H270140   2.414   1.495   5.342  1.8284 -0.3449  0.5212
16217TIP3   OH270141   5.520   0.599  13.123 -0.0478 -0.2780 -0.2601
16217TIP3    H170142   5.597   0.617  13.068  0.5487 -1.1841  0.2643
16217TIP3    H270143   5.532   0.656  13.200 -0.8321  0.9159 -1.0101
16218TIP3   OH270144   3.294   4.101  11.667  0.3118 -0.4046  0.1589
16218TIP3    H170145   3.388   4.117  11.659  0.0260  0.7439 -1.0448
16218TIP3    H270146   3.257   4.187  11.686 -0.5997 -0.7093 -0.2528
16219TIP3   OH270147   0.957   3.257   2.341  0.1229  0.3020  0.1061
16219TIP3    H170148   0.970   3.191   2.273 -1.1182  1.2807 -1.1057
16219TIP3    H270149   1.002   3.222   2.418 -2.0250 -2.8388  0.0477
16220TIP3   OH270150   1.093   5.617  15.737 -0.0660  0.1460  0.6788
16220TIP3    H170151   1.051   5.646  15.818  0.1597  2.6951 -0.0792
16220TIP3    H270152   1.058   5.675  15.670  0.6606 -1.1691 -0.8504
16221TIP3   OH270153   2.156   2.429   0.242 -0.2664  0.0041 -0.2547
16221TIP3    H170154   2.153   2.364   0.312 -0.3237 -0.2988 -0.5340
16221TIP3    H270155   2.153   2.377   0.161  0.8618  0.3052 -0.4879
16222TIP3   OH270156   3.199   5.722  14.951  0.0238  0.3926  0.2106
16222TIP3    H170157   3.271   5.781  14.969 -0.0121  0.2715  0.7466
16222TIP3    H270158   3.132   5.778  14.911  1.4485  0.0173 -2.8829
16223TIP3   OH270159   1.697   3.191  12.129  0.2152 -0.4587 -0.5026
16223TIP3    H170160   1.630   3.130  12.162  1.6763 -2.0980 -0.4618
16223TIP3    H270161   1.649   3.252  12.073 -1.4276 -1.1369  0.1354
16224TIP3   OH270162   3.427   5.652  17.263  0.1133  0.4891 -0.1088
16224TIP3    H170163   3.414   5.575  17.319 -0.7886 -0.3953 -1.5038
16224TIP3    H270164   3.483   5.709  17.314 -1.1359 -0.0624  1.9591
16225TIP3   OH270165   2.945   1.215   3.677  0.3268 -0.0094 -0.2581
16225TIP3    H170166   2.994   1.285   3.720 -0.8955  0.7148 -0.0266
16225TIP3    H270167   2.878   1.190   3.741  0.7060 -1.3281 -0.3742
16226TIP3   OH270168   1.542   4.321  11.504 -0.0738 -0.0602  1.0561
16226TIP3    H170169   1.538   4.417  11.499  0.9011 -0.0743 -0.1954
16226TIP3    H270170   1.557   4.303  11.597 -1.5260  0.9419  1.5119
16227TIP3   OH270171   3.163   5.612  17.159  0.0735  0.3015  0.1654
16227TIP3    H170172   3.247   5.644  17.191 -0.0212 -0.4002  1.1658
16227TIP3    H270173   3.182   5.573  17.074  1.2370 -2.0543  1.4482
16228TIP3   OH270174   4.190   5.090   3.384  0.2969 -0.1425  0.3111
16228TIP3    H170175   4.172   5.181   3.408 -1.3980  0.4480 -2.8875
16228TIP3    H270176   4.268   5.095   3.330  1.4194 -0.8932  1.8181
16229TIP3   OH270177   2.571   1.773  14.147  0.7494  0.6075 -0.4426
16229TIP3    H170178   2.497   1.793  14.090  0.3830  0.3679 -0.0459
16229TIP3    H270179   2.534   1.722  14.219  1.4818 -0.5029 -0.8368
16230TIP3   OH270180   1.995   2.384   5.616 -0.5510  0.0431 -0.0918
16230TIP3    H170181   2.026   2.455   5.559 -0.5296  0.1376  0.0395
16230TIP3    H270182   2.051   2.389   5.693 -1.5487  0.8402  0.5807
16231TIP3   OH270183   5.298   3.721   4.720 -0.0300 -0.0516  0.5116
16231TIP3    H170184   5.304   3.634   4.680 -2.3305 -0.1066  0.2082
16231TIP3    H270185   5.328   3.708   4.810 -0.4724 -1.2006  0.4992
16232TIP3   OH270186   3.768   2.473   2.700  0.2099  0.0548 -0.3716
16232TIP3    H170187   3.822   2.521   2.638 -0.0576  0.0938 -0.5723
16232TIP3    H270188   3.680   2.475   2.663  0.3256 -1.1920 -0.7322
16233TIP3   OH270189   0.205   3.582  16.788  0.2907  0.4022  0.3220
16233TIP3    H170190   0.212   3.632  16.707 -1.2792  0.3206  0.1281
16233TIP3    H270191   0.128   3.527  16.776 -0.0369  0.4817  1.9153
16234TIP3   OH270192   3.780   3.848  15.850 -0.4966  0.5155  0.8468
16234TIP3    H170193   3.846   3.889  15.906  1.3101 -0.6012 -0.3827
16234TIP3    H270194   3.822   3.843  15.764 -2.5674  0.6527 -0.2137
16235TIP3   OH270195   6.014   6.781   3.650  0.0588 -0.0430  0.0572
16235TIP3    H170196   5.919   6.785   3.643  0.0950 -1.5965 -1.9685
16235TIP3    H270197   6.044   6.870   3.630 -1.0119  0.8219  2.2207
16236TIP3   OH270198   3.148   1.359   1.098  0.2261  0.0563  0.2080
16236TIP3    H170199   3.153   1.290   1.032  1.2254 -0.2054  0.5423
16236TIP3    H270200   3.173   1.439   1.050  0.0381  0.0241  0.0550
16237TIP3   OH270201   2.487   0.279  16.879 -0.2983 -0.1025 -0.9012
16237TIP3    H170202   2.452   0.211  16.822 -2.1013  1.0668 -1.2525
16237TIP3    H270203   2.446   0.360  16.847  0.5242  0.9081  0.5392
16238TIP3   OH270204   3.900   5.119   5.907  0.2480 -0.0396  0.2295
16238TIP3    H170205   3.951   5.042   5.882 -1.9479 -1.3154 -0.4209
16238TIP3    H270206   3.940   5.191   5.859  1.4312 -1.0040 -0.2546
16239TIP3   OH270207   4.765   3.684  11.996 -0.0450 -0.4213  0.2900
16239TIP3    H170208   4.735   3.657  12.083  1.1242 -0.4238  0.7128
16239TIP3    H270209   4.828   3.754  12.013  1.3451 -1.4557 -0.4358
16240TIP3   OH270210   0.205   5.919   3.954  1.0048  0.5069  0.4433
16240TIP3    H170211   0.129   5.885   4.001  0.8478 -0.3202 -0.3936
16240TIP3    H270212   0.185   6.012   3.940  0.1419  0.2934  0.2258
16241TIP3   OH270213   6.220   3.257   4.964 -0.2740  0.2735  0.0816
16241TIP3    H170214   6.150   3.321   4.975 -0.0199  1.0671 -2.6363
16241TIP3    H270215   6.283   3.278   5.033 -1.2882  1.4968  0.6418
16242TIP3   OH270216   0.713   3.897  17.203  0.5449 -0.0683  0.1805
16242TIP3    H170217   0.755   3.965  17.149 -0.2709  0.4567  0.2051
16242TIP3    H270218   0.765   3.895  17.283 -0.9423  2.3457  1.2585
16243TIP3   OH270219   0.853   4.491  14.244 -0.1945 -0.5924  0.0003
16243TIP3    H170220   0.786   4.558  14.233  0.8900  0.4783 -0.2501
16243TIP3    H270221   0.832   4.424  14.179  0.3040  0.8275 -1.6441
16244TIP3   OH270222   1.402   2.616   0.519  0.2295 -0.4495 -0.6127
16244TIP3    H170223   1.496   2.630   0.531  0.4063 -2.4902  0.5009
16244TIP3    H270224   1.396   2.549   0.451 -0.3707 -1.4466  0.4097
16245TIP3   OH270225   2.331   5.255  14.757  0.3116 -0.7934  0.1529
16245TIP3    H170226   2.400   5.284  14.697  1.1784 -1.5646  0.7568
16245TIP3    H270227   2.256   5.311  14.736  1.8860  1.8109  1.1964
16246TIP3   OH270228   6.211   5.548  12.334  0.0745  0.3727 -0.0288
16246TIP3    H170229   6.194   5.454  12.323  1.8274  0.1289 -0.7835
16246TIP3    H270230   6.237   5.578  12.247 -0.9992  1.6867  0.0890
16247TIP3   OH270231   2.946   3.730  16.476  0.7560 -0.3204  0.0634
16247TIP3    H170232   2.910   3.713  16.389 -0.1439 -5.0533  1.1946
16247TIP3    H270233   2.923   3.821  16.495 -1.9060 -0.2116 -3.3236
16248TIP3   OH270234   2.998   5.399  13.006 -0.2263 -0.3951  0.4818
16248TIP3    H170235   2.912   5.390  12.964  0.9147 -1.0712 -1.7493
16248TIP3    H270236   3.039   5.472  12.960  1.2093 -1.4314  0.0942
16249TIP3   OH270237   1.409   5.414   2.854 -0.1266  0.1766  0.6559
16249TIP3    H170238   1.388   5.438   2.944 -0.6515  1.4434  0.2016
16249TIP3    H270239   1.419   5.497   2.808  0.9340 -0.4537 -0.2830
16250TIP3   OH270240   0.910   3.870  16.449 -0.4574  0.7911  0.4728
16250TIP3    H170241   0.818   3.897  16.455 -0.6153  0.3802 -0.0771
16250TIP3    H270242   0.959   3.952  16.448 -0.8894  1.0434 -0.3777
16251TIP3   OH270243   6.702   1.107   5.900  0.1888  0.5549  0.5109
16251TIP3    H170244   6.778   1.152   5.938  1.7893 -0.8500 -0.9494
16251TIP3    H270245   6.709   1.018   5.932 -0.6860  0.3367  0.1076
16252TIP3   OH270246   2.450   3.231  10.607 -0.4013  0.0436  0.5033
16252TIP3    H170247   2.421   3.227  10.516 -3.1550 -2.2364  1.4267
16252TIP3    H270248   2.413   3.312  10.641 -1.1577 -0.1625  0.1759
16253TIP3   OH270249   5.825   1.178  16.017  0.2523 -0.3579  0.2185
16253TIP3    H170250   5.751   1.161  15.958  0.2321 -0.8619  0.3818
16253TIP3    H270251   5.893   1.213  15.960  0.1920 -0.7341 -0.0887
16254TIP3   OH270252   3.656   6.426  13.808 -0.2872  0.2546 -0.0544
16254TIP3    H170253   3.629   6.508  13.768  0.1878  0.0536 -0.8110
16254TIP3    H270254   3.575   6.388  13.842 -0.5912  0.7756 -0.1937
16255TIP3   OH270255   0.151   2.117   6.174  0.2315  0.2764 -0.3156
16255TIP3    H170256   0.085   2.051   6.193  0.0491  0.8013  0.8694
16255TIP3    H270257   0.103   2.187   6.130 -0.1072  0.8901  1.0143
16256TIP3   OH270258   3.050   1.271   5.349 -0.2035 -0.1078  0.4270
16256TIP3    H170259   2.965   1.285   5.307  0.1065 -0.7001 -0.4086
16256TIP3    H270260   3.077   1.184   5.320 -0.0191 -0.5695  1.9407
16257TIP3   OH270261   3.649   3.580   1.019  0.8235 -0.1269 -0.1234
16257TIP3    H170262   3.567   3.553   0.979 -0.5679  4.1133 -0.4425
16257TIP3    H270263   3.717   3.541   0.964 -0.9875 -1.7774 -1.2371
16258TIP3   OH270264   6.335   0.854  12.652  0.5734  0.5356 -0.4673
16258TIP3    H170265   6.312   0.773  12.607 -1.2288 -0.5262  2.2526
16258TIP3    H270266   6.276   0.858  12.727  4.3256  1.5467  2.5877
16259TIP3   OH270267   1.661   5.713  13.760 -0.5672  0.1805 -0.2266
16259TIP3    H170268   1.619   5.711  13.846  0.1675 -0.7880  0.1123
16259TIP3    H270269   1.605   5.658  13.705  0.3477 -1.2376  0.2649
16260TIP3   OH270270   3.921   0.849  16.054  0.3015 -0.2645 -0.5840
16260TIP3    H170271   3.839   0.801  16.059 -1.4435  2.5786 -0.8027
16260TIP3    H270272   3.961   0.821  15.971 -2.8347  1.8902 -2.9316
16261TIP3   OH270273   6.457   3.133  17.172  0.2460 -0.3362 -0.3237
16261TIP3    H170274   6.453   3.229  17.181  0.5729 -0.3552  0.0371
16261TIP3    H270275   6.379   3.111  17.121  0.6046  0.2082 -1.1268
16262TIP3   OH270276   6.238   0.960   2.202  0.6890  0.1104 -0.3127
16262TIP3    H170277   6.186   0.897   2.151  2.2235 -1.6546  0.2631
16262TIP3    H270278   6.178   0.989   2.271 -0.1619 -0.3865 -0.8212
16263TIP3   OH270279   1.835   4.322  17.145  0.1066 -0.1578 -0.2390
16263TIP3    H170280   1.790   4.368  17.216  1.8307  0.4737  0.4738
16263TIP3    H270281   1.913   4.375  17.129 -0.3554 -0.1845 -2.7624
16264TIP3   OH270282   6.430   3.118  13.522 -0.1906 -0.2388 -0.3450
16264TIP3    H170283   6.384   3.048  13.568  0.1605  0.8011  1.6517
16264TIP3    H270284   6.372   3.140  13.449 -1.0726 -1.5000 -0.0582
16265TIP3   OH270285   3.573   4.982  15.130  0.3195  0.0406  0.3561
16265TIP3    H170286   3.573   5.010  15.221 -0.2202  1.9026 -0.1748
16265TIP3    H270287   3.530   5.055  15.083  2.8563  0.2743 -1.7169
16266TIP3   OH270288   2.961   6.095  12.852 -0.2086 -0.6013 -0.3787
16266TIP3    H170289   2.920   6.182  12.853 -0.8694 -0.8870 -1.7580
16266TIP3    H270290   2.946   6.062  12.763 -0.2887 -2.2812  0.2349
16267TIP3   OH270291   5.103   5.091   5.563 -0.5520 -0.1591  0.4470
16267TIP3    H170292   5.171   5.026   5.547 -1.1208 -1.1092  1.7801
16267TIP3    H270293   5.029   5.041   5.596 -1.1034  1.1292  1.2044
16268TIP3   OH270294   2.427   6.507   0.673 -0.0722  0.1216  0.3682
16268TIP3    H170295   2.346   6.459   0.660 -0.7612  0.7975  1.9947
16268TIP3    H270296   2.481   6.451   0.729  0.4853 -0.2225 -0.5106
16269TIP3   OH270297   4.044   1.649   0.034 -0.4430 -0.1329  0.5089
16269TIP3    H170298   4.094   1.724   0.066  0.4464 -0.5858  0.1999
16269TIP3    H270299   4.003   1.613   0.112 -0.8463  0.6531  0.6650
16270TIP3   OH270300   0.940   5.700   5.304 -0.6539  0.0790 -0.1583
16270TIP3    H170301   0.899   5.758   5.368  1.9699  0.3528  1.3072
16270TIP3    H270302   1.011   5.751   5.266  0.4576 -1.5206 -0.2574
16271TIP3   OH270303   3.770   6.445  14.192  0.4895 -0.4414  0.2594
16271TIP3    H170304   3.790   6.425  14.101  0.8465 -0.1439  0.2700
16271TIP3    H270305   3.811   6.530  14.207 -1.7894  0.7466 -0.0556
16272TIP3   OH270306   3.901   4.766   3.408  0.1684  0.2428  0.0991
16272TIP3    H170307   3.893   4.745   3.315 -0.5029 -0.1188  0.2320
16272TIP3    H270308   3.940   4.688   3.447 -1.9375 -0.6366  0.5257
16273TIP3   OH270309   3.439   0.002  12.190 -0.2475  0.3296 -0.0696
16273TIP3    H170310   3.383  -0.073  12.169  1.4479 -0.5946 -1.4097
16273TIP3    H270311   3.423   0.018  12.283  0.6013 -2.7733  0.6676
16274TIP3   OH270312   1.266   5.883   1.739 -0.0915  0.2480  0.2297
16274TIP3    H170313   1.252   5.882   1.834 -0.8300  1.0727  0.1328
16274TIP3    H270314   1.345   5.936   1.728  1.8217 -2.3861  0.5878
16275TIP3   OH270315   2.570   4.245   0.744  0.8301  0.2333 -0.8303
16275TIP3    H170316   2.570   4.177   0.811  0.4237  0.0123 -1.0570
16275TIP3    H270317   2.649   4.296   0.762 -0.2289  1.2708  0.9337
16276TIP3   OH270318   0.363   1.406  11.599 -0.1706  0.7628  0.0842
16276TIP3    H170319   0.393   1.350  11.528 -0.3282  0.6202  0.1293
16276TIP3    H270320   0.328   1.345  11.665  0.9356  0.8338  0.7479
16277TIP3   OH270321   1.723   2.446  13.854 -0.1386  1.1821  0.0070
16277TIP3    H170322   1.810   2.485  13.848  0.0482  1.0061  1.3412
16277TIP3    H270323   1.687   2.482  13.935 -0.6940  0.0501  0.2700
16278TIP3   OH270324   3.660   1.571   2.171  0.3586 -0.3530  0.1157
16278TIP3    H170325   3.578   1.522   2.171  0.8366 -1.1663  1.1386
16278TIP3    H270326   3.633   1.661   2.192 -0.3724 -0.4060 -0.5470
16279TIP3   OH270327   3.090   0.448   1.900  0.1275  0.0461 -0.2098
16279TIP3    H170328   3.184   0.464   1.892  0.3069  0.3886  2.0819
16279TIP3    H270329   3.049   0.534   1.889  0.0709 -0.1055 -1.2234
16280TIP3   OH270330   4.531   2.945   5.145 -0.1910 -0.0584  0.2385
16280TIP3    H170331   4.445   2.968   5.180  0.5126  1.9940  0.7308
16280TIP3    H270332   4.534   2.987   5.059  0.9531  1.4200  0.9628
16281TIP3   OH270333   3.906   1.240   1.306  0.2097  0.1306  0.0640
16281TIP3    H170334   3.925   1.332   1.289  0.2087  0.2249  0.5677
16281TIP3    H270335   3.847   1.241   1.382  1.9048 -0.3784  1.4390
16282TIP3   OH270336   1.349   5.256   0.050  0.0826 -0.4907  0.1772
16282TIP3    H170337   1.358   5.259  -0.046 -0.6316 -1.3913  0.0717
16282TIP3    H270338   1.287   5.185   0.065 -0.0959 -0.0968  1.2957
16283TIP3   OH270339   5.996   3.398  15.576  0.1088  0.2703  0.2231
16283TIP3    H170340   6.073   3.453  15.558 -0.5631  1.3579  0.6562
16283TIP3    H270341   5.971   3.420  15.665  0.1493 -1.1500  0.5991
16284TIP3   OH270342   5.024   1.153   2.165 -0.4594 -0.6252  0.2243
16284TIP3    H170343   5.038   1.113   2.079 -1.3421 -0.5721  0.0506
16284TIP3    H270344   5.077   1.232   2.163  2.5544 -2.5175  1.1379
16285TIP3   OH270345   2.786   3.997  15.819  0.4568  0.3076 -0.1687
16285TIP3    H170346   2.815   3.909  15.845  1.1213  1.0834  1.7787
16285TIP3    H270347   2.866   4.041  15.791  0.3074  0.6736 -0.0133
16286TIP3   OH270348   1.094   5.848   0.796  0.5742  0.3853 -0.4109
16286TIP3    H170349   1.023   5.870   0.736  0.6469 -0.2396 -0.7309
16286TIP3    H270350   1.050   5.818   0.875  0.4754  1.7448  0.0563
16287TIP3   OH270351   0.903   1.472  13.286  0.1522 -0.1835 -0.0643
16287TIP3    H170352   0.986   1.439  13.321  0.7647  0.2056 -1.1289
16287TIP3    H270353   0.872   1.402  13.228 -1.4955 -1.3804  2.1563
16288TIP3   OH270354   1.640   2.281   5.062  0.4389  0.0353 -0.2150
16288TIP3    H170355   1.681   2.289   4.975  1.6264 -2.3125  0.0740
16288TIP3    H270356   1.703   2.230   5.113 -0.3537  1.2067  1.9740
16289TIP3   OH270357   5.454   3.585   1.480  0.0099 -0.2050  0.3700
16289TIP3    H170358   5.385   3.523   1.505  0.4091 -0.5588  0.6014
16289TIP3    H270359   5.449   3.589   1.384 -0.5535  0.0298  0.4052
16290TIP3   OH270360   5.339   1.765  11.457  0.6868  0.4867 -0.0465
16290TIP3    H170361   5.419   1.804  11.492  0.0686  1.8446 -0.1236
16290TIP3    H270362   5.343   1.673  11.484  2.7192  0.3131 -0.8205
16291TIP3   OH270363   1.881   3.842  15.508 -0.1634 -0.9889  0.3923
16291TIP3    H170364   1.899   3.789  15.430 -1.2346 -0.6273 -0.1080
16291TIP3    H270365   1.942   3.809  15.574  1.4052 -0.6671 -0.8690
16292TIP3   OH270366   4.998   5.370   6.009  0.0157  0.1956  0.1953
16292TIP3    H170367   5.002   5.397   6.100  0.2770 -0.3292  0.3454
16292TIP3    H270368   5.010   5.275   6.012 -1.6356 -0.0435 -0.2556
16293TIP3   OH270369   2.824   0.980  17.290 -0.2907 -0.2889  0.6260
16293TIP3    H170370   2.831   1.006  17.198 -1.7107  2.1128  1.1218
16293TIP3    H270371   2.821   0.885  17.288 -0.9500 -0.2681 -1.8893
16294TIP3   OH270372   5.496   0.652  12.701 -0.2654  0.3776 -0.0555
16294TIP3    H170373   5.475   0.708  12.776  1.9550  3.0320 -1.3197
16294TIP3    H270374   5.441   0.686  12.630  1.1559  1.0219 -0.8553
16295TIP3   OH270375   0.387   6.314   5.690  0.0726 -0.1698 -0.0034
16295TIP3    H170376   0.456   6.298   5.626  0.6020 -1.0292  0.7691
16295TIP3    H270377   0.306   6.313   5.639  0.6540  1.3222 -0.9916
16296TIP3   OH270378   5.488   1.217  11.811  0.0363 -0.2762  0.2816
16296TIP3    H170379   5.398   1.187  11.799 -0.8060  2.3333 -0.4004
16296TIP3    H270380   5.502   1.212  11.905 -1.8174  1.8192  0.7250
16297TIP3   OH270381   2.055   5.709   0.021  0.5155 -0.0140  0.7436
16297TIP3    H170382   2.137   5.686  -0.023  0.9638 -1.0774  2.1018
16297TIP3    H270383   1.996   5.635   0.001 -0.1627  0.7883 -0.3085
16298TIP3   OH270384   5.517   4.256   5.789  0.0736  0.2319  0.0797
16298TIP3    H170385   5.577   4.330   5.777  0.6750 -0.1335  0.7867
16298TIP3    H270386   5.445   4.293   5.840  1.4783 -0.1932  2.4713
16299TIP3   OH270387   4.537   5.150  16.755 -0.5642 -0.5000 -0.3570
16299TIP3    H170388   4.569   5.067  16.720 -1.1651 -0.7543 -0.3123
16299TIP3    H270389   4.616   5.203  16.767 -0.0825 -1.3866  0.4650
16300TIP3   OH270390   0.248   1.971  10.831 -1.0968  0.1936  0.0603
16300TIP3    H170391   0.180   1.934  10.774 -1.0197 -0.2190  0.2380
16300TIP3    H270392   0.230   2.065  10.831  0.7144  0.6112 -3.0507
16301TIP3   OH270393   4.259   0.365  15.033  0.4352  0.0749  0.8895
16301TIP3    H170394   4.313   0.309  14.978  0.9888  0.9450  0.5283
16301TIP3    H270395   4.306   0.448  15.036 -0.4893  0.5979  1.2158
16302TIP3   OH270396   1.330   6.436  16.768  0.0595  0.5264  0.0264
16302TIP3    H170397   1.358   6.520  16.731 -0.9371 -0.5664 -3.3793
16302TIP3    H270398   1.399   6.375  16.743 -1.1020 -0.4290 -0.8605
16303TIP3   OH270399   2.481   5.722   3.532  0.0842 -0.3274  0.4642
16303TIP3    H170400   2.392   5.709   3.565 -0.2015  0.8381  0.1900
16303TIP3    H270401   2.527   5.641   3.555 -1.3990 -1.4986 -0.6171
16304TIP3   OH270402   5.821   3.973  15.084 -0.5761  0.2806 -0.4459
16304TIP3    H170403   5.880   4.007  15.017 -0.9899 -0.1521 -1.0411
16304TIP3    H270404   5.733   3.987  15.047 -0.7918 -0.2543 -0.1373
16305TIP3   OH270405   6.802   6.640   1.450  0.0458  0.1795 -0.2433
16305TIP3    H170406   6.709   6.661   1.438  0.5331  2.3500 -0.3726
16305TIP3    H270407   6.823   6.585   1.374 -1.5269 -1.7788  0.6777
16306TIP3   OH270408   4.562   1.692  11.426  0.2872 -0.8026 -0.7477
16306TIP3    H170409   4.551   1.623  11.492 -1.0116 -0.0288 -0.1424
16306TIP3    H270410   4.616   1.758  11.470 -3.4550  1.3348  0.8276
16307TIP3   OH270411   6.235   1.865   3.730 -0.1957 -0.1852  0.6503
16307TIP3    H170412   6.155   1.854   3.781 -1.7470 -0.0728 -1.6665
16307TIP3    H270413   6.238   1.789   3.672  0.7139  0.4299 -0.1353
16308TIP3   OH270414   3.497   0.754   3.897 -0.0880  0.3837 -0.1593
16308TIP3    H170415   3.403   0.755   3.915 -0.5451 -0.7459 -2.2492
16308TIP3    H270416   3.529   0.674   3.940 -0.0545  0.8128  0.6225
16309TIP3   OH270417   3.610   2.926   4.153  0.3449 -0.6856 -0.2029
16309TIP3    H170418   3.547   2.879   4.208  0.4241  0.3974  0.8150
16309TIP3    H270419   3.577   3.015   4.148  2.8429  0.4531  2.0723
16310TIP3   OH270420   1.085   3.232  17.223  0.0739  0.6541 -0.1133
16310TIP3    H170421   1.018   3.190  17.278 -1.1562  1.2853 -1.1144
16310TIP3    H270422   1.156   3.252  17.284 -1.2065  1.2053  1.2271
16311TIP3   OH270423   6.481   5.424   3.821  0.6047 -0.2758 -0.1634
16311TIP3    H170424   6.478   5.474   3.903 -0.7112 -1.8621  0.8037
16311TIP3    H270425   6.574   5.406   3.808  0.7687 -0.6865  1.4420
16312TIP3   OH270426   1.426   6.766   2.965  0.2759  0.3608 -0.4489
16312TIP3    H170427   1.356   6.703   2.985 -1.2927  1.6723 -1.7023
16312TIP3    H270428   1.412   6.788   2.872  2.1655  0.8742 -0.6216
16313TIP3   OH270429   0.261   1.720   5.844 -0.0622 -1.0532 -0.1737
16313TIP3    H170430   0.238   1.759   5.929 -1.7184 -2.1426 -0.0803
16313TIP3    H270431   0.241   1.789   5.780 -2.4698 -1.4900  0.0298
16314TIP3   OH270432   4.550   2.472  12.317  0.8393  0.1133  0.3729
16314TIP3    H170433   4.575   2.564  12.310  0.7567  0.4320  3.4097
16314TIP3    H270434   4.466   2.466  12.271  0.9615  1.5023 -0.0417
16315TIP3   OH270435   4.292   5.888  10.973  0.3794 -0.1519  0.3310
16315TIP3    H170436   4.200   5.862  10.971  0.2593  0.2835  0.1198
16315TIP3    H270437   4.294   5.972  10.927  0.3968  1.3200  2.9263
16316TIP3   OH270438   4.659   5.888  11.724 -0.2275 -0.2722  0.0224
16316TIP3    H170439   4.565   5.884  11.705 -0.4942  0.0531  1.1934
16316TIP3    H270440   4.688   5.972  11.689 -0.5098 -0.1070  0.1782
16317TIP3   OH270441   3.740   2.764  15.992  0.1724 -0.3327 -0.1721
16317TIP3    H170442   3.663   2.770  16.048 -1.5544  0.8842 -2.5956
16317TIP3    H270443   3.735   2.677  15.953  0.7752 -0.7554  0.6644
16318TIP3   OH270444   5.883   0.986   2.973  0.1520  0.1158  0.1500
16318TIP3    H170445   5.797   1.022   2.949  0.1552  2.7134  3.6675
16318TIP3    H270446   5.883   0.986   3.069  3.1337 -2.2993  0.2210
16319TIP3   OH270447   5.032   2.832   4.620  0.3106  0.0491 -0.3954
16319TIP3    H170448   5.077   2.883   4.553 -0.2428 -0.4201 -1.1393
16319TIP3    H270449   5.096   2.766   4.647  0.9240  0.9483  0.3545
16320TIP3   OH270450   2.945   4.559  12.701 -0.0289  0.3128 -0.5107
16320TIP3    H170451   3.033   4.582  12.670  0.1620  2.0943  1.2308
16320TIP3    H270452   2.946   4.464  12.706  1.6734  0.2839 -0.9056
16321TIP3   OH270453   6.683   3.763   3.189 -0.0569 -0.3411 -0.2651
16321TIP3    H170454   6.730   3.727   3.113  2.6367 -1.0747  1.6478
16321TIP3    H270455   6.612   3.701   3.205  1.1898 -1.8525 -0.3910
16322TIP3   OH270456   4.575   5.424   4.700  0.1017 -0.0175  0.1319
16322TIP3    H170457   4.638   5.444   4.632  1.2027 -1.1897  0.7881
16322TIP3    H270458   4.592   5.333   4.723  0.2660  0.5609  2.4951
16323TIP3   OH270459   6.642   2.366   1.780  0.2449  0.5100 -0.0785
16323TIP3    H170460   6.708   2.430   1.805 -0.9915  1.8499 -0.1877
16323TIP3    H270461   6.659   2.291   1.837  0.8657  1.4548  1.0013
16324TIP3   OH270462   2.214   2.729   2.736  0.0245 -0.1596 -0.0981
16324TIP3    H170463   2.121   2.749   2.722 -0.2469  0.0800  1.9011
16324TIP3    H270464   2.259   2.812   2.723 -0.0562 -0.2096 -0.7500
16325TIP3   OH270465   6.714   0.251   3.111  0.1313 -0.4229  0.2263
16325TIP3    H170466   6.735   0.325   3.167  0.0748 -0.8146  0.7627
16325TIP3    H270467   6.672   0.290   3.034  0.4720  0.1344  0.3215
16326TIP3   OH270468   4.127   6.207  11.939  0.0277  0.2698 -0.1667
16326TIP3    H170469   4.114   6.246  12.026 -1.3846  0.0564 -0.2742
16326TIP3    H270470   4.047   6.227  11.891  0.2910 -0.6812 -1.0182
16327TIP3   OH270471   0.643   0.428   3.060  0.8325  0.1036 -0.1024
16327TIP3    H170472   0.556   0.446   3.094  0.1169  1.4460 -2.5221
16327TIP3    H270473   0.636   0.341   3.021  0.9399 -0.3215  0.8096
16328TIP3   OH270474   1.818   2.935   0.454 -0.1812  0.7420 -0.6364
16328TIP3    H170475   1.765   2.907   0.379  2.0889  1.5565 -2.6150
16328TIP3    H270476   1.833   3.028   0.439  0.5972  0.8367  0.6676
16329TIP3   OH270477   0.568   3.000  15.890 -0.6823  0.1216  0.3551
16329TIP3    H170478   0.510   2.925  15.903 -0.2181 -0.0443  1.5085
16329TIP3    H270479   0.595   2.993  15.798 -0.2498 -1.4061  0.5781
16330TIP3   OH270480   1.323   6.007   2.276 -0.3171  0.3675  0.4355
16330TIP3    H170481   1.380   6.020   2.200 -0.8577  0.9764  0.1302
16330TIP3    H270482   1.238   5.983   2.238 -0.2375 -0.7018  0.8872
16331TIP3   OH270483   1.069   2.338  13.703 -0.2853  0.7058  0.4734
16331TIP3    H170484   1.046   2.419  13.657 -1.1668  0.1679 -0.0339
16331TIP3    H270485   1.134   2.366  13.768  2.1415  1.2328 -2.0587
16332TIP3   OH270486   5.334   5.845   2.269  0.2773 -0.5357 -0.1051
16332TIP3    H170487   5.361   5.936   2.258 -2.3319  0.1081 -1.7505
16332TIP3    H270488   5.325   5.833   2.363  1.1047  0.7418  0.1443
16333TIP3   OH270489   1.335   2.287   5.544  0.4582 -0.1528  0.3833
16333TIP3    H170490   1.337   2.365   5.487  2.2203  0.1963  0.8879
16333TIP3    H270491   1.302   2.320   5.627  2.0548  0.2852  0.8746
16334TIP3   OH270492   1.503   3.353  11.617  0.4164 -0.2489  0.0011
16334TIP3    H170493   1.516   3.447  11.630 -0.6608 -0.0357 -0.4637
16334TIP3    H270494   1.464   3.322  11.699 -0.3018 -0.0794 -0.2736
16335TIP3   OH270495   2.198   4.084   4.970  0.1376 -1.0365  0.6084
16335TIP3    H170496   2.183   4.070   4.876 -0.6776 -0.6250  0.6764
16335TIP3    H270497   2.247   4.166   4.974 -1.2363 -0.2007  0.6302
16336TIP3   OH270498   6.535   2.849  13.314  0.6044  0.1816  0.2770
16336TIP3    H170499   6.584   2.849  13.396  3.0921 -0.3089 -1.1385
16336TIP3    H270500   6.514   2.941  13.298  0.6734  0.3477  1.1481
16337TIP3   OH270501   3.109   5.258   0.729  0.1985  0.6056 -0.2126
16337TIP3    H170502   3.202   5.281   0.725  0.0132  1.4479  0.3663
16337TIP3    H270503   3.073   5.313   0.799 -0.4618 -0.6686  0.4624
16338TIP3   OH270504   2.333   6.045  12.645 -0.1618 -0.1251  0.5788
16338TIP3    H170505   2.413   6.048  12.593  0.0951 -0.6165  0.9439
16338TIP3    H270506   2.264   6.078  12.586  0.1430 -0.5819 -0.0323
16339TIP3   OH270507   2.570   3.880  15.648  0.0960  0.0161 -1.0625
16339TIP3    H170508   2.552   3.832  15.729 -0.7695 -1.9774 -2.3867
16339TIP3    H270509   2.655   3.921  15.662  0.8348 -1.9029  0.1475
16340TIP3   OH270510   5.643   0.712   1.447  0.0997  0.2962  0.3948
16340TIP3    H170511   5.576   0.690   1.512 -0.8992  1.2511 -0.2879
16340TIP3    H270512   5.604   0.782   1.395  1.4066  0.4576 -0.4003
16341TIP3   OH270513   3.536   3.176   4.496  0.1248  0.3823  0.2870
16341TIP3    H170514   3.626   3.191   4.464  0.3699 -0.2018  0.6991
16341TIP3    H270515   3.491   3.137   4.422  0.2295  0.6216  0.0956
16342TIP3   OH270516   3.968   2.924  13.820  0.6967  0.0408  0.1196
16342TIP3    H170517   3.886   2.973  13.827  0.9291  0.4839 -0.2512
16342TIP3    H270518   4.036   2.985  13.846  0.9134 -0.3241  0.4165
16343TIP3   OH270519   0.075   3.754  14.368 -0.3613 -0.2136 -0.5054
16343TIP3    H170520   0.084   3.806  14.288 -0.5347  0.3590 -0.1557
16343TIP3    H270521  -0.010   3.711  14.360 -0.1019 -0.6522 -0.9141
16344TIP3   OH270522   1.353   2.619  16.376  0.2570  0.9226 -0.0869
16344TIP3    H170523   1.347   2.550  16.310  2.1936 -0.1766  0.8406
16344TIP3    H270524   1.264   2.631  16.407 -0.3670  0.0760 -1.4936
16345TIP3   OH270525   3.645   5.176   2.601 -0.2113 -0.2622 -0.3178
16345TIP3    H170526   3.655   5.252   2.545 -1.9608  0.7585  0.7188
16345TIP3    H270527   3.680   5.203   2.686 -2.1158 -0.0778  0.4554
16346TIP3   OH270528   3.952   4.629   5.913 -0.3348  0.3592 -0.0541
16346TIP3    H170529   4.002   4.689   5.858 -0.2233  0.4064  0.0973
16346TIP3    H270530   3.988   4.642   6.001 -0.4913  0.2631  0.0243
16347TIP3   OH270531   4.968   4.138  13.063 -0.3718 -0.0024 -0.4591
16347TIP3    H170532   4.885   4.143  13.017  1.3934  0.6291 -3.7205
16347TIP3    H270533   5.002   4.051  13.042 -0.0758 -0.1651  0.6525
16348TIP3   OH270534   5.382   1.313   4.787  0.2951  0.3847  0.2001
16348TIP3    H170535   5.371   1.288   4.879 -0.1231  0.7808  0.2577
16348TIP3    H270536   5.460   1.265   4.759  1.0789  1.1375  1.0739
16349TIP3   OH270537   4.173   0.508   6.126 -0.0744  0.0240 -0.0586
16349TIP3    H170538   4.267   0.516   6.143 -0.0817  0.8231 -0.3806
16349TIP3    H270539   4.144   0.437   6.184  0.7737 -0.3972 -0.1426
16350TIP3   OH270540   1.569   6.552   0.989 -0.0941 -0.6354 -0.0053
16350TIP3    H170541   1.525   6.476   0.951 -0.9122 -0.3369  0.3257
16350TIP3    H270542   1.645   6.515   1.034 -0.2155 -1.2059 -0.2600
16351TIP3   OH270543   0.432   0.326   4.850  0.7137  0.4044  0.3068
16351TIP3    H170544   0.418   0.241   4.892  0.0545 -0.4185 -1.5162
16351TIP3    H270545   0.382   0.321   4.768  0.7928  2.4946  0.0969
16352TIP3   OH270546   3.402   0.026  16.045 -0.1535  0.3800 -0.4028
16352TIP3    H170547   3.474   0.042  15.985  0.6374 -1.2894  0.0701
16352TIP3    H270548   3.436   0.052  16.131 -0.0219 -0.6535 -0.1403
16353TIP3   OH270549   5.835   1.834  15.857 -0.3124  0.2179  0.3421
16353TIP3    H170550   5.789   1.910  15.823 -0.4409 -0.2285 -0.5088
16353TIP3    H270551   5.766   1.771  15.878 -0.2398  0.5029  1.4975
16354TIP3   OH270552   0.703   6.734  13.565  0.2800  0.0390 -0.1511
16354TIP3    H170553   0.647   6.778  13.628 -0.1585 -0.5163 -0.1621
16354TIP3    H270554   0.784   6.786  13.566  0.6793 -0.5850  1.6343
16355TIP3   OH270555   0.382   1.209  15.577  0.2521  0.6720 -0.1709
16355TIP3    H170556   0.380   1.304  15.568 -0.7378  0.6585 -0.2007
16355TIP3    H270557   0.474   1.187  15.590  0.5853  1.5536 -1.0156
16356TIP3   OH270558   0.437   2.717  10.480 -0.1004  0.8541  0.2155
16356TIP3    H170559   0.432   2.799  10.530 -0.9246 -0.7170  2.8060
16356TIP3    H270560   0.348   2.701  10.450 -0.2616  0.0795  1.0965
16357TIP3   OH270561   4.497   4.220  11.854  0.2783 -0.1664  0.6808
16357TIP3    H170562   4.518   4.197  11.764 -0.7694 -1.5674  0.7840
16357TIP3    H270563   4.581   4.245  11.893  0.5122  2.0782 -1.1123
16358TIP3   OH270564   5.671   5.479   5.401 -0.1080  0.6664  0.7622
16358TIP3    H170565   5.695   5.407   5.458  0.3115  0.6719  0.5917
16358TIP3    H270566   5.728   5.470   5.325 -1.2272  0.1532 -0.0447
16359TIP3   OH270567   5.228   2.653  10.620  0.0185  0.8196  0.2772
16359TIP3    H170568   5.153   2.684  10.672  0.1840  1.8469 -0.0791
16359TIP3    H270569   5.290   2.725  10.625  0.4320  0.5122 -0.5528
16360TIP3   OH270570   1.884   4.062   2.188  0.1099  0.3640 -0.4594
16360TIP3    H170571   1.813   4.007   2.154 -0.2079 -0.4127  1.3923
16360TIP3    H270572   1.944   4.072   2.114 -0.9780 -0.5471 -1.4953
16361TIP3   OH270573   2.088   5.637  15.350  0.3843 -0.2331 -0.4372
16361TIP3    H170574   2.164   5.675  15.306  0.9627  0.9013  1.5149
16361TIP3    H270575   2.125   5.578  15.416 -0.4713 -1.0273 -0.6452
16362TIP3   OH270576   3.767   0.784   2.560  0.7126 -0.5178  0.6296
16362TIP3    H170577   3.743   0.857   2.616  1.4283 -0.4797  0.8938
16362TIP3    H270578   3.823   0.729   2.614  2.4901  0.2019 -0.4327
16363TIP3   OH270579   3.241   0.596  12.660 -0.0774  0.4005  0.2272
16363TIP3    H170580   3.208   0.686  12.651 -0.9150  0.1416  0.6682
16363TIP3    H270581   3.170   0.549  12.702  0.2334 -0.5582 -0.3181
16364TIP3   OH270582   4.042   0.271  12.513 -0.1651 -0.3451  0.2032
16364TIP3    H170583   4.118   0.329  12.517  0.1057 -0.8315  2.5672
16364TIP3    H270584   4.004   0.289  12.427 -0.7519  4.1709  1.2701
16365TIP3   OH270585   3.874   4.757  14.220 -0.2314 -1.0119 -0.5282
16365TIP3    H170586   3.917   4.833  14.183 -1.4608  0.0829  0.2296
16365TIP3    H270587   3.930   4.729  14.293  0.0406 -0.6073 -0.5867
16366TIP3   OH270588   1.306   6.815   2.697 -0.0897  0.2147 -0.4434
16366TIP3    H170589   1.271   6.904   2.701 -0.8268 -0.1209  0.7044
16366TIP3    H270590   1.231   6.759   2.717  0.9621 -0.5327  1.5266
16367TIP3   OH270591   4.933   1.004   5.894 -0.3692  0.1690 -0.1766
16367TIP3    H170592   4.950   0.913   5.917 -0.6225  0.3192  0.6289
16367TIP3    H270593   4.850   1.025   5.938  0.0876  1.0149  0.2964
16368TIP3   OH270594   4.272   1.433   4.098  0.2683  0.8449  0.2745
16368TIP3    H170595   4.336   1.483   4.046  0.3030  0.3461 -0.1610
16368TIP3    H270596   4.303   1.343   4.094 -1.5462  0.2577 -1.6214
16369TIP3   OH270597   4.308   1.382   5.453  0.2682  0.1646 -0.3288
16369TIP3    H170598   4.249   1.413   5.384  0.3846  0.2356 -0.3970
16369TIP3    H270599   4.396   1.399   5.418  0.3253  0.3325 -0.1034
16370TIP3   OH270600   5.556   2.581  15.757  0.3101 -0.1299 -0.6593
16370TIP3    H170601   5.619   2.578  15.685  1.6555  0.7664  0.4570
16370TIP3    H270602   5.526   2.491  15.767  0.5300 -0.3631 -1.9557
16371TIP3   OH270603   5.097   5.793   4.042 -0.2188 -0.6219  0.1975
16371TIP3    H170604   5.108   5.715   4.097  1.1298 -1.8125 -1.6969
16371TIP3    H270605   5.056   5.760   3.962  0.5980  0.5690 -0.7278
16372TIP3   OH270606   1.131   2.345  11.553  0.0860 -0.4055  0.2878
16372TIP3    H170607   1.103   2.265  11.597 -1.1492  0.0185  0.2847
16372TIP3    H270608   1.050   2.394  11.538  0.6062 -0.0086 -1.3837
16373TIP3   OH270609   4.011   1.493   5.730 -0.3781  0.1856  0.1467
16373TIP3    H170610   4.042   1.565   5.675  1.4406 -1.3447 -0.8553
16373TIP3    H270611   3.940   1.532   5.781  1.8219  3.2201  1.0357
16374TIP3   OH270612   1.435   6.343   2.125  0.3518  0.0970  0.0216
16374TIP3    H170613   1.428   6.315   2.033  0.3413 -0.9688  0.3428
16374TIP3    H270614   1.480   6.427   2.120 -1.1942  0.8944 -1.0921
16375TIP3   OH270615   4.120   0.356   3.075 -0.0290  0.1472 -0.2310
16375TIP3    H170616   4.194   0.415   3.092  0.4371 -0.3776 -0.4378
16375TIP3    H270617   4.092   0.328   3.162  0.1170  0.2177 -0.1602
16376TIP3   OH270618   6.149   5.089  15.989 -0.7926  0.1887 -0.5310
16376TIP3    H170619   6.072   5.071  15.934 -2.5925  0.3556  1.8456
16376TIP3    H270620   6.122   5.164  16.043  0.9864  0.1360  0.4580
16377TIP3   OH270621   6.244   5.890   0.773  0.0553  0.7385 -0.0174
16377TIP3    H170622   6.186   5.843   0.713 -0.7833  1.2534  0.3858
16377TIP3    H270623   6.327   5.842   0.769 -0.6727 -0.5257  0.0887
16378TIP3   OH270624   2.906   3.491   5.914  0.1107 -0.5537  0.4456
16378TIP3    H170625   2.821   3.528   5.888 -0.1469 -0.9381  0.7433
16378TIP3    H270626   2.959   3.495   5.835 -0.5735 -1.4303 -0.0674
16379TIP3   OH270627   3.921   4.527  14.047 -0.4411  0.0525  0.2402
16379TIP3    H170628   3.960   4.580  13.977 -0.6484 -0.4576 -0.2701
16379TIP3    H270629   3.887   4.591  14.109  0.0322  0.5126  0.0348
16380TIP3   OH270630   1.400   4.932  15.767 -0.3236 -0.3760 -0.0565
16380TIP3    H170631   1.427   5.018  15.798  1.9917 -1.3340  0.6661
16380TIP3    H270632   1.309   4.923  15.797 -0.3133  1.4681  0.5575
16381TIP3   OH270633   0.709   2.111  14.497 -0.1683  0.1193 -0.3327
16381TIP3    H170634   0.647   2.175  14.532 -0.8649 -0.4398 -0.5479
16381TIP3    H270635   0.677   2.092  14.409 -0.8216 -1.6536  0.2681
16382TIP3   OH270636   3.824   5.770  11.850 -0.8198  0.2543 -0.2142
16382TIP3    H170637   3.890   5.703  11.871 -1.3202  0.5184  2.4506
16382TIP3    H270638   3.812   5.764  11.756  1.0638 -1.6272 -0.3696
16383TIP3   OH270639   4.297   4.356  14.949  0.3240 -0.5153 -0.4380
16383TIP3    H170640   4.244   4.342  14.870  1.4556 -0.5390 -1.2087
16383TIP3    H270641   4.304   4.451  14.956 -1.5070 -0.4524  0.8226
16384TIP3   OH270642   6.773   1.245   1.143  0.6959  0.1413  0.4532
16384TIP3    H170643   6.797   1.153   1.154  1.7604  0.2499 -0.8041
16384TIP3    H270644   6.842   1.281   1.086 -1.0934  1.0893 -1.1846
16385TIP3   OH270645   6.505   2.860   2.556 -0.4194 -0.0915  0.1118
16385TIP3    H170646   6.493   2.771   2.589  1.5318 -0.7893 -0.9486
16385TIP3    H270647   6.593   2.860   2.519 -0.4399  2.2581 -0.0234
16386TIP3   OH270648   4.432   4.187  15.894 -0.2452  0.3407 -0.0888
16386TIP3    H170649   4.365   4.247  15.929 -0.0443  1.0273 -0.8667
16386TIP3    H270650   4.464   4.140  15.970 -0.4299  1.2052  0.5261
16387TIP3   OH270651   2.859   1.384   3.035 -0.0653  0.4904  0.0708
16387TIP3    H170652   2.777   1.400   3.082 -0.2147  0.6360 -0.2394
16387TIP3    H270653   2.925   1.430   3.086 -0.1208  0.0729  0.5227
16388TIP3   OH270654   1.345   6.751  12.129  0.1209 -0.0472 -0.1442
16388TIP3    H170655   1.272   6.809  12.151 -0.5958 -1.8394  2.3812
16388TIP3    H270656   1.416   6.811  12.106 -1.0453  1.8382  0.9887
16389TIP3   OH270657   4.841   1.809   1.468  0.1208  0.0848  0.0378
16389TIP3    H170658   4.849   1.897   1.431 -1.5332  0.3910  0.3605
16389TIP3    H270659   4.747   1.797   1.481  0.2498 -2.1222 -0.9179
16390TIP3   OH270660   1.138   6.198   5.853 -0.0348 -0.1021 -0.0213
16390TIP3    H170661   1.150   6.189   5.947 -1.7040 -0.1789  0.1925
16390TIP3    H270662   1.209   6.257   5.825 -0.1245  0.6934  1.4165
16391TIP3   OH270663   6.302   2.261   0.871  0.0388  0.5488  0.3805
16391TIP3    H170664   6.233   2.312   0.827 -0.5584 -2.1189 -1.9232
16391TIP3    H270665   6.255   2.187   0.909  1.6700 -1.9258 -2.1891
16392TIP3   OH270666   2.556   6.633  14.216 -0.6215  0.4482  0.0573
16392TIP3    H170667   2.497   6.604  14.146 -0.7647 -1.8058  1.0828
16392TIP3    H270668   2.643   6.634  14.176 -0.7068 -0.8086 -0.1651
16393TIP3   OH270669   1.739   6.711  12.854  0.2244 -0.2467 -0.2966
16393TIP3    H170670   1.752   6.616  12.851  1.4669 -0.0649 -0.6551
16393TIP3    H270671   1.767   6.742  12.768 -0.1710  0.4519 -0.1749
16394TIP3   OH270672   4.487   2.056  14.460  0.2050 -0.5984  0.1118
16394TIP3    H170673   4.512   2.037  14.550  0.6570  0.8681  0.3157
16394TIP3    H270674   4.548   2.125  14.432 -1.0139  0.1650 -0.7265
16395TIP3   OH270675   2.533   5.275  12.006  0.3072  0.7514  0.5853
16395TIP3    H170676   2.444   5.309  12.015 -0.1559 -0.0777 -0.7599
16395TIP3    H270677   2.589   5.344  12.043 -0.7815  1.8915  0.1425
16396TIP3   OH270678   2.544   1.076  11.564  0.3988 -0.3143 -0.4563
16396TIP3    H170679   2.522   1.027  11.643 -0.8771 -1.2458 -1.3679
16396TIP3    H270680   2.603   1.018  11.515  0.6595 -0.0219 -0.4863
16397TIP3   OH270681   5.581   5.135   5.054 -0.3125 -0.3016  0.1689
16397TIP3    H170682   5.583   5.070   4.984 -1.8564 -1.8307  1.5222
16397TIP3    H270683   5.591   5.085   5.134 -2.0473  1.0599  1.2745
16398TIP3   OH270684   4.190   4.451   6.306 -0.0559 -0.2798 -0.3722
16398TIP3    H170685   4.284   4.472   6.309  0.0074 -0.7191  1.2261
16398TIP3    H270686   4.153   4.498   6.380 -0.9382 -0.8859 -0.4270
16399TIP3   OH270687   5.799   5.887  17.011 -0.3664  0.6690  0.2746
16399TIP3    H170688   5.891   5.878  16.989 -0.7506  0.7737 -1.4593
16399TIP3    H270689   5.761   5.802  16.989 -0.3951  0.0859  2.5082
16400TIP3   OH270690   3.232   2.143   6.218  0.2968  0.1202  0.1150
16400TIP3    H170691   3.190   2.228   6.232 -1.0128 -0.5600  0.3713
16400TIP3    H270692   3.300   2.138   6.285  1.2919  1.5459 -0.7703
16401TIP3   OH270693   4.672   3.664   0.127  0.8766  0.1427  0.0176
16401TIP3    H170694   4.628   3.671   0.042  0.6972  0.1161  0.1076
16401TIP3    H270695   4.607   3.623   0.184  0.0773  2.5126  0.8444
16402TIP3   OH270696   6.463   4.016   0.424  0.3147 -0.1206  1.0237
16402TIP3    H170697   6.481   4.089   0.364 -2.2116 -1.8802 -1.9986
16402TIP3    H270698   6.531   3.952   0.403 -0.5672 -0.7344  0.0338
16403TIP3   OH270699   4.433   5.291   5.219  0.0561 -0.6008  0.9156
16403TIP3    H170700   4.515   5.319   5.260 -0.8979  1.2628  1.6351
16403TIP3    H270701   4.440   5.196   5.213  2.6168 -0.4025  0.2133
16404TIP3   OH270702   5.816   1.188  11.438  0.3648  0.4929  0.5628
16404TIP3    H170703   5.792   1.126  11.506 -0.8052 -0.1393 -0.3983
16404TIP3    H270704   5.887   1.145  11.390  0.2592  0.3476  0.5376
16405TIP3   OH270705   0.800   0.743  12.079 -0.1667  0.2334 -0.0163
16405TIP3    H170706   0.813   0.804  12.006  1.9434 -0.1954 -0.0425
16405TIP3    H270707   0.795   0.799  12.156  1.8765  0.4571 -0.0274
16406TIP3   OH270708   5.042   5.056  14.464  0.1243  0.4605 -0.8804
16406TIP3    H170709   5.037   5.046  14.369 -0.9664 -2.8010 -0.5669
16406TIP3    H270710   4.970   5.115  14.487  0.7683  1.7447 -2.1095
16407TIP3   OH270711   6.786   4.579  13.015  0.0887 -0.8258 -0.1108
16407TIP3    H170712   6.850   4.601  12.947  2.0748 -2.6188  1.1252
16407TIP3    H270713   6.808   4.490  13.040 -0.3486 -0.0554  3.1913
16408TIP3   OH270714   5.469   2.417   0.430 -0.4549 -0.4725  0.3930
16408TIP3    H170715   5.473   2.503   0.473  1.0533  0.2942 -1.2222
16408TIP3    H270716   5.377   2.407   0.406 -0.4945  1.0953 -0.1799
16409TIP3   OH270717   2.859   3.648   3.940  0.0076  0.0005  0.2273
16409TIP3    H170718   2.862   3.732   3.985 -0.1035  0.7607 -1.1574
16409TIP3    H270719   2.894   3.666   3.852 -0.5510 -1.2634 -0.2734
16410TIP3   OH270720   1.020   6.652  14.039 -0.4272 -0.3818  0.5412
16410TIP3    H170721   1.039   6.697  14.121  0.6757  1.6613 -0.7953
16410TIP3    H270722   0.984   6.567  14.066 -0.8326  0.5665  3.1124
16411TIP3   OH270723   2.130   0.688  15.223  0.2585  0.6795 -0.0692
16411TIP3    H170724   2.175   0.682  15.139  0.7986 -0.3416  0.2934
16411TIP3    H270725   2.172   0.763  15.267  2.1374 -0.7123  0.5690
16412TIP3   OH270726   2.197   5.096   0.940 -0.0202 -0.0449 -0.3453
16412TIP3    H170727   2.237   5.182   0.929  0.6112 -0.3618 -0.5012
16412TIP3    H270728   2.149   5.081   0.859 -2.1353  1.2152  0.6270
16413TIP3   OH270729   6.034   5.888   3.836  0.9272 -0.3770 -0.7630
16413TIP3    H170730   6.124   5.884   3.868  0.9882 -1.6358 -1.0968
16413TIP3    H270731   6.030   5.824   3.765 -0.3869 -0.7528 -0.3604
16414TIP3   OH270732   5.482   2.431   4.080 -0.2800 -0.5273 -0.2001
16414TIP3    H170733   5.522   2.484   4.011  0.3955 -0.7979 -0.0115
16414TIP3    H270734   5.472   2.492   4.153  1.8364 -1.0143  0.5179
16415TIP3   OH270735   3.239   1.235   3.617  0.3052  0.1598 -0.1311
16415TIP3    H170736   3.291   1.289   3.676 -1.7363  2.4629 -0.3424
16415TIP3    H270737   3.244   1.147   3.654  0.8374  1.1471  2.2531
16416TIP3   OH270738   4.711   5.791  12.772 -0.0500 -0.6762 -0.6914
16416TIP3    H170739   4.697   5.821  12.682  1.1910 -0.7598 -0.9161
16416TIP3    H270740   4.779   5.724  12.765  0.2151 -0.5251  0.3368
16417TIP3   OH270741   2.808   0.338  15.274  0.0944  0.0817  0.4994
16417TIP3    H170742   2.802   0.340  15.178  0.0177 -2.3698  0.4137
16417TIP3    H270743   2.900   0.315  15.291 -0.1182 -0.3967  0.9912
16418TIP3   OH270744   1.827   0.822  13.161  0.2332  0.3644 -0.4609
16418TIP3    H170745   1.801   0.730  13.154  2.1436 -0.2240 -0.3370
16418TIP3    H270746   1.818   0.857  13.072  1.3391 -0.4768 -0.9083
16419TIP3   OH270747   4.454   5.313  12.121  0.4855 -0.3514  0.7544
16419TIP3    H170748   4.372   5.304  12.169  1.6915 -2.1823  2.5910
16419TIP3    H270749   4.501   5.232  12.140  2.3355  0.2737 -1.0090
16420TIP3   OH270750   1.213   3.399  15.971 -0.6700  0.1931 -0.1986
16420TIP3    H170751   1.197   3.425  16.061  0.0851 -0.2778  0.0794
16420TIP3    H270752   1.136   3.428  15.923 -0.5724  1.4751  0.3938
16421TIP3   OH270753   2.628   1.434   3.210  0.1785  0.7667 -0.3236
16421TIP3    H170754   2.536   1.414   3.191  0.4101  0.6932 -1.3635
16421TIP3    H270755   2.640   1.406   3.301 -0.2098 -1.4151 -0.9225
16422TIP3   OH270756   2.696   2.763   3.435 -0.5804 -0.4681  0.0233
16422TIP3    H170757   2.734   2.848   3.459  0.7094 -0.9008 -0.4438
16422TIP3    H270758   2.609   2.785   3.401 -1.0940  0.4601  1.8815
16423TIP3   OH270759   3.193   4.963  13.685  0.5792  0.3427  0.0892
16423TIP3    H170760   3.231   4.941  13.769  1.2877 -1.1351 -0.5918
16423TIP3    H270761   3.208   4.886  13.631 -0.5619  0.9599 -1.1591
16424TIP3   OH270762   2.124   0.020   0.255 -0.0015  0.0636 -0.1738
16424TIP3    H170763   2.183  -0.055   0.247 -0.1749 -0.2053  0.9929
16424TIP3    H270764   2.158   0.069   0.330 -1.3337 -0.1505  0.5810
16425TIP3   OH270765   1.051   2.388  12.792 -0.3817 -0.0649 -0.1605
16425TIP3    H170766   0.988   2.385  12.864 -0.2074  2.0999  0.1168
16425TIP3    H270767   1.112   2.317  12.811 -0.6518  0.1383  1.5619
16426TIP3   OH270768   5.767   0.368   2.479 -0.5634  0.2189 -0.4456
16426TIP3    H170769   5.822   0.445   2.496 -2.6418  1.9824 -1.3818
16426TIP3    H270770   5.778   0.350   2.386 -1.8331  0.8332 -0.7293
16427TIP3   OH270771   5.370   1.536  11.608 -0.1563 -0.3153 -0.0750
16427TIP3    H170772   5.413   1.472  11.552  0.3000  0.0894 -0.1963
16427TIP3    H270773   5.400   1.515  11.696  0.6824  0.2626 -0.2141
16428TIP3   OH270774   1.240   5.823   3.790  0.2314 -0.2321 -0.4590
16428TIP3    H170775   1.218   5.865   3.873  1.2037  0.1844 -0.4077
16428TIP3    H270776   1.182   5.865   3.726  0.3155  0.2862 -0.1983
16429TIP3   OH270777   0.578   1.868   2.137  0.4866  0.2819  0.2743
16429TIP3    H170778   0.604   1.807   2.206  0.2337 -1.8632 -1.4678
16429TIP3    H270779   0.525   1.815   2.078 -0.1230  2.3319 -1.0525
16430TIP3   OH270780   0.966   6.182  14.209 -1.0004  0.1300 -0.8634
16430TIP3    H170781   1.009   6.239  14.272 -3.4484  1.7302 -0.5698
16430TIP3    H270782   0.970   6.095  14.248  1.6102  0.2843 -0.6979
16431TIP3   OH270783   0.351   2.140   5.023 -0.0212 -0.0342  0.4598
16431TIP3    H170784   0.392   2.137   4.937  0.5352  1.2037  0.6692
16431TIP3    H270785   0.277   2.199   5.012 -2.2569 -2.8118 -0.1002
16432TIP3   OH270786   6.372   6.250   1.044  0.6509 -0.1031 -0.4798
16432TIP3    H170787   6.284   6.213   1.039  0.7929 -0.9138  2.0573
16432TIP3    H270788   6.360   6.343   1.024 -0.6661 -0.3312 -0.8364
16433TIP3   OH270789   2.662   0.859   4.835 -0.8119 -0.2328 -0.2446
16433TIP3    H170790   2.744   0.883   4.792 -2.4880  3.5564 -1.6330
16433TIP3    H270791   2.683   0.855   4.928  0.6823  2.2414 -0.4402
16434TIP3   OH270792   3.228   1.515  16.104 -0.4118 -0.0253  0.1209
16434TIP3    H170793   3.300   1.532  16.164  0.2215  0.6019 -0.7804
16434TIP3    H270794   3.202   1.425  16.122  0.5581 -0.2436  0.5097
16435TIP3   OH270795   2.455   3.976  10.862  0.1438 -0.0398 -0.0426
16435TIP3    H170796   2.520   4.034  10.902  0.2373  0.3337 -0.7242
16435TIP3    H270797   2.507   3.920  10.803  0.1733 -1.3725  1.1983
16436TIP3   OH270798   6.065   1.970   4.249  0.4670  0.0901 -0.1163
16436TIP3    H170799   6.122   2.034   4.292 -0.9522  0.8709  0.6140
16436TIP3    H270800   6.067   1.894   4.306  0.2082  0.3765  0.2753
16437TIP3   OH270801   0.776   2.281   5.981  0.0384  0.0996 -0.4289
16437TIP3    H170802   0.740   2.368   5.966 -1.4513 -0.3765  0.3005
16437TIP3    H270803   0.868   2.288   5.955 -0.6811  1.1912 -2.8224
16438TIP3   OH270804   2.869   4.416  13.819 -0.3153 -0.3768 -0.1923
16438TIP3    H170805   2.850   4.397  13.911  0.8923  1.5922  0.4981
16438TIP3    H270806   2.954   4.459  13.820  0.0080 -0.8864 -2.3151
16439TIP3   OH270807   4.842   6.555   3.070 -1.0508 -0.7272 -0.7012
16439TIP3    H170808   4.780   6.490   3.036 -1.0089 -1.5829  0.8082
16439TIP3    H270809   4.790   6.609   3.129 -0.7614 -0.3324 -0.8107
16440TIP3   OH270810   2.464   2.608   4.333 -0.2049 -0.1541  0.1805
16440TIP3    H170811   2.489   2.640   4.246 -0.8464  1.9161  0.7390
16440TIP3    H270812   2.404   2.535   4.315 -0.2227  0.1708 -1.1193
16441TIP3   OH270813   0.297   2.000  10.412  0.2004 -0.5355  0.4395
16441TIP3    H170814   0.327   2.089  10.427  1.3710 -0.7182 -0.6937
16441TIP3    H270815   0.364   1.945  10.453 -0.5381 -0.8949  1.1729
16442TIP3   OH270816   0.363   2.825  13.098  0.5174  0.3639 -0.6556
16442TIP3    H170817   0.375   2.740  13.141  1.3550  0.2019 -1.1800
16442TIP3    H270818   0.273   2.850  13.118 -1.3551 -2.8220 -4.3226
16443TIP3   OH270819   6.476   1.227   6.521  0.0244 -0.1972  0.2569
16443TIP3    H170820   6.447   1.137   6.533 -1.7095  0.6581  2.9073
16443TIP3    H270821   6.403   1.269   6.475  1.4018 -0.4080 -2.2532
16444TIP3   OH270822   3.818   3.616   0.302  0.1047 -0.1432 -0.1219
16444TIP3    H170823   3.781   3.533   0.333 -0.2885  0.3301  0.6748
16444TIP3    H270824   3.835   3.601   0.209 -0.8492 -0.7995 -0.1938
16445TIP3   OH270825   6.138   5.284  15.054  0.7142 -0.0739  0.1410
16445TIP3    H170826   6.202   5.293  14.984  2.3249 -1.2484  1.4106
16445TIP3    H270827   6.189   5.298  15.134 -0.2664 -2.5959  1.2635
16446TIP3   OH270828   1.492   5.959   2.725  0.4063  0.2198  0.2850
16446TIP3    H170829   1.514   5.872   2.757 -0.8341 -0.9322 -1.8673
16446TIP3    H270830   1.574   5.993   2.688  0.0295 -1.6156 -2.3276
16447TIP3   OH270831   4.068   1.927  14.043 -0.2249 -0.0675  0.0985
16447TIP3    H170832   4.059   2.016  14.009  1.4412  0.1999  0.3042
16447TIP3    H270833   4.092   1.874  13.967  0.6917  0.0189  0.3193
16448TIP3   OH270834   3.233   0.763  11.118 -0.1811 -0.1356 -0.4795
16448TIP3    H170835   3.172   0.690  11.131 -1.9570  1.2689 -0.8364
16448TIP3    H270836   3.251   0.797  11.205 -0.8127  0.1790 -0.4730
16449TIP3   OH270837   2.523   1.334  16.685 -0.2470 -0.5216  0.0249
16449TIP3    H170838   2.576   1.315  16.608 -2.0027 -1.5116 -0.9581
16449TIP3    H270839   2.466   1.258  16.695 -1.3895  0.4566  1.1582
16450TIP3   OH270840   3.461   4.700  15.784  0.2076 -0.0802  0.3097
16450TIP3    H170841   3.413   4.646  15.722  1.0006  1.6881 -1.9307
16450TIP3    H270842   3.417   4.785  15.781 -0.4427 -0.2788  3.0538
16451TIP3   OH270843   5.444   3.397   6.089 -0.3601 -0.6978  0.1785
16451TIP3    H170844   5.418   3.457   6.159 -1.4644 -1.4422  0.4137
16451TIP3    H270845   5.373   3.403   6.025  0.2224 -0.6799 -0.4746
16452TIP3   OH270846   1.184   4.800   1.722  0.0868  0.7336  0.0018
16452TIP3    H170847   1.254   4.858   1.691  1.4078 -0.5833  0.4902
16452TIP3    H270848   1.203   4.787   1.815  0.4645 -1.3858 -0.3505
16453TIP3   OH270849   2.171   4.071   4.171 -0.8335  0.6122  0.3979
16453TIP3    H170850   2.158   4.162   4.196  0.6831  0.5443  1.4814
16453TIP3    H270851   2.186   4.074   4.076  1.7091  1.8020  0.7838
16454TIP3   OH270852   4.255   6.274   2.225  0.5443 -0.4173  0.5656
16454TIP3    H170853   4.303   6.293   2.145 -0.8614 -0.4342 -0.3042
16454TIP3    H270854   4.179   6.332   2.222 -0.2688 -1.4217  1.1723
16455TIP3   OH270855   1.434   6.155   0.230 -0.0057 -0.2020  0.3392
16455TIP3    H170856   1.425   6.073   0.278 -0.6893  0.1268  0.7682
16455TIP3    H270857   1.345   6.190   0.224  0.5310  1.5244  1.9486
16456TIP3   OH270858   1.024   5.079  14.220 -0.3788 -0.5200 -0.0268
16456TIP3    H170859   1.062   5.136  14.287 -0.4572  0.1695 -0.5747
16456TIP3    H270860   0.935   5.111  14.208 -0.7649 -1.4186  0.4240
16457TIP3   OH270861   0.931   1.041  12.072  0.7532  0.0883 -0.6892
16457TIP3    H170862   0.842   1.074  12.066  0.1896 -1.3854 -0.7865
16457TIP3    H270863   0.966   1.079  12.153  0.0090  0.5880 -0.6008
16458TIP3   OH270864   1.877   0.957  15.150  0.1598 -0.5421  0.2228
16458TIP3    H170865   1.853   1.024  15.214  0.5618 -0.7520  0.6037
16458TIP3    H270866   1.942   0.903  15.196  0.5797 -0.5942 -0.4186
16459TIP3   OH270867   1.607   1.242  15.223  0.2473  0.0433 -0.4618
16459TIP3    H170868   1.584   1.285  15.141 -0.7475  0.1607 -0.1233
16459TIP3    H270869   1.655   1.308  15.273 -0.1327  0.3377 -0.4856
16460TIP3   OH270870   3.154   5.256   5.449 -0.1820  0.1255  0.2979
16460TIP3    H170871   3.138   5.275   5.541 -1.6300 -1.3530  0.3677
16460TIP3    H270872   3.249   5.245   5.443  0.1059  1.7927  1.2868
16461TIP3   OH270873   3.039   3.150  11.929 -1.1475 -0.2859  0.0423
16461TIP3    H170874   2.989   3.070  11.942 -1.8774  0.1076 -0.3032
16461TIP3    H270875   3.120   3.136  11.978 -0.9260 -1.5499 -0.6388
16462TIP3   OH270876   3.893   0.623  11.286  0.5962 -0.3414 -0.5513
16462TIP3    H170877   3.892   0.711  11.324 -0.8108 -0.8754  0.6674
16462TIP3    H270878   3.983   0.592  11.299  0.7158  0.3466  0.3079
16463TIP3   OH270879   5.880   0.571   6.847 -0.5795  0.5233  0.3807
16463TIP3    H170880   5.934   0.595   6.772 -0.2437  1.4940  0.9275
16463TIP3    H270881   5.912   0.485   6.874  0.7112  1.1047  0.7179
16464TIP3   OH270882   6.650   4.662  17.175  0.3111 -0.1135 -0.7089
16464TIP3    H170883   6.736   4.627  17.195 -0.1628 -1.7137 -1.4106
16464TIP3    H270884   6.654   4.686  17.082 -0.1736 -0.7478 -0.8992
16465TIP3   OH270885   3.285   5.260   3.593 -0.1604  0.3267 -0.7117
16465TIP3    H170886   3.366   5.269   3.544  0.9908 -0.3086  1.0080
16465TIP3    H270887   3.262   5.350   3.619  1.1219  0.3162  0.5191
16466TIP3   OH270888   6.494   2.825   4.041 -0.3563 -0.3261  0.8135
16466TIP3    H170889   6.574   2.802   3.995 -0.0752  0.7869  0.7547
16466TIP3    H270890   6.430   2.760   4.012  0.0724 -0.2016 -0.4035
16467TIP3   OH270891   2.350   0.665   3.563 -0.1129  0.0860  0.2460
16467TIP3    H170892   2.355   0.643   3.470  1.9399  1.4462  0.0123
16467TIP3    H270893   2.400   0.595   3.606  2.6232  1.7745 -0.0959
16468TIP3   OH270894   4.001   6.511  14.453 -0.7908 -0.5459  0.1235
16468TIP3    H170895   3.944   6.435  14.465 -0.2045 -0.8842  0.7831
16468TIP3    H270896   4.079   6.476  14.409 -0.4809 -0.3479  0.5126
16469TIP3   OH270897   0.144   3.889   0.784 -0.0487 -0.5710  0.2773
16469TIP3    H170898   0.087   3.814   0.768 -0.0492 -0.4140 -0.4812
16469TIP3    H270899   0.116   3.924   0.868 -0.0911 -1.3834  0.6056
16470TIP3   OH270900   0.328   2.925  15.620  0.1509  0.0022  0.0943
16470TIP3    H170901   0.420   2.947  15.605  0.3260  0.0100  1.1271
16470TIP3    H270902   0.288   2.928  15.533  0.7433  1.7341 -0.1460
16471TIP3   OH270903   6.367   1.221  15.839  0.1228 -0.0846  0.7686
16471TIP3    H170904   6.415   1.304  15.844  0.1239 -0.1399  1.9498
16471TIP3    H270905   6.400   1.178  15.760 -1.2958  1.8979 -0.9461
16472TIP3   OH270906   6.739   1.306  16.814 -0.5019 -0.0845 -0.0760
16472TIP3    H170907   6.755   1.273  16.726 -2.6160  0.9866 -0.9123
16472TIP3    H270908   6.786   1.389  16.818 -2.1735  0.9399 -0.9996
16473TIP3   OH270909   0.406   5.442  17.070 -0.4183  0.1872  0.2893
16473TIP3    H170910   0.361   5.487  16.999 -0.7340  1.4462  1.2790
16473TIP3    H270911   0.440   5.361  17.030 -1.4851  0.3853 -1.0262
16474TIP3   OH270912   1.811   4.117   4.392  1.0239 -0.3239 -0.3213
16474TIP3    H170913   1.827   4.101   4.299  1.3724  0.2255 -0.3643
16474TIP3    H270914   1.729   4.167   4.395  0.5502 -1.1036 -0.2704
16475TIP3   OH270915   0.013   5.654   0.085 -1.0755 -0.0935 -0.1411
16475TIP3    H170916   0.107   5.653   0.102 -1.3347 -0.4175  1.3330
16475TIP3    H270917  -0.012   5.561   0.083 -1.4707  0.0039  0.1226
16476TIP3   OH270918   3.643   2.450  14.967 -0.9302  0.6773  0.3711
16476TIP3    H170919   3.674   2.523  14.914  0.1869 -0.1786 -0.1781
16476TIP3    H270920   3.635   2.486  15.056 -1.5364  1.7657 -0.1087
16477TIP3   OH270921   1.151   6.723  16.592  0.1848 -0.0335 -0.4264
16477TIP3    H170922   1.126   6.810  16.624 -0.1880 -0.7819  1.3843
16477TIP3    H270923   1.217   6.693  16.654 -1.0417 -1.8032  0.0796
16478TIP3   OH270924   1.297   2.761   3.694 -0.2147  0.5100 -0.4311
16478TIP3    H170925   1.227   2.724   3.747 -0.5792 -2.0889 -2.6345
16478TIP3    H270926   1.375   2.754   3.749 -0.9358 -0.3076  0.5113
16479TIP3   OH270927   5.628   4.679   4.281 -0.4711 -0.6974 -0.6944
16479TIP3    H170928   5.701   4.619   4.300 -0.3931 -0.0911  0.9808
16479TIP3    H270929   5.670   4.755   4.241 -0.4120 -1.1464 -1.5055
16480TIP3   OH270930   6.348   5.451  14.486 -0.0946 -0.5821 -0.2434
16480TIP3    H170931   6.420   5.500  14.527  0.1495  0.2737 -1.6775
16480TIP3    H270932   6.354   5.472  14.393 -3.0114  0.5604 -0.2325
16481TIP3   OH270933   3.910   6.009  14.804 -0.4693  0.2523  0.4020
16481TIP3    H170934   3.982   6.071  14.791  0.4467 -0.8699  0.0295
16481TIP3    H270935   3.834   6.064  14.825  0.3966  1.4729  0.3779
16482TIP3   OH270936   3.121   4.399   3.155  0.1134  1.1117  0.0709
16482TIP3    H170937   3.173   4.335   3.204 -0.2974  0.5637 -0.1979
16482TIP3    H270938   3.143   4.382   3.063 -0.2421  1.1424 -0.0194
16483TIP3   OH270939   1.998   1.865  14.814  0.5549  0.7367 -0.2278
16483TIP3    H170940   1.970   1.927  14.747  0.0279  0.9286  0.1627
16483TIP3    H270941   1.995   1.780  14.772  0.7374  0.9151 -0.6014
16484TIP3   OH270942   1.788   6.818   2.159  0.0495 -0.0615 -0.5570
16484TIP3    H170943   1.749   6.851   2.240 -0.4199 -1.8560 -0.0145
16484TIP3    H270944   1.790   6.893   2.100 -0.4102  1.0524  0.8273
16485TIP3   OH270945   3.298   6.794  13.069  0.8194 -0.4288 -0.0057
16485TIP3    H170946   3.209   6.760  13.083  0.5247 -0.4874 -1.8908
16485TIP3    H270947   3.295   6.884  13.104 -0.1250 -0.2545 -0.5163
16486TIP3   OH270948   1.705   2.144   0.869 -0.4785 -0.3820 -0.5099
16486TIP3    H170949   1.698   2.141   0.773 -0.1138 -1.1888 -0.5082
16486TIP3    H270950   1.797   2.125   0.887  0.3150  3.2900 -0.1714
16487TIP3   OH270951   4.841   4.309  14.346 -0.1415 -0.4117 -0.7925
16487TIP3    H170952   4.834   4.287  14.439 -1.8206 -0.6769 -0.9616
16487TIP3    H270953   4.931   4.339  14.335  0.2673 -0.9963  0.7839
16488TIP3   OH270954   1.738   4.269  14.943 -0.4120 -0.1459 -0.4867
16488TIP3    H170955   1.754   4.288  14.850 -1.9311  0.7332 -0.5936
16488TIP3    H270956   1.759   4.350  14.988  1.8936 -1.0709  0.1490
16489TIP3   OH270957   1.258   2.527  15.736  0.7628  0.2454  0.4758
16489TIP3    H170958   1.214   2.447  15.706 -0.3236  1.0281 -0.0683
16489TIP3    H270959   1.272   2.578  15.656 -0.9923  1.7788  1.1157
16490TIP3   OH270960   0.315   1.883   0.728 -0.0783 -0.0286  0.4747
16490TIP3    H170961   0.248   1.892   0.660 -1.0323 -2.7580  0.9961
16490TIP3    H270962   0.397   1.874   0.680 -0.3444  1.1182 -0.2171
16491TIP3   OH270963   3.632   1.148   2.428 -0.7216  0.1850  0.6047
16491TIP3    H170964   3.600   1.121   2.342  4.1277 -1.7979 -0.7314
16491TIP3    H270965   3.615   1.242   2.432 -4.7331 -0.4151 -0.7430
16492TIP3   OH270966   6.120   6.679   0.145 -0.6217 -0.2279 -0.5350
16492TIP3    H170967   6.076   6.594   0.154 -3.3458  1.4229  2.5870
16492TIP3    H270968   6.154   6.698   0.232  2.3519  0.6815 -1.8529
16493TIP3   OH270969   3.249   2.905   4.647 -0.3416  0.2520 -0.3856
16493TIP3    H170970   3.278   2.816   4.667 -0.1282  0.2907 -0.5259
16493TIP3    H270971   3.277   2.920   4.557  0.6818  0.8958  0.0298
16494TIP3   OH270972   2.513   1.195   4.856 -0.0124 -0.4250  0.0157
16494TIP3    H170973   2.463   1.215   4.776 -1.0411 -1.7418  0.3196
16494TIP3    H270974   2.447   1.176   4.922  0.8630 -0.3981  0.9183
16495TIP3   OH270975   3.375   5.127   4.504  0.0690  0.3050  0.5157
16495TIP3    H170976   3.303   5.105   4.562  0.4438 -1.4327  0.3568
16495TIP3    H270977   3.336   5.133   4.417  0.1519 -0.9213  0.3868
16496TIP3   OH270978   2.194   0.379   0.245 -1.2412  0.1315  0.0137
16496TIP3    H170979   2.253   0.324   0.297  0.6770  1.3683 -0.7788
16496TIP3    H270980   2.159   0.442   0.308  1.3592  1.8619 -0.1742
16497TIP3   OH270981   2.257   5.941   4.091 -0.2021 -0.1705 -0.2423
16497TIP3    H170982   2.249   5.894   4.174 -0.7367  0.3399 -0.0057
16497TIP3    H270983   2.258   6.034   4.115 -0.0497 -0.0262 -0.7838
16498TIP3   OH270984   2.563   2.149  11.969  0.6382  0.0356 -0.0081
16498TIP3    H170985   2.630   2.080  11.966  1.1086  0.2488  3.6283
16498TIP3    H270986   2.482   2.104  11.945  0.9336 -1.8784  2.3114
16499TIP3   OH270987   2.890   3.561  13.769  0.3899  0.2796 -0.0308
16499TIP3    H170988   2.825   3.532  13.705 -1.0063  1.3967  0.8580
16499TIP3    H270989   2.950   3.617  13.720 -0.3280  0.6532 -0.4813
16500TIP3   OH270990   2.437   0.797   5.312  0.3131  0.1284 -0.2336
16500TIP3    H170991   2.404   0.842   5.389  0.0797  0.7982 -0.7230
16500TIP3    H270992   2.517   0.844   5.288  0.0632  0.3016 -0.7501
16501TIP3   OH270993   2.241   6.167  15.621 -0.1339  0.3498 -0.5213
16501TIP3    H170994   2.226   6.133  15.709 -1.2729  0.9801 -0.4525
16501TIP3    H270995   2.167   6.227  15.606 -0.8169 -0.9306 -2.5129
16502TIP3   OH270996   3.158   2.820   1.982 -0.2596 -0.4709  0.7313
16502TIP3    H170997   3.206   2.843   2.062 -1.5172  0.6802  1.1664
16502TIP3    H270998   3.088   2.885   1.976 -0.8849 -1.2511 -0.6876
16503TIP3   OH270999   3.068   0.869  13.121  0.2981 -0.3639 -0.0521
16503TIP3    H171000   3.027   0.942  13.074 -0.2359  2.5799  4.5898
16503TIP3    H271001   2.995   0.825  13.165  1.1314 -0.6973  1.0289
16504TIP3   OH271002   3.312   6.761   4.282  0.1374  0.1383 -0.4075
16504TIP3    H171003   3.336   6.671   4.263  0.6095  0.2226 -0.2129
16504TIP3    H271004   3.335   6.809   4.203  2.1534  0.4970  0.3795
16505TIP3   OH271005   2.861   2.298  13.910 -0.0893  0.3047  0.4476
16505TIP3    H171006   2.771   2.321  13.886  0.4528  0.1807 -1.8890
16505TIP3    H271007   2.852   2.241  13.986 -1.9514  0.7605  0.5980
16506TIP3   OH271008   3.953   5.173  11.046 -0.0824 -0.7301 -0.4370
16506TIP3    H171009   4.038   5.185  11.089 -1.2359 -0.9337  1.9465
16506TIP3    H271010   3.898   5.243  11.082 -1.9305 -2.7367  0.7255
16507TIP3   OH271011   3.288   3.004   4.397  0.3082  0.1820 -0.3750
16507TIP3    H171012   3.299   3.098   4.409  3.0078 -0.1453  0.0269
16507TIP3    H271013   3.226   2.996   4.325 -1.3390  2.2454  0.7567
16508TIP3   OH271014   4.483   0.067  11.470  0.1282  0.5290 -0.0344
16508TIP3    H171015   4.495   0.126  11.544 -1.4697 -0.7028  1.2395
16508TIP3    H271016   4.478  -0.020  11.509  2.3649 -0.4640 -1.8713
16509TIP3   OH271017   0.380   3.651  15.653  0.1858  0.1381 -0.3322
16509TIP3    H171018   0.410   3.717  15.715 -1.0167 -0.1084  0.5253
16509TIP3    H271019   0.460   3.623  15.607  1.4807 -1.2061  2.5935
16510TIP3   OH271020   0.031   3.826  15.618  0.3736  0.6474  0.3627
16510TIP3    H171021  -0.008   3.791  15.538 -0.1927 -1.3306  1.4745
16510TIP3    H271022  -0.002   3.916  15.624  0.2467  0.7398 -1.4904
16511TIP3   OH271023   0.789   0.360   5.145 -0.1511 -0.1241  0.4411
16511TIP3    H171024   0.818   0.449   5.164 -2.9468  0.3376  2.9633
16511TIP3    H271025   0.806   0.312   5.226 -2.8480 -0.7297  0.6811
16512TIP3   OH271026   2.622   1.651  15.359  0.0553 -0.3186  0.0111
16512TIP3    H171027   2.583   1.697  15.434  0.5205  0.6150 -0.3070
16512TIP3    H271028   2.716   1.652  15.378  0.3660  1.5395 -1.4456
16513TIP3   OH271029   3.201   2.797  15.482 -0.1886 -0.1433  0.3077
16513TIP3    H171030   3.243   2.871  15.525  1.2655 -1.0526  0.5001
16513TIP3    H271031   3.157   2.835  15.406  4.3562  0.4219 -2.2708
16514TIP3   OH271032   5.819   1.878   3.155  0.2988 -0.3734  0.5370
16514TIP3    H171033   5.738   1.911   3.117  0.0020 -1.4341  0.2289
16514TIP3    H271034   5.792   1.806   3.212  1.0689 -1.1453 -0.0518
16515TIP3   OH271035   0.867   3.422  16.464 -0.2486 -0.1531 -0.0412
16515TIP3    H171036   0.855   3.329  16.447 -1.7792 -0.3044  1.6828
16515TIP3    H271037   0.840   3.433  16.556  1.6809  1.6636  0.3442
16516TIP3   OH271038   1.303   0.580  12.239 -0.0276  0.2107  0.9030
16516TIP3    H171039   1.252   0.640  12.183 -0.0339  0.3627  1.0713
16516TIP3    H271040   1.391   0.582  12.201 -0.8675 -2.5128 -1.3395
16517TIP3   OH271041   1.932   5.401   4.499 -0.1748  0.0910 -0.6079
16517TIP3    H171042   2.019   5.412   4.538 -0.0719  0.8937 -1.0460
16517TIP3    H271043   1.872   5.400   4.574  0.2884 -1.4139 -0.2430
16518TIP3   OH271044   6.570   0.917   1.550 -0.6276 -0.0089  0.0891
16518TIP3    H171045   6.480   0.910   1.518 -2.2057  2.5936  3.5950
16518TIP3    H271046   6.596   0.827   1.571 -3.2558 -0.5687  1.1192
16519TIP3   OH271047   2.589   3.589   2.177  0.3651  0.1680 -0.1751
16519TIP3    H171048   2.571   3.543   2.095  0.8997  0.8770 -0.6999
16519TIP3    H271049   2.503   3.606   2.215  0.1330 -0.6296 -0.3230
16520TIP3   OH271050   5.982   0.651   0.034 -0.0825 -0.1194 -0.2358
16520TIP3    H171051   6.028   0.656   0.118  0.3229 -1.7559 -0.3422
16520TIP3    H271052   6.017   0.573  -0.008 -2.2887 -0.8896 -0.7223
16521TIP3   OH271053   5.579   4.026   0.193 -0.3643 -0.2405  0.4908
16521TIP3    H171054   5.523   3.963   0.147 -0.0325 -1.0397  1.1815
16521TIP3    H271055   5.526   4.056   0.267 -0.2560 -0.2246  0.5606
16522TIP3   OH271056   0.280   0.932   1.288  0.0193  0.1851  0.2566
16522TIP3    H171057   0.187   0.909   1.284  0.3881 -1.4035  0.5421
16522TIP3    H271058   0.288   1.008   1.229 -1.7312  1.3455  1.4395
16523TIP3   OH271059   2.649   4.587   0.189 -0.2429  0.3120  0.0458
16523TIP3    H171060   2.737   4.605   0.156  0.3828  1.4502  2.2366
16523TIP3    H271061   2.595   4.658   0.155  0.0787  0.6324  0.2021
16524TIP3   OH271062   1.516   4.379   3.379  0.1273 -0.1964  0.3327
16524TIP3    H171063   1.520   4.463   3.334 -1.3119 -0.1717  0.2499
16524TIP3    H271064   1.607   4.360   3.401  0.5259  1.1091 -0.1468
16525TIP3   OH271065   5.002   0.998  13.304 -0.1500  0.0757 -0.1170
16525TIP3    H171066   5.009   0.967  13.394 -2.0876 -0.6646 -0.2033
16525TIP3    H271067   5.061   1.073  13.300  3.1922 -2.4118  0.5993
16526TIP3   OH271068   5.354   5.734   2.010 -0.2588  0.0932  0.0568
16526TIP3    H171069   5.365   5.761   2.102  0.5245 -1.2214  0.3706
16526TIP3    H271070   5.271   5.772   1.984  1.0037  3.1788  0.3029
16527TIP3   OH271071   6.094   0.830   3.721  0.1370 -0.3166 -0.5464
16527TIP3    H171072   6.025   0.887   3.688 -0.5611  0.0594  1.5129
16527TIP3    H271073   6.170   0.851   3.667 -0.7809  0.7882 -1.4265
16528TIP3   OH271074   4.383   3.976  15.133 -0.5353 -0.2986 -0.5574
16528TIP3    H171075   4.368   4.065  15.164 -1.0385  0.0144 -1.6800
16528TIP3    H271076   4.411   3.928  15.211 -1.8899  0.4405  0.3996
16529TIP3   OH271077   1.017   0.308  13.906  0.3186  0.1996  0.1432
16529TIP3    H171078   0.943   0.281  13.960 -1.5958  3.3095 -0.8292
16529TIP3    H271079   1.025   0.240  13.840  0.9376 -2.2360  2.6391
16530TIP3   OH271080   4.978   3.636   1.339  0.2638 -0.2020 -0.3288
16530TIP3    H171081   4.990   3.727   1.314  0.5380 -0.0656  0.2958
16530TIP3    H271082   5.055   3.591   1.303 -0.0551 -0.2582 -0.9562
16531TIP3   OH271083   3.402   2.339  14.878 -0.4589  0.1523  0.5464
16531TIP3    H171084   3.474   2.384  14.922  0.1984  0.0005 -0.3656
16531TIP3    H271085   3.419   2.351  14.785 -1.0986 -0.7069  0.3131
16532TIP3   OH271086   0.959   4.468   3.054  0.1911  0.2681 -0.0214
16532TIP3    H171087   1.054   4.465   3.040  0.1117  0.8091 -0.6843
16532TIP3    H271088   0.938   4.562   3.055 -0.5290  0.1267 -1.1626
16533TIP3   OH271089   6.368   4.017  15.852 -0.0388 -0.2762 -0.3296
16533TIP3    H171090   6.421   4.097  15.857  1.3509 -1.2577  1.2940
16533TIP3    H271091   6.283   4.046  15.819  0.7480  1.7136 -0.6730
16534TIP3   OH271092   1.677   5.298   4.334  0.7217 -0.6281  0.8661
16534TIP3    H171093   1.658   5.391   4.351  0.3971 -0.7931  1.4011
16534TIP3    H271094   1.760   5.282   4.380  1.0745 -0.4575  0.2948
16535TIP3   OH271095   4.238   2.293  16.589 -0.0955 -0.4559  0.2688
16535TIP3    H171096   4.143   2.299  16.579 -0.0419  0.6587  0.4215
16535TIP3    H271097   4.268   2.384  16.591  1.0498 -0.8077 -0.5231
16536TIP3   OH271098   4.472   2.740   1.232  0.2103 -0.8299 -0.1949
16536TIP3    H171099   4.426   2.812   1.188  0.8883 -0.8818 -1.0180
16536TIP3    H271100   4.451   2.751   1.325  1.4588  1.3034 -0.1301
16537TIP3   OH271101   5.374   0.499  16.091  0.1109 -0.3901 -0.2460
16537TIP3    H171102   5.447   0.437  16.083 -1.2227 -1.7977 -1.8624
16537TIP3    H271103   5.368   0.540  16.005  0.0972  0.9899  0.4064
16538TIP3   OH271104   1.846   0.885  14.086  0.1580 -0.0904  0.3043
16538TIP3    H171105   1.788   0.922  14.019 -1.2389  0.6459  1.8840
16538TIP3    H271106   1.788   0.844  14.149  1.4435 -0.7131  1.1163
16539TIP3   OH271107   3.620   2.345  10.934 -0.1531 -0.0717  0.1495
16539TIP3    H171108   3.710   2.323  10.910  0.3074  1.0834  0.7766
16539TIP3    H271109   3.596   2.416  10.874 -1.1779 -1.3524 -1.0015
16540TIP3   OH271110   1.347   6.375   5.752  0.5570 -0.1438  0.2520
16540TIP3    H171111   1.275   6.418   5.705  0.0605 -1.2164  0.0167
16540TIP3    H271112   1.412   6.444   5.763 -0.7604  1.0216  1.0154
16541TIP3   OH271113   2.710   4.612  14.483  0.8246 -0.2158 -0.4449
16541TIP3    H171114   2.802   4.587  14.473  1.1505 -0.4958  2.6187
16541TIP3    H271115   2.712   4.706  14.501  0.3391  0.1770 -2.3767
16542TIP3   OH271116   4.779   1.744  13.427  0.4431  0.0618 -0.7458
16542TIP3    H171117   4.741   1.682  13.490  0.9720 -1.9041 -2.3102
16542TIP3    H271118   4.833   1.802  13.480 -0.6956 -0.3056  0.8587
16543TIP3   OH271119   4.082   2.307  11.122  0.2696  0.1820 -0.1610
16543TIP3    H171120   4.047   2.332  11.037  4.3795 -0.7119 -2.2437
16543TIP3    H271121   4.121   2.388  11.156 -0.9936  0.4373  0.6999
16544TIP3   OH271122   5.741   1.141  15.541 -0.1082  0.4971  0.1556
16544TIP3    H171123   5.815   1.176  15.492  0.5805 -0.0571  0.7885
16544TIP3    H271124   5.744   1.047  15.524 -0.8030  0.5034 -0.0011
16545TIP3   OH271125   5.517   4.552  14.853  0.2247  0.8132 -0.6425
16545TIP3    H171126   5.497   4.535  14.945  0.0247  2.3081 -0.3849
16545TIP3    H271127   5.451   4.616  14.826  0.3950  0.5218 -1.7771
16546TIP3   OH271128   6.169   4.757   0.249  0.3084 -0.1450  0.1340
16546TIP3    H171129   6.253   4.803   0.253  1.3085 -2.0041  1.3465
16546TIP3    H271130   6.192   4.666   0.234 -1.4700 -0.7481  0.9255
16547TIP3   OH271131   5.866   2.722  15.880 -0.8784 -0.7421  0.0656
16547TIP3    H171132   5.861   2.708  15.786 -0.3459  2.7384 -0.5360
16547TIP3    H271133   5.957   2.702  15.902 -0.8556 -0.9738 -0.2298
16548TIP3   OH271134   2.322   3.802   1.630  0.1209  0.2285  0.3981
16548TIP3    H171135   2.365   3.886   1.617 -2.0248  0.9713 -2.1892
16548TIP3    H271136   2.284   3.808   1.718  0.2716  1.8412  0.3693
16549TIP3   OH271137   0.946   0.990  13.991  0.7424 -0.0156  0.5063
16549TIP3    H171138   0.943   1.079  14.024 -1.5417  0.6138 -1.2571
16549TIP3    H271139   0.988   0.997  13.905  1.5998 -0.8101  0.8488
16550TIP3   OH271140   0.625   4.980   5.497  0.1509  0.3483 -0.0267
16550TIP3    H171141   0.600   4.982   5.405 -0.4973  1.1441  0.1505
16550TIP3    H271142   0.639   4.888   5.517 -1.0405  0.0292 -0.5849
16551TIP3   OH271143   5.761   4.451   2.038 -0.5137  0.3234 -0.7070
16551TIP3    H171144   5.824   4.517   2.066 -0.4215 -0.0277 -0.0744
16551TIP3    H271145   5.783   4.373   2.089  0.5268 -0.7636 -2.7843
16552TIP3   OH271146   0.753   6.659  14.766 -0.3199 -0.2403 -0.0983
16552TIP3    H171147   0.843   6.629  14.778  0.6450  1.5987 -2.3867
16552TIP3    H271148   0.715   6.598  14.703 -0.6910 -1.0206  0.8731
16553TIP3   OH271149   6.003   6.682  12.015 -0.0293  0.3142 -0.0511
16553TIP3    H171150   6.001   6.767  11.971  1.0072  1.1315  1.4493
16553TIP3    H271151   5.926   6.684  12.073 -0.0641  0.1749 -0.0920
16554TIP3   OH271152   2.592   4.407   2.584  0.3424 -0.3765 -0.8416
16554TIP3    H171153   2.510   4.357   2.585  0.8443 -1.1817 -0.2566
16554TIP3    H271154   2.586   4.460   2.504 -0.4880 -0.8650 -1.1087
16555TIP3   OH271155   5.326   1.999  14.230 -0.5550 -0.5138 -0.1149
16555TIP3    H171156   5.390   2.032  14.293 -1.6516  0.5329  0.4557
16555TIP3    H271157   5.285   1.924  14.274 -0.6859 -0.3389  0.0616
16556TIP3   OH271158   1.075   2.317  15.824  0.1778  0.3298 -0.1946
16556TIP3    H171159   1.025   2.291  15.747  1.2205 -0.8780 -0.4864
16556TIP3    H271160   1.044   2.259  15.894 -0.0141  0.7104  0.0395
16557TIP3   OH271161   0.909   6.203   2.095  0.1277  0.1690 -0.4492
16557TIP3    H171162   0.865   6.228   2.014 -0.8125 -3.2861 -1.0745
16557TIP3    H271163   0.950   6.119   2.076  1.0902 -0.0340  2.2484
16558TIP3   OH271164   2.511   4.277  15.628 -0.0553 -0.2935  0.6441
16558TIP3    H171165   2.437   4.336  15.643 -1.1041 -1.6880  1.1793
16558TIP3    H271166   2.482   4.222  15.554  0.2124 -1.2010  1.2027
16559TIP3   OH271167   3.619   2.860  11.723  0.0457  0.1123 -0.0655
16559TIP3    H171168   3.583   2.773  11.708  2.9139 -1.1269  0.0039
16559TIP3    H271169   3.652   2.858  11.812  1.5566  0.7423 -0.5991
16560TIP3   OH271170   3.356   1.610  15.048  0.3468  0.0648  0.2661
16560TIP3    H171171   3.285   1.558  15.011  1.7568 -1.5510 -0.2333
16560TIP3    H271172   3.345   1.696  15.010 -1.1976 -0.2296  0.0077
16561TIP3   OH271173   4.175   6.345   4.243 -0.1320  0.4360  0.1970
16561TIP3    H171174   4.145   6.270   4.294  0.9732  0.2965  0.6524
16561TIP3    H271175   4.269   6.331   4.232 -0.2799  0.6665 -1.5413
16562TIP3   OH271176   1.921   0.660  11.443 -0.3270 -0.1054  0.4635
16562TIP3    H171177   1.947   0.683  11.353 -0.4366  3.3611  1.2595
16562TIP3    H271178   2.004   0.642  11.488 -0.2069 -0.9021 -0.0578
16563TIP3   OH271179   1.202   1.691  16.051 -0.0017 -0.1204  0.6947
16563TIP3    H171180   1.180   1.598  16.042  1.6150 -0.5308  0.7950
16563TIP3    H271181   1.164   1.732  15.974 -2.1125 -0.5977  1.4609
16564TIP3   OH271182   4.874   4.690  16.047 -0.4469  0.1205  0.0979
16564TIP3    H171183   4.812   4.681  15.974  0.7238 -0.8286 -0.8067
16564TIP3    H271184   4.893   4.600  16.073 -2.0180  0.4791  2.6201
16565TIP3   OH271185   6.725   2.599  14.656  0.1779  0.3250 -0.2818
16565TIP3    H171186   6.791   2.565  14.596 -1.6786 -1.0474 -1.5929
16565TIP3    H271187   6.641   2.571  14.619 -1.0538  0.0873  2.5336
16566TIP3   OH271188   6.377   2.002  12.761 -0.5404 -0.8345  0.0207
16566TIP3    H171189   6.471   1.991  12.746 -0.2713  0.9621  0.2336
16566TIP3    H271190   6.372   2.051  12.843 -1.6906 -1.5480  0.3815
16567TIP3   OH271191   6.549   4.736   1.637 -0.6005 -0.3566  0.3013
16567TIP3    H171192   6.535   4.653   1.592  0.0192 -0.6286  0.5984
16567TIP3    H271193   6.643   4.751   1.630 -0.2996 -1.0564  2.6254
16568TIP3   OH271194   6.289   1.738   0.823 -0.4026 -0.3211 -0.0039
16568TIP3    H171195   6.317   1.649   0.802  0.5538  0.0194 -0.1809
16568TIP3    H271196   6.268   1.735   0.917 -0.3077 -0.7134  0.0049
16569TIP3   OH271197   0.305   5.406   6.216  0.1149  0.1084 -0.3323
16569TIP3    H171198   0.257   5.451   6.287  0.7055  0.0690  0.0957
16569TIP3    H271199   0.390   5.450   6.214  0.3049 -0.2749 -0.6332
16570TIP3   OH271200   3.003   1.486   2.117  0.3703  0.2944 -0.7386
16570TIP3    H171201   2.996   1.581   2.127 -0.6316 -0.0334  2.2612
16570TIP3    H271202   3.096   1.470   2.101  0.3791  1.8281 -2.4161
16571TIP3   OH271203   2.108   2.400   2.257 -0.2996  0.2517 -0.2529
16571TIP3    H171204   2.170   2.446   2.201 -0.9418  0.0378 -1.1612
16571TIP3    H271205   2.030   2.389   2.202 -0.8025 -0.3042  0.5584
16572TIP3   OH271206   4.729   4.185   4.652 -0.3037 -0.3210  1.0535
16572TIP3    H171207   4.656   4.125   4.668 -0.1056 -0.2498  2.3506
16572TIP3    H271208   4.721   4.251   4.722  0.1047  0.5560  0.2811
16573TIP3   OH271209   2.401   1.552  16.568  0.2141  0.3578 -0.1308
16573TIP3    H171210   2.319   1.509  16.546 -0.7887  1.7569  0.7576
16573TIP3    H271211   2.437   1.501  16.641  0.1031 -0.2084 -0.4743
16574TIP3   OH271212   0.420   6.259   3.884 -0.1511  0.8448  0.1446
16574TIP3    H171213   0.452   6.302   3.964 -0.8927  2.6555 -0.5073
16574TIP3    H271214   0.334   6.224   3.907  0.7859 -1.0531  0.9078
16575TIP3   OH271215   4.918   2.901  11.034  0.2203  0.2929  0.4056
16575TIP3    H171216   4.837   2.950  11.050 -0.1406 -0.1246 -0.1557
16575TIP3    H271217   4.947   2.873  11.121 -0.4133  0.1544  0.5706
16576TIP3   OH271218   1.341   4.358  16.472  0.1368 -0.0327 -0.3917
16576TIP3    H171219   1.369   4.287  16.530  0.0045 -0.0375 -0.3350
16576TIP3    H271220   1.388   4.435  16.504  1.1367 -0.3238 -1.1518
16577TIP3   OH271221   5.735   0.391   4.693 -0.1249 -0.1983  0.8658
16577TIP3    H171222   5.816   0.341   4.684  0.1370  0.3256  0.2310
16577TIP3    H271223   5.707   0.407   4.603 -0.6639  0.0542  1.0778
16578TIP3   OH271224   6.066   0.066  16.850  0.2178 -0.3663  1.1446
16578TIP3    H171225   6.127   0.008  16.896  0.6870  0.8409  2.0713
16578TIP3    H271226   5.980   0.027  16.866  0.6554 -1.6629  0.4607
16579TIP3   OH271227   5.952   4.096   6.020 -0.0009  0.0368  0.7281
16579TIP3    H171228   5.960   4.055   6.106 -0.0281 -1.0891  0.2169
16579TIP3    H271229   6.042   4.107   5.990  0.0004  0.1699  0.7820
16580TIP3   OH271230   6.711   1.860  16.548  0.0785 -0.0509 -0.0864
16580TIP3    H171231   6.783   1.852  16.610  0.8279 -1.1873 -1.0718
16580TIP3    H271232   6.711   1.953  16.523  1.2265 -0.0510 -0.0994
16581TIP3   OH271233   2.559   2.177  15.212  0.1425  0.5749  0.6559
16581TIP3    H171234   2.548   2.196  15.305 -0.3337 -3.4669  1.5249
16581TIP3    H271235   2.642   2.130  15.207 -0.9915 -1.3480 -0.5897
16582TIP3   OH271236   3.142   3.523  14.492 -0.1500  0.1318  0.2106
16582TIP3    H171237   3.085   3.573  14.434 -1.1358 -0.4367  0.6780
16582TIP3    H271238   3.151   3.578  14.570  0.2410  0.3878 -0.0185
16583TIP3   OH271239   3.905   0.341   5.367  0.0531  0.0022  0.0845
16583TIP3    H171240   3.956   0.384   5.435  0.5471 -0.6719  0.1409
16583TIP3    H271241   3.965   0.277   5.329  0.3321  1.5167 -2.1132
16584TIP3   OH271242   6.536   3.970  11.298  0.2217 -0.2913  0.2587
16584TIP3    H171243   6.446   4.003  11.301  0.1415 -0.4779  0.0099
16584TIP3    H271244   6.534   3.892  11.354  0.4738  0.2695  1.0617
16585TIP3   OH271245   6.726   4.892  10.686 -0.5710  0.3847  0.8121
16585TIP3    H171246   6.800   4.905  10.627 -2.0765 -1.5514 -1.6172
16585TIP3    H271247   6.765   4.854  10.765  1.1280  0.2662 -0.0573
16586TIP3   OH271248   6.423   2.071   1.709  0.0728 -0.0273  0.3630
16586TIP3    H171249   6.480   2.078   1.632  1.4107  0.9687  1.4162
16586TIP3    H271250   6.383   1.985   1.701  0.4867 -0.0974 -1.2463
16587TIP3   OH271251   2.168   3.152  12.818 -0.7513 -0.1351 -0.6502
16587TIP3    H171252   2.230   3.079  12.813  0.9684  1.2363  0.0097
16587TIP3    H271253   2.158   3.170  12.912 -0.9862  0.6101 -0.8081
16588TIP3   OH271254   3.400   0.589  12.397  0.1415  0.3904  0.0809
16588TIP3    H171255   3.368   0.568  12.485 -0.0170  2.1866  0.4511
16588TIP3    H271256   3.495   0.584  12.404  0.1101 -0.0957  0.1873
16589TIP3   OH271257   4.270   2.486   0.340  0.2441 -0.3648  0.3927
16589TIP3    H171258   4.187   2.533   0.346 -0.0950 -1.0144  0.7773
16589TIP3    H271259   4.335   2.546   0.376  0.0823  0.4910 -0.7048
16590TIP3   OH271260   5.111   1.653  13.073  0.1760 -0.0943  0.3382
16590TIP3    H171261   5.197   1.693  13.069  0.3421 -0.5071 -0.4672
16590TIP3    H271262   5.127   1.560  13.054 -0.4685 -0.1248 -0.0856
16591TIP3   OH271263   4.004   5.873  16.973 -0.1415  0.1692 -0.3047
16591TIP3    H171264   4.054   5.950  16.999  0.3527  0.8114 -3.0404
16591TIP3    H271265   3.920   5.884  17.016  0.3381  1.6267  0.3099
16592TIP3   OH271266   1.578   5.359  13.152  0.0113 -0.4242  0.2166
16592TIP3    H171267   1.563   5.452  13.138  1.0718 -0.2701  0.1132
16592TIP3    H271268   1.549   5.344  13.242 -1.1647 -0.2231 -0.1119
16593TIP3   OH271269   4.995   4.998  13.415  0.1919 -0.0719 -0.4429
16593TIP3    H171270   5.076   4.992  13.465  0.6465  0.5082 -1.1001
16593TIP3    H271271   5.000   4.926  13.353 -0.7352 -1.2818  0.8458
16594TIP3   OH271272   1.228   4.085   2.964  0.5626  0.9508  0.5935
16594TIP3    H171273   1.145   4.120   2.930 -0.8967 -0.8884  2.1759
16594TIP3    H271274   1.270   4.160   3.006 -0.5766  1.7702  0.2963
16595TIP3   OH271275   5.239   4.442  11.497  0.8891 -0.4446 -0.5456
16595TIP3    H171276   5.326   4.483  11.498  0.2796  0.8749 -1.3434
16595TIP3    H271277   5.178   4.513  11.479 -0.5665 -1.0704  1.7546
16596TIP3   OH271278   5.695   0.391  16.567 -0.1710 -0.2074 -0.0304
16596TIP3    H171279   5.719   0.463  16.626 -0.6605 -1.1843  1.3784
16596TIP3    H271280   5.660   0.435  16.489  0.2403  1.0920  0.5056
16597TIP3   OH271281   1.317   4.542  13.643  0.1927 -0.5947 -0.2636
16597TIP3    H171282   1.231   4.502  13.661 -0.6869  1.1998 -0.3862
16597TIP3    H271283   1.297   4.633  13.624  2.0698 -0.3633 -1.1658
16598TIP3   OH271284   3.566   4.397  15.637 -0.0172  0.7762  0.5534
16598TIP3    H171285   3.494   4.450  15.604  0.1432  0.8433  0.3071
16598TIP3    H271286   3.525   4.335  15.697 -0.4991 -0.3055 -0.8874
16599TIP3   OH271287   0.725   4.902   2.436  0.6533  0.3727  0.0239
16599TIP3    H171288   0.674   4.902   2.355 -1.3798 -1.1177  1.2498
16599TIP3    H271289   0.699   4.983   2.480  0.6968  0.4906 -0.1645
16600TIP3   OH271290   2.486   4.378  16.983  0.3532 -0.2905 -0.5660
16600TIP3    H171291   2.478   4.377  17.079 -1.2409  0.1027 -0.6895
16600TIP3    H271292   2.572   4.341  16.966  0.8431  0.0781  1.0518
16601TIP3   OH271293   1.785   1.068   0.620  0.5863 -0.7318 -0.1473
16601TIP3    H171294   1.722   1.130   0.655  1.6718  1.3081 -1.7089
16601TIP3    H271295   1.830   1.033   0.697  0.5868  1.1170  0.7188
16602TIP3   OH271296   0.947   1.142   4.075  0.1203 -0.1691  0.6603
16602TIP3    H171297   1.009   1.093   4.021 -0.4157  0.1065 -0.2061
16602TIP3    H271298   0.964   1.112   4.164  0.2918 -1.3809  0.2199
16603TIP3   OH271299   3.120   5.427   0.132 -0.1152  0.1764  0.8475
16603TIP3    H171300   3.105   5.515   0.098  0.9694  0.6420  1.5622
16603TIP3    H271301   3.038   5.404   0.175 -1.5423 -0.4468 -2.0854
16604TIP3   OH271302   5.502   3.506   1.872 -0.2615 -0.2109 -0.1265
16604TIP3    H171303   5.590   3.541   1.883  0.2176 -0.5314 -2.6990
16604TIP3    H271304   5.451   3.580   1.840 -0.8652 -0.1298  0.9821
16605TIP3   OH271305   1.895   4.754   4.351  0.3615 -0.2990  0.0902
16605TIP3    H171306   1.985   4.732   4.374  0.2922 -0.6368  0.0415
16605TIP3    H271307   1.847   4.671   4.359  0.1802 -0.2505 -0.5013
16606TIP3   OH271308   0.243   1.093  15.786 -0.3568 -1.0759  0.2389
16606TIP3    H171309   0.254   1.128  15.698  0.8232 -0.0215  0.7816
16606TIP3    H271310   0.331   1.096  15.824 -0.8507 -1.4986  1.4509
16607TIP3   OH271311   2.979   1.109   3.001  0.1086  0.0077 -0.2605
16607TIP3    H171312   2.926   1.182   3.034  0.6111 -0.2782  1.2501
16607TIP3    H271313   3.061   1.149   2.973  0.1171  0.1143 -0.0831
16608TIP3   OH271314   5.278   4.856   4.071  0.4853 -0.4991 -0.0803
16608TIP3    H171315   5.208   4.901   4.024  1.3833 -0.8485 -1.7850
16608TIP3    H271316   5.324   4.926   4.117 -0.4961 -0.1700  0.4104
16609TIP3   OH271317   0.217   2.907  12.451  0.1514  0.2960 -0.5392
16609TIP3    H171318   0.253   2.966  12.385 -1.6825  2.3243  0.2173
16609TIP3    H271319   0.259   2.934  12.533 -1.7320  1.4862  0.0414
16610TIP3   OH271320   3.954   6.321   0.026  0.0689  0.3578  0.3183
16610TIP3    H171321   3.867   6.289   0.047  0.6002 -1.0704  0.3886
16610TIP3    H271322   3.945   6.416   0.025 -1.5044  0.2190  0.2340
16611TIP3   OH271323   0.523   2.202   2.467 -0.0506  0.3566 -0.0223
16611TIP3    H171324   0.451   2.177   2.409 -1.7768  1.3704  1.6051
16611TIP3    H271325   0.562   2.279   2.425  1.5647 -1.5556 -2.0738
16612TIP3   OH271326   4.520   2.508   4.374 -0.3958  0.3620  0.4965
16612TIP3    H171327   4.456   2.446   4.410 -0.3241  0.0011  0.0024
16612TIP3    H271328   4.603   2.481   4.414  0.2612 -2.0362 -2.3130
16613TIP3   OH271329   3.033   1.667  12.777 -0.1651  0.5843  0.9891
16613TIP3    H171330   3.005   1.739  12.720  1.0195 -0.7652 -1.4246
16613TIP3    H271331   2.956   1.610  12.782  0.4944 -0.6451 -1.5839
16614TIP3   OH271332   5.408   3.887  11.241  0.5823 -0.4444  0.0179
16614TIP3    H171333   5.335   3.825  11.245  1.3770 -1.4092 -0.1922
16614TIP3    H271334   5.464   3.863  11.315  1.0447 -0.1682 -0.2407
16615TIP3   OH271335   2.818   0.050  12.151 -0.0765 -0.5851  0.0933
16615TIP3    H171336   2.849   0.074  12.064 -0.4212 -0.1105  0.1018
16615TIP3    H271337   2.883  -0.012  12.183 -0.2143 -1.1384 -0.6958
16616TIP3   OH271338   4.337   5.852   0.446  0.1114 -0.2676 -0.0317
16616TIP3    H171339   4.244   5.868   0.429  0.3882  1.6605  0.1093
16616TIP3    H271340   4.340   5.819   0.535 -0.3998  0.2010  0.1632
16617TIP3   OH271341   4.105   4.777  12.607 -0.0856  0.3495 -0.2300
16617TIP3    H171342   4.114   4.684  12.587  1.2230  0.6248 -0.9637
16617TIP3    H271343   4.018   4.785  12.645  0.2471 -1.3846  0.9639
16618TIP3   OH271344   3.048   2.037  16.314  0.6900  0.2630 -0.2336
16618TIP3    H171345   3.007   1.952  16.299  1.4557 -0.3047  0.7540
16618TIP3    H271346   3.057   2.043  16.409 -1.4530  2.4815 -0.1290
16619TIP3   OH271347   6.113   3.727  15.632 -0.0298 -0.2977 -0.2517
16619TIP3    H171348   6.099   3.811  15.590  1.6895 -0.1935 -0.6155
16619TIP3    H271349   6.115   3.664  15.560  1.5962 -0.2823 -0.2228
16620TIP3   OH271350   1.712   5.063  15.845 -0.3681  0.2922 -0.3737
16620TIP3    H171351   1.766   5.085  15.921  1.0738  1.9112 -1.8369
16620TIP3    H271352   1.739   4.973  15.822  2.1990  1.2728 -1.4315
16621TIP3   OH271353   4.752   3.653  16.811 -0.0282 -0.2354 -0.5534
16621TIP3    H171354   4.845   3.632  16.822  0.5270  1.4878 -1.7172
16621TIP3    H271355   4.715   3.643  16.899  1.1648 -1.3915 -0.1693
16622TIP3   OH271356   6.445   6.506  11.400 -0.5910  0.8986  0.6253
16622TIP3    H171357   6.538   6.517  11.377 -0.5432  1.5996  1.1357
16622TIP3    H271358   6.404   6.478  11.318 -0.0461  1.2496  0.2181
16623TIP3   OH271359   5.650   4.058   0.867 -0.1673 -0.4847  0.3144
16623TIP3    H171360   5.646   4.073   0.772  2.3646  0.7281  0.3563
16623TIP3    H271361   5.655   4.145   0.905 -0.9039 -0.9814  1.5729
16624TIP3   OH271362   5.233   4.642   0.384  0.4861  0.3222  0.8901
16624TIP3    H171363   5.282   4.711   0.429  1.3272 -0.0437  0.5494
16624TIP3    H271364   5.271   4.639   0.296 -1.5563  1.4433 -0.0523
16625TIP3   OH271365   4.762   3.756  13.785  0.2933 -0.6346 -0.7291
16625TIP3    H171366   4.740   3.671  13.747  0.1088 -0.9471  0.0775
16625TIP3    H271367   4.843   3.781  13.740 -1.0671  0.0143 -2.9065
16626TIP3   OH271368   3.137   6.636   3.750 -0.2861  0.3364 -0.1783
16626TIP3    H171369   3.109   6.566   3.809 -1.3915  0.1484 -0.8971
16626TIP3    H271370   3.214   6.601   3.705  0.9542  0.7234  1.5813
16627TIP3   OH271371   3.351   3.431   5.525 -0.5801  0.2421  0.4756
16627TIP3    H171372   3.357   3.370   5.599 -1.4786 -0.8907 -0.3634
16627TIP3    H271373   3.442   3.442   5.496 -0.4745 -1.2998  0.1701
16628TIP3   OH271374   3.226   6.285  16.395 -0.7060 -0.4182  0.3523
16628TIP3    H171375   3.131   6.283  16.391 -0.7695 -1.3438  1.7582
16628TIP3    H271376   3.254   6.209  16.344 -0.6478  0.8295 -1.4980
16629TIP3   OH271377   3.885   5.051  11.401 -0.0736 -0.4310  0.0121
16629TIP3    H171378   3.813   5.096  11.358  0.4597 -1.3122 -1.8391
16629TIP3    H271379   3.955   5.116  11.404 -0.6161  0.1349  1.0097
16630TIP3   OH271380   0.200   4.089  15.282  0.2573 -0.3546  0.5563
16630TIP3    H171381   0.164   4.061  15.198  0.8112 -1.7510  0.7805
16630TIP3    H271382   0.255   4.016  15.311  0.3936  0.2771  1.9393
16631TIP3   OH271383   4.713   4.600   0.109 -0.6954 -0.1710  0.2568
16631TIP3    H171384   4.717   4.536   0.180 -0.5909  0.9370  1.2632
16631TIP3    H271385   4.800   4.642   0.109  0.5177 -2.4471 -2.7083
16632TIP3   OH271386   0.551   2.479  17.246 -0.1959 -0.1040  0.2078
16632TIP3    H171387   0.540   2.384  17.247 -2.0047  0.0816  0.5342
16632TIP3    H271388   0.464   2.513  17.224  0.4123  1.4757  0.1641
16633TIP3   OH271389   2.803   1.886   0.443  0.8707  0.9088  0.2225
16633TIP3    H171390   2.867   1.947   0.480  1.7729  0.1552 -0.0829
16633TIP3    H271391   2.838   1.800   0.463  0.0218  0.4844 -0.0914
16634TIP3   OH271392   5.457   4.807   2.302  0.2473 -0.3650 -0.0400
16634TIP3    H171393   5.377   4.762   2.329 -0.1499 -0.2902 -1.0469
16634TIP3    H271394   5.464   4.883   2.360  0.3454 -1.1338  0.9702
16635TIP3   OH271395   2.450   3.020   5.835  0.8126 -0.7332 -0.1421
16635TIP3    H171396   2.475   2.935   5.870  1.4340  0.0070  1.2476
16635TIP3    H271397   2.402   3.000   5.755 -1.4026 -2.5004  1.5873
16636TIP3   OH271398   4.395   5.250   5.583 -0.2872 -0.0222 -0.2110
16636TIP3    H171399   4.442   5.319   5.630 -3.5313  1.8612  0.4521
16636TIP3    H271400   4.377   5.183   5.650 -0.4550  0.2737  0.0398
16637TIP3   OH271401   3.431   4.155  14.113 -0.5842  0.1398  0.0723
16637TIP3    H171402   3.408   4.151  14.020 -1.3476  1.1901  0.2086
16637TIP3    H271403   3.351   4.130  14.159 -0.1712 -0.5092  0.4538
16638TIP3   OH271404   4.583   6.542   5.919 -0.2662  0.4271 -0.1258
16638TIP3    H171405   4.499   6.507   5.949  0.1721 -0.7264 -0.2467
16638TIP3    H271406   4.572   6.637   5.925 -1.2227  0.2667  0.8510
16639TIP3   OH271407   5.521   3.464  12.578 -0.2589 -0.2009  0.2268
16639TIP3    H171408   5.482   3.392  12.529  0.2382 -0.8938  0.8335
16639TIP3    H271409   5.451   3.495  12.634  0.0567 -1.4709  1.3484
16640TIP3   OH271410   3.944   5.055   0.024 -0.2161 -0.0380 -0.1474
16640TIP3    H171411   3.875   5.095  -0.028 -0.4560 -1.1133 -0.6773
16640TIP3    H271412   3.926   5.084   0.114 -0.8548  0.3757 -0.4030
16641TIP3   OH271413   6.609   5.608  13.778  0.1077 -0.0862  0.1319
16641TIP3    H171414   6.537   5.670  13.786  1.0008  0.8944  0.6975
16641TIP3    H271415   6.571   5.524  13.804 -0.6005  0.5776  1.2785
16642TIP3   OH271416   0.701   2.505  13.408 -0.1554  0.2809  0.1084
16642TIP3    H171417   0.666   2.416  13.415  0.9802 -0.2779 -0.9941
16642TIP3    H271418   0.681   2.545  13.493 -4.6338  0.4891 -0.9607
16643TIP3   OH271419   1.538   6.698  16.315  0.3317 -0.0137  0.6450
16643TIP3    H171420   1.488   6.775  16.290 -0.4622 -1.0897 -1.1851
16643TIP3    H271421   1.626   6.731  16.333 -0.9093  1.8363  3.5510
16644TIP3   OH271422   0.061   5.438   1.547  0.0652  0.5879  0.5673
16644TIP3    H171423   0.106   5.523   1.547 -0.4236  0.8911 -2.7841
16644TIP3    H271424   0.130   5.374   1.564  1.1873  1.3473 -1.0195
16645TIP3   OH271425   5.175   4.423  13.322 -0.8757 -0.2424 -0.2304
16645TIP3    H171426   5.262   4.400  13.289  0.2122  1.4096  1.3528
16645TIP3    H271427   5.129   4.339  13.330  0.8069 -1.2065 -0.4300
16646TIP3   OH271428   5.649   3.308   2.730 -0.2374  0.2690  0.5532
16646TIP3    H171429   5.556   3.330   2.730 -0.7854 -1.8734 -0.4233
16646TIP3    H271430   5.654   3.222   2.773  1.3908  0.7132  1.3162
16647TIP3   OH271431   5.730   3.977   1.695 -0.9217 -0.0891 -0.2749
16647TIP3    H171432   5.798   3.967   1.629  1.8607 -0.5369  2.5164
16647TIP3    H271433   5.701   4.068   1.687  1.9948  0.9315  0.2398
16648TIP3   OH271434   1.755   0.228   5.138  0.8141  0.4096 -1.0223
16648TIP3    H171435   1.734   0.206   5.229  1.7438 -1.3017 -1.2103
16648TIP3    H271436   1.724   0.318   5.128 -0.7076  0.0847  0.5248
16649TIP3   OH271437   2.757   0.375  13.562 -0.1698 -0.2561  0.0976
16649TIP3    H171438   2.753   0.335  13.475  0.7701 -0.6203  0.2203
16649TIP3    H271439   2.674   0.352  13.603 -0.5604 -0.2014 -0.6478
16650TIP3   OH271440   6.227   4.326   2.328 -0.3712  0.7019  0.0705
16650TIP3    H171441   6.233   4.288   2.416 -1.7140  2.2091  0.8537
16650TIP3    H271442   6.315   4.356   2.308 -0.5131  2.5159  1.9461
16651TIP3   OH271443   4.235   0.451  12.607  0.0421  0.0566  0.3026
16651TIP3    H171444   4.268   0.537  12.584  0.5205  0.4913  2.5338
16651TIP3    H271445   4.311   0.393  12.602 -0.1330 -0.1144 -0.4896
16652TIP3   OH271446   1.872   1.713   5.939  0.5284  0.0230 -0.1513
16652TIP3    H171447   1.921   1.633   5.960  0.2124 -0.3674 -0.8807
16652TIP3    H271448   1.934   1.784   5.953  0.8080 -0.3431  0.5301
16653TIP3   OH271449   0.428   4.416   1.140  0.0706  0.4255  0.2040
16653TIP3    H171450   0.471   4.379   1.062  0.1484 -1.3825  1.0768
16653TIP3    H271451   0.491   4.400   1.211 -0.4152  1.1996  0.8120
16654TIP3   OH271452   2.093   4.235   0.646 -0.5437  0.1714  0.2894
16654TIP3    H171453   2.075   4.149   0.686 -0.6763  0.1219  0.1224
16654TIP3    H271454   2.051   4.231   0.560 -0.8850  0.5427  0.4352
16655TIP3   OH271455   1.244   2.590  17.008  0.3513 -0.2495  0.5286
16655TIP3    H171456   1.276   2.657  16.947 -1.5811 -1.3948 -1.8678
16655TIP3    H271457   1.157   2.620  17.032 -0.1602 -1.4120  0.1662
16656TIP3   OH271458   4.550   3.987  12.696 -0.0801 -0.3018 -0.6431
16656TIP3    H171459   4.475   3.929  12.705  0.4043 -0.7710  0.6336
16656TIP3    H271460   4.515   4.075  12.711 -0.1164 -0.6660  1.6532
16657TIP3   OH271461   3.168   4.265  14.918 -0.2589 -0.0861 -0.3474
16657TIP3    H171462   3.207   4.296  14.836 -0.6064 -0.0572 -0.5046
16657TIP3    H271463   3.241   4.258  14.979 -0.2470  1.6301 -0.1309
16658TIP3   OH271464   3.447   5.353  16.791  0.2138  0.2609 -0.1847
16658TIP3    H171465   3.537   5.383  16.779  0.4985 -0.2567  0.5964
16658TIP3    H271466   3.446   5.264  16.755 -0.7078  1.2889 -2.7989
16659TIP3   OH271467   3.122   1.838   1.188  0.1372 -0.0580 -0.2531
16659TIP3    H171468   3.163   1.917   1.153  0.5413 -0.3571 -0.4574
16659TIP3    H271469   3.196   1.784   1.216 -0.1321 -0.4662 -0.3392
16660TIP3   OH271470   0.314   1.597   2.817 -0.3898 -0.1060 -0.2958
16660TIP3    H171471   0.228   1.615   2.855 -0.4406  0.9279 -0.8833
16660TIP3    H271472   0.345   1.683   2.787 -0.5066 -0.9553 -2.9425
16661TIP3   OH271473   5.640   6.129   1.461  0.1473  0.2981 -0.1550
16661TIP3    H171474   5.625   6.114   1.554 -0.6122  2.7296  0.1485
16661TIP3    H271475   5.727   6.169   1.457 -0.0205  0.6428 -0.4357
16662TIP3   OH271476   3.270   1.301   2.512  0.0251  0.7261  0.0585
16662TIP3    H171477   3.188   1.337   2.478 -0.5926 -1.3491 -0.6905
16662TIP3    H271478   3.277   1.215   2.471  2.8000  1.0588 -0.2031
16663TIP3   OH271479   4.349   4.552  14.023 -0.2897 -0.4157 -0.4510
16663TIP3    H171480   4.337   4.557  13.928  0.9387 -0.5340 -0.6174
16663TIP3    H271481   4.337   4.642  14.053 -2.3203 -0.6461 -0.5083
16664TIP3   OH271482   5.408   4.436  15.131 -0.0760 -0.0649 -0.5542
16664TIP3    H171483   5.488   4.425  15.181  2.0287  1.7745 -3.3191
16664TIP3    H271484   5.343   4.465  15.195  1.4496 -1.5704  1.7247
16665TIP3   OH271485   1.631   0.836   4.543 -0.6223  0.1952  0.1756
16665TIP3    H171486   1.550   0.830   4.595  0.7811 -1.4302  2.2643
16665TIP3    H271487   1.694   0.781   4.590  1.1176 -0.2499 -2.5502
16666TIP3   OH271488   4.525   4.893  12.409 -0.4402  0.0463 -0.0399
16666TIP3    H171489   4.614   4.863  12.431  0.0543  1.3989 -0.1580
16666TIP3    H271490   4.470   4.857  12.478 -0.0787 -2.3052 -0.9439
16667TIP3   OH271491   1.023   4.134  14.488  0.1182  0.1980 -0.4356
16667TIP3    H171492   0.931   4.162  14.492 -0.4991 -1.5629 -1.4921
16667TIP3    H271493   1.061   4.164  14.570 -2.0079 -1.0021  1.0563
16668TIP3   OH271494   6.075   6.069  15.890  0.6742 -0.2122  0.4791
16668TIP3    H171495   6.139   6.137  15.870  1.5834 -1.0858  0.4157
16668TIP3    H271496   6.002   6.087  15.831 -0.3099  2.4008  2.4100
16669TIP3   OH271497   1.049   2.256  10.665 -0.2274 -1.0048 -0.0633
16669TIP3    H171498   1.078   2.330  10.719 -1.3187 -1.2628  0.8918
16669TIP3    H271499   0.985   2.294  10.605 -0.8160 -1.1819  0.4530
16670TIP3   OH271500   5.524   4.507  17.237  0.0090  0.4447 -0.1942
16670TIP3    H171501   5.475   4.426  17.224 -0.6574  0.8280 -0.1049
16670TIP3    H271502   5.464   4.564  17.286 -0.2351  1.6782 -1.8585
16671TIP3   OH271503   2.394   5.647  15.010 -0.8371  0.4761  0.0733
16671TIP3    H171504   2.317   5.592  14.995 -1.6718  1.8625 -0.7572
16671TIP3    H271505   2.446   5.638  14.930  0.1174 -0.8369  0.8244
16672TIP3   OH271506   5.228   4.707   2.609  0.0895  0.3917 -0.0230
16672TIP3    H171507   5.264   4.783   2.653 -0.1052  0.8979 -0.7361
16672TIP3    H271508   5.264   4.632   2.657  1.0367  0.9139  0.0793
16673TIP3   OH271509   0.465   1.145  12.808  0.1496  0.1109 -0.2282
16673TIP3    H171510   0.489   1.213  12.870  0.8013 -0.1581 -0.1799
16673TIP3    H271511   0.413   1.082  12.859  1.4389 -0.5689  0.2679
16674TIP3   OH271512   1.534   2.217  12.767 -0.0086  0.2597  0.2441
16674TIP3    H171513   1.616   2.225  12.717  0.8983 -0.3497  1.6099
16674TIP3    H271514   1.549   2.268  12.846 -0.9148  0.0317  0.5703
16675TIP3   OH271515   5.625   5.039   1.614  0.1508 -0.0103 -0.4357
16675TIP3    H171516   5.578   4.975   1.668  0.8422  1.0582  1.4786
16675TIP3    H271517   5.672   4.986   1.550 -1.2654 -1.2606 -0.4790
16676TIP3   OH271518   3.328   4.085  13.257  0.2627  0.1939 -0.2373
16676TIP3    H171519   3.382   4.075  13.179 -0.0965 -0.2967 -0.4238
16676TIP3    H271520   3.268   4.157  13.236  0.2742  0.1695 -0.3512
16677TIP3   OH271521   1.709   2.642   0.824  0.4911  0.4353 -0.8692
16677TIP3    H171522   1.715   2.566   0.882 -0.2766  1.0769  0.0702
16677TIP3    H271523   1.627   2.685   0.849  1.8778  2.6682 -0.0346
16678TIP3   OH271524   0.515   1.424  17.181 -0.1169 -0.1150  0.1380
16678TIP3    H171525   0.433   1.462  17.214 -0.6923 -0.6886 -0.5866
16678TIP3    H271526   0.539   1.480  17.108 -1.3587 -1.5060 -1.3975
16679TIP3   OH271527   4.728   4.164  16.704 -0.1116 -0.0287  0.4943
16679TIP3    H171528   4.717   4.200  16.616 -1.6597 -2.5074 -0.3712
16679TIP3    H271529   4.673   4.086  16.706  0.5474 -0.5017  3.4031
16680TIP3   OH271530   4.907   4.274  11.601 -0.2015  0.0618 -0.0738
16680TIP3    H171531   4.964   4.306  11.672 -0.5541  1.1812 -0.2819
16680TIP3    H271532   4.912   4.179  11.608  0.0772  0.1523  1.2164
16681TIP3   OH271533   5.623   2.056   3.027 -0.2647  0.0434 -0.7968
16681TIP3    H171534   5.587   2.132   3.074  1.0713 -0.1467  0.5637
16681TIP3    H271535   5.644   2.090   2.940  0.5738  1.3325 -0.1137
16682TIP3   OH271536   0.952   4.832  13.233  0.0518 -0.4902 -0.1076
16682TIP3    H171537   0.859   4.813  13.223 -0.3771  1.4932  0.0554
16682TIP3    H271538   0.995   4.757  13.192 -1.6000 -1.5614  0.0569
16683TIP3   OH271539   5.309   3.181  11.347  0.0862  0.0088 -0.2456
16683TIP3    H171540   5.262   3.263  11.330  1.0090  0.7226  0.5204
16683TIP3    H271541   5.377   3.177  11.280  0.0096 -0.1591 -0.3139
16684TIP3   OH271542   3.813   1.259  16.050  0.6125  0.9464  0.0792
16684TIP3    H171543   3.843   1.232  15.963  3.4348 -1.7235  1.7696
16684TIP3    H271544   3.863   1.339  16.069  1.2430  0.5977 -0.0876
16685TIP3   OH271545   3.754   0.557  12.061  0.2416  0.1960 -0.1768
16685TIP3    H171546   3.659   0.548  12.057  0.1199  1.0447  0.6152
16685TIP3    H271547   3.774   0.632  12.005  0.4363  0.0688 -0.2785
16686TIP3   OH271548   6.037   6.085   1.754 -0.1962  0.0900  0.0549
16686TIP3    H171549   6.044   6.146   1.681  0.1673  0.6572  0.5551
16686TIP3    H271550   6.108   6.022   1.741 -0.5287 -0.1871 -0.4253
16687TIP3   OH271551   5.521   4.005   3.086 -0.0251 -0.0625  0.0954
16687TIP3    H171552   5.605   4.028   3.046  0.2698  1.9544  1.7744
16687TIP3    H271553   5.524   4.045   3.173 -2.0103 -1.4910  0.8581
16688TIP3   OH271554   0.940   4.840  16.888  0.1702  0.2933  0.1272
16688TIP3    H171555   0.948   4.931  16.861 -2.9815  1.4562  2.8567
16688TIP3    H271556   0.918   4.844  16.980  3.1468 -3.3828  1.1255
16689TIP3   OH271557   6.527   2.025  16.851 -0.7096  0.1975  0.3155
16689TIP3    H171558   6.449   2.023  16.906 -0.9452  1.3866  0.0464
16689TIP3    H271559   6.497   1.998  16.764 -0.7759  0.4174  0.2694
16690TIP3   OH271560   5.929   6.412   1.972  0.4773  0.6972  0.0028
16690TIP3    H171561   5.847   6.447   2.007  1.5624  2.9670  0.3870
16690TIP3    H271562   5.987   6.407   2.047  1.2293  0.6882 -0.5731
16691TIP3   OH271563   1.226   6.281  11.431  0.0340 -0.2936  0.2604
16691TIP3    H171564   1.284   6.227  11.377 -0.0645  0.1131 -0.2555
16691TIP3    H271565   1.246   6.371  11.404  0.0003 -0.0920  0.9216
16692TIP3   OH271566   1.267   5.416  11.936  0.3680  0.0345 -0.7140
16692TIP3    H171567   1.306   5.361  11.868 -4.4362  0.2938 -3.8670
16692TIP3    H271568   1.264   5.503  11.898 -0.1469  0.7193  0.8371
16693TIP3   OH271569   1.847   5.471   2.699  0.0276 -0.3204  0.3572
16693TIP3    H171570   1.827   5.437   2.786 -0.4009 -0.4378  0.2105
16693TIP3    H271571   1.919   5.416   2.667  0.7028  0.2096  0.9503
16694TIP3   OH271572   2.599   4.921   3.521 -0.8183 -0.0131 -0.0615
16694TIP3    H171573   2.536   4.982   3.483  0.8963  1.2888 -0.8696
16694TIP3    H271574   2.584   4.927   3.615 -0.3870  1.9788 -0.1056
16695TIP3   OH271575   1.015   3.263  12.182 -0.1504 -0.0755 -0.0526
16695TIP3    H171576   0.998   3.311  12.101 -0.9136  1.0501  0.7679
16695TIP3    H271577   1.095   3.302  12.217 -0.5391  0.3078  0.4014
16696TIP3   OH271578   6.280   3.826   0.517  0.6790 -1.1958  0.5004
16696TIP3    H171579   6.210   3.825   0.452 -0.4016 -0.2053  1.6454
16696TIP3    H271580   6.345   3.887   0.481  1.4665 -2.8663 -1.0389
16697TIP3   OH271581   2.869   6.639  16.951 -0.0688  0.0608  0.2086
16697TIP3    H171582   2.815   6.636  16.871 -0.8967 -1.7071  0.7951
16697TIP3    H271583   2.917   6.556  16.950 -0.1096  0.0167  1.5762
16698TIP3   OH271584   4.619   6.014   1.471 -0.1046  0.5885 -0.4428
16698TIP3    H171585   4.604   5.997   1.378 -0.2338  0.5443 -0.4141
16698TIP3    H271586   4.650   5.930   1.506 -0.0221  0.6150 -0.4537
16699TIP3   OH271587   0.471   3.281  16.188 -0.1822  0.3778  0.6515
16699TIP3    H171588   0.540   3.320  16.134  0.5713 -1.0296  0.5521
16699TIP3    H271589   0.465   3.338  16.264  0.7629  0.7904  0.4274
16700TIP3   OH271590   5.451   1.685   2.270 -0.5230  0.3521  0.5508
16700TIP3    H171591   5.458   1.780   2.260 -0.7459  0.0283 -3.5534
16700TIP3    H271592   5.540   1.652   2.255 -1.1386 -0.2909 -1.9686
16701TIP3   OH271593   4.827   1.925   0.778 -0.2388 -0.1643  0.6934
16701TIP3    H171594   4.735   1.947   0.794 -1.2216 -2.0420 -2.1239
16701TIP3    H271595   4.836   1.834   0.806  0.1462 -0.7496 -1.2723
16702TIP3   OH271596   5.910   3.583  13.692  0.0112 -0.1305  0.6947
16702TIP3    H171597   5.966   3.524  13.641 -0.1420  1.1345 -1.0054
16702TIP3    H271598   5.822   3.566  13.659 -0.2437 -0.1224  1.3730
16703TIP3   OH271599   5.819   0.456   2.873  0.4242  0.2282  0.9161
16703TIP3    H171600   5.851   0.389   2.933 -0.6193  0.7432  2.0662
16703TIP3    H271601   5.897   0.481   2.822  1.8846  1.3846  3.6020
16704TIP3   OH271602   6.436   2.984   6.497  0.2225  0.0227 -0.5020
16704TIP3    H171603   6.349   3.013   6.524  0.2647  0.4995 -0.8783
16704TIP3    H271604   6.496   3.051   6.530  0.5233 -0.6634  0.3707
16705TIP3   OH271605   2.881   2.209  15.646  0.0011  0.0596  0.3615
16705TIP3    H171606   2.895   2.276  15.713 -1.6847  1.9575 -1.1379
16705TIP3    H271607   2.969   2.188  15.614  0.5188  1.8338  0.5873
16706TIP3   OH271608   2.983   1.097  14.158  0.2382  0.0030 -0.2929
16706TIP3    H171609   3.048   1.164  14.138  0.5121  0.3630  1.6580
16706TIP3    H271610   2.899   1.142  14.147  0.3691  0.1147 -0.8584
16707TIP3   OH271611   2.725   3.474   1.077 -0.3506 -0.0487 -0.0327
16707TIP3    H171612   2.802   3.490   1.131 -0.6653 -1.4459  0.8265
16707TIP3    H271613   2.675   3.555   1.082 -0.3535 -0.1525  1.7290
16708TIP3   OH271614   2.390   0.139   2.484 -0.3329 -1.0934 -0.2387
16708TIP3    H171615   2.445   0.075   2.439 -0.0428 -0.5806 -0.6171
16708TIP3    H271616   2.447   0.215   2.497 -0.6770 -0.9046  0.1987
16709TIP3   OH271617   0.418   2.738  12.606 -0.3500  0.0903  0.5105
16709TIP3    H171618   0.335   2.722  12.560 -0.0469  0.4791 -0.1762
16709TIP3    H271619   0.475   2.776  12.540  0.9718 -1.8332  0.5138
16710TIP3   OH271620   4.504   3.136   4.523  0.4202 -0.5512  0.4949
16710TIP3    H171621   4.563   3.131   4.599  0.8843 -1.2923  0.0951
16710TIP3    H271622   4.417   3.150   4.561  1.1657  3.5053  1.0136
16711TIP3   OH271623   4.448   1.215  16.800  0.2721  0.2881 -0.1726
16711TIP3    H171624   4.418   1.240  16.713 -3.2816  0.3174  0.9652
16711TIP3    H271625   4.450   1.297  16.849  0.8632  0.0750  0.1597
16712TIP3   OH271626   2.711   1.424   1.019  0.1937 -0.0161  0.2833
16712TIP3    H171627   2.685   1.515   1.033  0.5420  0.3650 -1.3852
16712TIP3    H271628   2.685   1.405   0.928  1.8226 -0.9817  0.0008
16713TIP3   OH271629   4.630   6.298   1.506  0.0432  0.4373  0.4353
16713TIP3    H171630   4.542   6.325   1.478  0.3067  0.0336 -0.7963
16713TIP3    H271631   4.630   6.203   1.498  0.8433  0.4926 -0.3244
16714TIP3   OH271632   4.486   3.396   1.300  0.4830 -0.5599 -0.0752
16714TIP3    H171633   4.577   3.396   1.271  0.1360  1.6315 -1.2726
16714TIP3    H271634   4.461   3.488   1.299 -1.4998 -1.0665  1.0600
16715TIP3   OH271635   2.856   6.207  11.624 -0.0741 -0.0099 -0.1997
16715TIP3    H171636   2.857   6.118  11.659 -0.0224 -1.1823 -3.0906
16715TIP3    H271637   2.939   6.217  11.579 -0.1962  1.4229 -0.1394
16716TIP3   OH271638   4.658   5.814  13.168 -0.1548 -0.0745  0.5803
16716TIP3    H171639   4.683   5.882  13.106 -1.8716 -0.6930 -0.8288
16716TIP3    H271640   4.635   5.861  13.248 -2.1661  1.0872 -0.6496
16717TIP3   OH271641   4.041   1.226   2.115 -0.7279  0.1410  0.6055
16717TIP3    H171642   4.087   1.307   2.091 -0.1761  0.0345  1.2814
16717TIP3    H271643   4.111   1.162   2.127 -1.2068 -0.6041 -0.5200
16718TIP3   OH271644   4.144   5.941   0.261 -0.2844 -0.3211  0.1163
16718TIP3    H171645   4.119   5.850   0.278 -0.0918 -0.0798  1.7646
16718TIP3    H271646   4.132   5.985   0.345  1.1175  0.8431 -0.2789
16719TIP3   OH271647   4.667   4.107  15.144  0.3682  0.0461 -0.5364
16719TIP3    H171648   4.608   4.114  15.069 -1.4951  1.8514  1.0273
16719TIP3    H271649   4.622   4.050  15.206  1.0211  0.1126  0.0165
16720TIP3   OH271650   5.531   4.365   1.049  0.0091 -0.0725  0.0177
16720TIP3    H171651   5.475   4.335   0.977 -1.1360  0.8936  0.4751
16720TIP3    H271652   5.620   4.342   1.022 -0.1845  1.9739 -2.5959
16721TIP3   OH271653   5.236   6.763  15.376 -0.1938  0.4612  0.0548
16721TIP3    H171654   5.244   6.856  15.398 -1.1015  0.6533 -0.4077
16721TIP3    H271655   5.323   6.739  15.345 -0.7089  1.9427 -2.7306
16722TIP3   OH271656   1.924   3.384  11.116 -0.9477  0.4179  0.1515
16722TIP3    H171657   1.858   3.449  11.093 -0.8876  0.7432  0.8900
16722TIP3    H271658   1.900   3.355  11.204 -0.8165 -0.3604 -0.0671
16723TIP3   OH271659   3.004   1.110  12.772 -0.1485  0.0245 -0.4755
16723TIP3    H171660   2.971   1.047  12.708 -1.7865 -0.5316  0.8587
16723TIP3    H271661   2.941   1.182  12.768 -0.8840 -0.4936  1.2290
16724TIP3   OH271662   3.663   1.776  16.397 -0.0919 -0.4832  0.3100
16724TIP3    H171663   3.633   1.818  16.477 -1.2898 -1.9809  0.6712
16724TIP3    H271664   3.746   1.735  16.421 -0.6539 -1.2851  0.9183
16725TIP3   OH271665   6.126   3.343   0.530  0.0046  0.5764 -0.6761
16725TIP3    H171666   6.044   3.325   0.483 -0.5440  1.0341  0.1006
16725TIP3    H271667   6.106   3.324   0.622  0.7772  0.6799 -0.4808
16726TIP3   OH271668   5.490   6.104  16.848  1.0063 -0.0140 -0.1646
16726TIP3    H171669   5.523   6.119  16.936 -0.9905  1.7428  0.3134
16726TIP3    H271670   5.468   6.011  16.846 -0.4021  0.2554  1.7108
16727TIP3   OH271671   6.704   1.534   2.276  0.6279  0.1745  0.3242
16727TIP3    H171672   6.678   1.447   2.309  0.0977 -0.3582 -1.4385
16727TIP3    H271673   6.622   1.583   2.271  0.7879  0.4454  0.3488
16728TIP3   OH271674   4.433   6.272  11.220  0.6759  0.1631 -0.2367
16728TIP3    H171675   4.430   6.350  11.275 -0.7173 -0.1445  0.1383
16728TIP3    H271676   4.345   6.265  11.182  1.3412 -0.1420 -1.7931
16729TIP3   OH271677   0.208   2.283   4.112 -0.4681 -0.2264 -0.3941
16729TIP3    H171678   0.136   2.239   4.066 -0.4940  0.2951 -0.8638
16729TIP3    H271679   0.242   2.218   4.173 -0.3932 -0.9462 -1.2052
16730TIP3   OH271680   0.025   1.262   5.222 -0.6260 -0.2554 -0.1104
16730TIP3    H171681   0.065   1.339   5.265  1.6743 -1.9264  0.8770
16730TIP3    H271682  -0.036   1.228   5.288  0.7249 -1.1037  0.7309
16731TIP3   OH271683   3.111   3.467   5.024  0.3191  0.4407  0.0636
16731TIP3    H171684   3.034   3.519   5.044 -1.3195 -2.5068  1.6772
16731TIP3    H271685   3.085   3.413   4.949  0.7017 -0.7308  0.7543
16732TIP3   OH271686   0.097   0.145   6.299  0.3809  0.3979 -0.7415
16732TIP3    H171687   0.052   0.191   6.370  0.4273 -2.2728  1.0881
16732TIP3    H271688   0.166   0.206   6.272 -0.0341  1.7440  1.0799
16733TIP3   OH271689   5.432   4.249  10.886 -0.1666  0.2446  0.4071
16733TIP3    H171690   5.354   4.304  10.889 -0.3769 -0.1048  2.3881
16733TIP3    H271691   5.493   4.292  10.946 -0.1143 -1.3419  1.5134
16734TIP3   OH271692   3.974   4.861   2.111  0.2260  0.6556 -0.1352
16734TIP3    H171693   3.891   4.817   2.126 -0.0412  0.9220 -0.8284
16734TIP3    H271694   4.007   4.880   2.199 -0.8926  1.3686  0.1449
16735TIP3   OH271695   3.592   3.638  15.954 -0.1158 -0.2735 -0.3613
16735TIP3    H171696   3.524   3.612  16.015 -0.4413 -1.3224 -1.1533
16735TIP3    H271697   3.568   3.727  15.927 -0.9032 -0.4634 -0.2734
16736TIP3   OH271698   6.458   4.633   4.789 -0.3208 -0.1741 -0.2804
16736TIP3    H171699   6.459   4.563   4.855  0.6148 -1.1653 -1.3067
16736TIP3    H271700   6.398   4.698   4.824  1.0702 -0.1121  2.1351
16737TIP3   OH271701   4.302   0.644   5.548  0.1142 -0.1721  0.0542
16737TIP3    H171702   4.235   0.652   5.616  1.7963 -0.3791  1.7549
16737TIP3    H271703   4.270   0.700   5.477 -1.6597  0.0563  1.0072
16738TIP3   OH271704   0.595   5.844   5.188  0.1198 -0.1056 -0.3888
16738TIP3    H171705   0.507   5.844   5.150  0.7931  0.3712 -2.0281
16738TIP3    H271706   0.598   5.767   5.244 -1.3724 -0.0610 -0.2334
16739TIP3   OH271707   5.800   1.819  13.249  0.0106  0.4951  0.4484
16739TIP3    H171708   5.739   1.859  13.186 -0.6025  1.2347  1.5042
16739TIP3    H271709   5.744   1.783  13.317  0.7322  0.7875  1.2075
16740TIP3   OH271710   6.622   3.189   4.200  0.3422  0.6044  0.5262
16740TIP3    H171711   6.545   3.232   4.164  1.1953  1.9578  0.2598
16740TIP3    H271712   6.692   3.211   4.139  0.8023 -1.2349  0.3556
16741TIP3   OH271713   5.824   0.727   5.170  0.1757 -0.6298 -0.0751
16741TIP3    H171714   5.876   0.694   5.096  1.3725 -1.9208  1.2915
16741TIP3    H271715   5.883   0.718   5.245 -0.7482  1.3858  0.9158
16742TIP3   OH271716   3.571   3.318   2.101  0.2850  0.6403 -0.1004
16742TIP3    H171717   3.555   3.405   2.065 -1.4585  0.4942  0.2565
16742TIP3    H271718   3.494   3.300   2.155  0.7465 -1.0180  0.0408
16743TIP3   OH271719   0.017   4.500  11.964 -0.1356 -0.7848 -0.2149
16743TIP3    H171720   0.106   4.471  11.983  0.2026 -1.1646 -2.2053
16743TIP3    H271721  -0.015   4.436  11.900 -0.9495  0.7280 -1.3615
16744TIP3   OH271722   6.014   6.381  14.846  0.2886  0.4696  0.1597
16744TIP3    H171723   6.030   6.311  14.908 -1.5709  0.2094  0.3617
16744TIP3    H271724   5.923   6.368  14.817  0.5172  1.6933 -1.1778
16745TIP3   OH271725   2.343   4.746   4.852 -0.0549 -0.2349 -0.6223
16745TIP3    H171726   2.306   4.784   4.772 -2.3184 -0.1630  0.4028
16745TIP3    H271727   2.420   4.799   4.870  1.2547 -1.1013 -3.4669
16746TIP3   OH271728   2.411   3.881   5.581  0.8195  0.1287  0.3752
16746TIP3    H171729   2.385   3.941   5.511  0.7075 -0.4777 -0.1044
16746TIP3    H271730   2.351   3.807   5.572  1.9305 -0.7383  0.0155
16747TIP3   OH271731   2.968   6.534  16.352  0.5940 -0.2771 -0.0207
16747TIP3    H171732   2.983   6.572  16.438 -1.3000 -0.9858  0.6450
16747TIP3    H271733   2.975   6.439  16.365 -1.1762 -0.4580 -0.3390
16748TIP3   OH271734   2.900   2.724   0.747 -1.0423  0.4109 -0.1984
16748TIP3    H171735   2.988   2.700   0.718 -1.3065  0.8364 -1.4177
16748TIP3    H271736   2.901   2.711   0.841  0.5166  1.0101 -0.1157
16749TIP3   OH271737   4.736   4.798   4.375  0.0438 -0.3600  0.0982
16749TIP3    H171738   4.830   4.782   4.384  0.3648  0.9923 -0.7096
16749TIP3    H271739   4.730   4.887   4.340 -1.5517 -0.2793  0.5308
16750TIP3   OH271740   2.833   3.446   0.758 -0.5745  0.5915  0.1273
16750TIP3    H171741   2.792   3.363   0.733  0.0322 -0.7156  3.1150
16750TIP3    H271742   2.926   3.424   0.767  0.1479  2.4802 -2.4554
16751TIP3   OH271743   0.349   6.160   6.618  0.3006  0.6741  0.2859
16751TIP3    H171744   0.336   6.133   6.709 -0.4064  0.7005  0.1966
16751TIP3    H271745   0.284   6.229   6.604  1.2389  1.5526  0.1280
16752TIP3   OH271746   5.701   5.287   0.304  0.3461  0.0652 -0.2410
16752TIP3    H171747   5.644   5.267   0.229 -0.2364 -0.5418  0.3638
16752TIP3    H271748   5.650   5.350   0.355 -0.3907 -1.5417  1.0420
16753TIP3   OH271749   6.650   1.573   4.128 -0.0984  0.0147 -0.3649
16753TIP3    H171750   6.695   1.508   4.074 -0.6735 -1.6618  1.1337
16753TIP3    H271751   6.720   1.623   4.169  0.3705 -0.6554 -0.3441
16754TIP3   OH271752   0.328   6.392  17.172 -0.0684 -0.2687 -0.0625
16754TIP3    H171753   0.308   6.480  17.140  2.9895  0.7392  0.6107
16754TIP3    H271754   0.383   6.406  17.249  0.8471 -2.7695 -0.1926
16755TIP3   OH271755   5.831   4.957   2.627  0.5724  0.0629 -0.4176
16755TIP3    H171756   5.901   4.926   2.570  0.7770 -1.2287  0.5131
16755TIP3    H271757   5.864   5.038   2.665  0.9389  0.2604 -1.1463
16756TIP3   OH271758   3.606   0.581  10.553 -0.8716 -0.3963  0.3050
16756TIP3    H171759   3.529   0.633  10.529 -0.2354  0.7336  0.6634
16756TIP3    H271760   3.590   0.495  10.515 -1.8839  0.1023 -0.4186
16757TIP3   OH271761   3.363   4.054   0.723 -0.5902 -0.6688  0.0692
16757TIP3    H171762   3.342   4.134   0.772  0.7942 -0.7348  0.8139
16757TIP3    H271763   3.393   4.085   0.638 -1.0545 -0.4488 -0.0156
16758TIP3   OH271764   4.847   5.246  14.480  0.1393 -0.7683  0.1835
16758TIP3    H171765   4.752   5.258  14.481  0.2828  1.3402 -3.2272
16758TIP3    H271766   4.882   5.332  14.503  1.1900 -0.9456 -0.7163
16759TIP3   OH271767   3.632   6.326  12.973  0.0975  0.0876 -0.3922
16759TIP3    H171768   3.607   6.403  12.922  0.0644  1.7625  2.1169
16759TIP3    H271769   3.552   6.273  12.977 -0.5156  1.0291 -0.1454
16760TIP3   OH271770   1.840   2.734   6.179  0.0893  0.3010  0.4069
16760TIP3    H171771   1.799   2.654   6.211 -0.4559 -0.5415 -2.3563
16760TIP3    H271772   1.893   2.764   6.253 -1.3056 -1.4716  2.1775
16761TIP3   OH271773   1.527   5.907  16.871  0.4915 -0.1125  0.6264
16761TIP3    H171774   1.451   5.942  16.918 -0.3724 -1.6172  0.3913
16761TIP3    H271775   1.489   5.844  16.809  1.9097 -0.6156  0.2652
16762TIP3   OH271776   4.830   3.229  13.816 -0.1320  0.1683 -0.1065
16762TIP3    H171777   4.754   3.232  13.758 -0.2556 -2.2744 -0.0983
16762TIP3    H271778   4.905   3.238  13.757 -0.3191 -0.5026 -0.4493
16763TIP3   OH271779   2.365   0.733  11.006 -0.0150  0.7521 -0.3093
16763TIP3    H171780   2.278   0.729  10.966 -0.4095 -0.3114  0.6217
16763TIP3    H271781   2.386   0.827  11.008 -0.9503  0.9855 -0.9335
16764TIP3   OH271782   1.348   3.931   0.656 -0.4264 -0.4339  0.3850
16764TIP3    H171783   1.370   3.839   0.669  0.0408 -0.4461 -0.4241
16764TIP3    H271784   1.430   3.978   0.672 -0.7173 -0.1420  1.0133
16765TIP3   OH271785   1.758   5.900   4.650 -0.1414 -0.1040  0.1843
16765TIP3    H171786   1.667   5.876   4.630 -0.7122  0.8759  1.4917
16765TIP3    H271787   1.781   5.966   4.585 -0.2885 -0.5251 -0.2954
16766TIP3   OH271788   6.730   5.282   0.443 -0.2647 -0.1490 -0.1417
16766TIP3    H171789   6.797   5.243   0.387 -1.4688 -1.9460 -0.3864
16766TIP3    H271790   6.773   5.290   0.529  0.7214  0.0911 -0.6532
16767TIP3   OH271791   3.980   5.242   5.270 -0.1290 -0.3971  0.2157
16767TIP3    H171792   4.076   5.241   5.270 -0.1232 -1.3535 -1.2255
16767TIP3    H271793   3.958   5.333   5.248  0.4406 -0.2538  0.2167
16768TIP3   OH271794   2.310   2.051  13.621  0.8959  0.3765  0.2159
16768TIP3    H171795   2.381   2.114  13.630 -0.8278  2.7215 -1.8958
16768TIP3    H271796   2.245   2.079  13.686  0.1255  0.8437 -0.7305
16769TIP3   OH271797   3.849   6.129  12.916  0.2626  0.2294 -0.3456
16769TIP3    H171798   3.795   6.161  12.843 -0.4119  0.7521  0.3709
16769TIP3    H271799   3.882   6.045  12.886 -3.1818 -1.4459  0.2428
16770TIP3   OH271800   3.235   2.020   0.907  0.7545 -0.2032 -0.4157
16770TIP3    H171801   3.254   1.926   0.912  0.9409 -0.1461  0.0256
16770TIP3    H271802   3.303   2.055   0.849  1.2975 -0.1877  0.2155
16771TIP3   OH271803   4.656   0.797   0.201 -0.9205 -0.0573 -0.0392
16771TIP3    H171804   4.669   0.891   0.217 -1.7931 -0.0563  0.6681
16771TIP3    H271805   4.703   0.754   0.273 -0.0655 -0.1826 -0.6635
16772TIP3   OH271806   5.367   2.991  15.071 -0.0557 -0.8961  0.5916
16772TIP3    H171807   5.351   3.011  14.978 -0.3498  1.4196  1.1057
16772TIP3    H271808   5.445   3.042  15.093 -0.4576 -0.8042  1.8249
16773TIP3   OH271809   3.327   4.841   5.685 -0.4340  0.0778  0.4213
16773TIP3    H171810   3.234   4.828   5.708  0.0801 -1.0839  1.9276
16773TIP3    H271811   3.369   4.863   5.768  0.5499  1.1923 -0.3608
16774TIP3   OH271812   3.482   1.647  13.452  0.5065  0.9587  0.0919
16774TIP3    H171813   3.478   1.730  13.404  3.5529  1.7240  1.0511
16774TIP3    H271814   3.490   1.673  13.544  1.7048 -0.3868  0.3897
16775TIP3   OH271815   2.450   6.160  17.244  0.0428 -0.0519  0.4026
16775TIP3    H171816   2.375   6.102  17.260  0.0121 -0.6047 -1.6266
16775TIP3    H271817   2.517   6.103  17.207  0.3565  1.0383 -0.7137
16776TIP3   OH271818   5.181   0.085  14.874 -0.2506  0.0007 -0.6795
16776TIP3    H171819   5.155   0.171  14.842  0.5445  0.6782  0.4599
16776TIP3    H271820   5.183   0.095  14.969  0.2019 -1.1708 -0.5636
16777TIP3   OH271821   6.563   2.267   0.860  0.7164  0.2532 -0.1087
16777TIP3    H171822   6.469   2.262   0.841  1.2217 -1.0639 -2.4735
16777TIP3    H271823   6.582   2.361   0.862 -0.7836  0.5365  1.1423
16778TIP3   OH271824   2.031   5.053  10.506 -0.1515  0.0324  0.7179
16778TIP3    H171825   1.937   5.042  10.488  0.3476 -0.9653 -1.3691
16778TIP3    H271826   2.073   5.042  10.421  1.7462  2.2413  1.3484
16779TIP3   OH271827   6.739   4.017   2.770 -0.1222  0.3577 -0.3539
16779TIP3    H171828   6.719   4.082   2.837  3.1394  2.8374 -1.6152
16779TIP3    H271829   6.813   3.968   2.806 -0.0968 -0.0727 -0.9835
16780TIP3   OH271830   3.606   1.865  15.853  0.3065 -0.2831  0.1967
16780TIP3    H171831   3.546   1.810  15.903  3.4932 -2.7077  1.6020
16780TIP3    H271832   3.604   1.828  15.765 -1.3491  0.6169 -0.1611
16781TIP3   OH271833   1.859   3.429   1.984 -0.3050  0.0988  0.6996
16781TIP3    H171834   1.843   3.340   2.017 -1.6709 -0.1708 -0.6231
16781TIP3    H271835   1.774   3.459   1.953  0.7281  0.6188 -1.8323
16782TIP3   OH271836   3.439   4.412   4.464 -0.3076 -0.1643 -0.2881
16782TIP3    H171837   3.344   4.406   4.473 -0.1535 -0.6947  0.9642
16782TIP3    H271838   3.460   4.503   4.486 -0.6151  0.2346 -1.5501
16783TIP3   OH271839   2.082   0.386  14.023 -0.0932 -0.2042 -0.2146
16783TIP3    H171840   1.999   0.414  14.061  0.0157  0.1964 -0.2679
16783TIP3    H271841   2.148   0.440  14.066  0.0142  0.3829 -1.1092
16784TIP3   OH271842   4.844   3.679  11.347  0.7172  0.2018 -0.1238
16784TIP3    H171843   4.871   3.592  11.376 -0.2592 -0.0398  0.0544
16784TIP3    H271844   4.788   3.712  11.417 -0.8551  0.0034 -1.2693
16785TIP3   OH271845   1.322   3.615   1.926  0.1789 -0.1018  0.0391
16785TIP3    H171846   1.254   3.682   1.933 -0.7588 -1.2089  1.6403
16785TIP3    H271847   1.298   3.548   1.990  1.4355 -1.6920 -1.0988
16786TIP3   OH271848   4.563   3.999   2.893 -0.0013 -0.3618 -0.0604
16786TIP3    H171849   4.615   3.943   2.835  0.0887 -0.2869 -0.0535
16786TIP3    H271850   4.544   3.945   2.969  1.7071  0.2083  0.8065
16787TIP3   OH271851   5.807   0.952  12.867  0.1729  0.1038  0.3363
16787TIP3    H171852   5.829   0.919  12.955 -0.4242 -0.2489  0.3596
16787TIP3    H271853   5.848   1.038  12.863  1.3861 -0.4564  0.4474
16788TIP3   OH271854   3.078   6.169  11.959 -0.1554  0.3075 -0.6223
16788TIP3    H171855   2.997   6.221  11.956 -1.3343 -1.4018  0.8602
16788TIP3    H271856   3.061   6.094  11.902 -0.1165 -0.7130  0.6732
16789TIP3   OH271857   1.837   6.173   6.566  0.4191  0.7862 -0.0445
16789TIP3    H171858   1.860   6.094   6.616 -1.3164  0.2386 -0.0779
16789TIP3    H271859   1.742   6.168   6.556  0.5057  1.9469 -1.6351
16790TIP3   OH271860   1.103   0.988  16.533 -0.0239  0.6119 -0.5710
16790TIP3    H171861   1.086   0.936  16.454  0.3231  0.1488 -0.3454
16790TIP3    H271862   1.096   0.925  16.605  0.5950  0.8371 -0.3072
16791TIP3   OH271863   5.109   0.992  15.978  0.1907 -0.1372 -0.4536
16791TIP3    H171864   5.198   0.964  15.997  0.3657  0.3750 -0.4863
16791TIP3    H271865   5.054   0.947  16.042  0.6216  0.5301  0.3972
16792TIP3   OH271866   6.009   6.671  14.463 -0.4767 -0.6684  0.1805
16792TIP3    H171867   5.961   6.631  14.391 -0.7098  1.4351 -0.8708
16792TIP3    H271868   6.099   6.642  14.453 -1.1827 -3.3886  1.2538
16793TIP3   OH271869   4.105   2.501  14.749  0.4177 -0.0977 -0.2289
16793TIP3    H171870   4.074   2.440  14.682 -0.6347 -1.3271  1.3582
16793TIP3    H271871   4.081   2.587  14.715  1.6816 -0.5358 -2.3729
16794TIP3   OH271872   0.200   0.276  16.641  0.1090  1.3306  0.3583
16794TIP3    H171873   0.125   0.244  16.591  1.3880 -0.9908 -0.1422
16794TIP3    H271874   0.193   0.234  16.726  2.3810 -1.3065 -0.6583
16795TIP3   OH271875   5.371   6.458   3.981  0.3295  0.6614 -0.0837
16795TIP3    H171876   5.359   6.373   3.937 -1.1344  0.5920  0.4276
16795TIP3    H271877   5.458   6.487   3.952  1.0118 -1.1637  0.0010
16796TIP3   OH271878   3.208   2.620  14.678  0.4246  0.2721 -1.0009
16796TIP3    H171879   3.151   2.597  14.606 -1.0602 -0.5456  0.4035
16796TIP3    H271880   3.290   2.573  14.661 -0.6515 -1.6143 -1.0495
16797TIP3   OH271881   2.793   3.386   5.213  0.2010  0.4201 -0.3298
16797TIP3    H171882   2.847   3.457   5.176 -0.8474  1.1757 -0.4534
16797TIP3    H271883   2.827   3.307   5.172  0.7349  0.9666 -0.9776
16798TIP3   OH271884   4.872   1.939  12.437  0.0731  0.1813  0.5671
16798TIP3    H171885   4.777   1.930  12.438  0.0117  0.7424  0.0963
16798TIP3    H271886   4.904   1.851  12.415 -0.3637  0.1463  0.0518
16799TIP3   OH271887   6.560   4.309   0.534  0.3503  0.0056  0.1575
16799TIP3    H171888   6.613   4.272   0.463  1.0786  0.6748  0.3524
16799TIP3    H271889   6.505   4.236   0.563  1.6030 -0.8841  0.3661
16800TIP3   OH271890   6.035   4.994  11.982  0.6212 -0.1816  0.4146
16800TIP3    H171891   5.986   4.913  11.980 -1.5738  1.1300 -1.0628
16800TIP3    H271892   6.107   4.980  11.920  0.2068 -0.9961  0.1130
16801TIP3   OH271893   6.267   4.323  12.909 -0.0480 -0.3276  0.0262
16801TIP3    H171894   6.313   4.398  12.945  1.0057 -1.4520  1.0789
16801TIP3    H271895   6.273   4.256  12.977  0.0016 -1.7312 -1.3123
16802TIP3   OH271896   5.271   6.148  15.281 -0.1841 -0.6762  0.0482
16802TIP3    H171897   5.243   6.193  15.361 -0.3208 -0.6246 -0.0300
16802TIP3    H271898   5.245   6.057  15.296  1.3389 -1.0051  0.7954
16803TIP3   OH271899   5.452   3.412   0.970 -0.1203 -0.8328 -0.6826
16803TIP3    H171900   5.394   3.429   1.045  1.1879 -0.4990  0.2870
16803TIP3    H271901   5.436   3.321   0.947 -1.8486 -0.4214 -1.1634
16804TIP3   OH271902   4.025   3.868  16.342  0.4760 -0.3277  0.0219
16804TIP3    H171903   4.063   3.945  16.301  0.4780 -0.0949  0.4540
16804TIP3    H271904   4.016   3.805  16.271  1.0356 -0.1452 -0.2155
16805TIP3   OH271905   5.225   2.182   2.870  0.1267 -0.1208  0.3737
16805TIP3    H171906   5.187   2.117   2.811  0.5391 -0.8956  0.9480
16805TIP3    H271907   5.317   2.158   2.877  0.8006  1.8787 -1.1844
16806TIP3   OH271908   4.643   1.548  15.725  0.0014  0.2139  0.1264
16806TIP3    H171909   4.675   1.477  15.781 -2.8180 -1.5957 -0.4578
16806TIP3    H271910   4.600   1.609  15.785 -0.5480 -0.2869  0.2366
16807TIP3   OH271911   5.589   3.540  16.581  0.3606 -0.2830 -0.4110
16807TIP3    H171912   5.532   3.538  16.503  0.5966  0.9338 -0.6251
16807TIP3    H271913   5.530   3.565  16.652  0.5233  0.5407 -0.5562
16808TIP3   OH271914   5.877   5.517  17.225  0.6442  0.7717 -0.1727
16808TIP3    H171915   5.886   5.426  17.254  0.7742  0.2714 -1.6989
16808TIP3    H271916   5.810   5.554  17.282 -0.4685 -0.7315 -0.4654
16809TIP3   OH271917   1.591   0.761  12.963  0.8370  0.1867 -0.2955
16809TIP3    H171918   1.612   0.686  13.019 -0.3908  2.0337  2.6956
16809TIP3    H271919   1.674   0.781  12.919  1.5045 -2.0551 -0.1501
16810TIP3   OH271920   0.524   5.553  17.283 -0.2710 -0.0759 -0.9761
16810TIP3    H171921   0.484   5.496  17.218  1.1807 -0.8512 -1.2041
16810TIP3    H271922   0.579   5.613  17.231 -2.0067  1.7432 -0.7737
16811TIP3   OH271923   5.613   2.438   3.216 -0.0246  0.1078 -0.5036
16811TIP3    H171924   5.629   2.505   3.283  0.8958  0.4123 -1.0314
16811TIP3    H271925   5.651   2.358   3.254 -2.4213 -0.4756  0.7755
16812TIP3   OH271926   1.261   0.144   6.106 -0.2142  0.3228  0.2227
16812TIP3    H171927   1.333   0.084   6.087 -0.5893 -0.8938  2.5179
16812TIP3    H271928   1.303   0.220   6.147  0.1342  1.2173 -1.7137
16813TIP3   OH271929   2.404   4.056   1.664 -0.2068  0.1211  0.0188
16813TIP3    H171930   2.456   4.087   1.738 -0.9656 -0.3376  0.7649
16813TIP3    H271931   2.433   4.109   1.590  2.7151 -1.4677 -0.0464
16814TIP3   OH271932   2.322   0.340  15.303 -0.0278  0.2582 -0.1907
16814TIP3    H171933   2.386   0.407  15.327  0.6928 -1.4816  3.0278
16814TIP3    H271934   2.258   0.342  15.375  0.0169 -2.4662 -0.0170
16815TIP3   OH271935   4.026   3.466   5.522 -0.2458  0.1800  0.3986
16815TIP3    H171936   3.999   3.547   5.566 -0.5452  1.0205 -1.2867
16815TIP3    H271937   4.115   3.485   5.490 -0.7807  0.3119 -1.0658
16816TIP3   OH271938   6.782   5.881   4.577  0.3023  0.6690 -0.3654
16816TIP3    H171939   6.860   5.935   4.564  1.0989 -0.7502 -1.6771
16816TIP3    H271940   6.733   5.925   4.647  2.2810  1.5690  0.4835
16817TIP3   OH271941   4.568   0.308   0.498  0.0425 -0.2503 -0.2986
16817TIP3    H171942   4.662   0.305   0.477  0.1373  3.4543 -0.7285
16817TIP3    H271943   4.529   0.357   0.426 -1.2403  3.4369  2.7159
16818TIP3   OH271944   4.637   2.961  11.290 -0.3093 -0.0322  0.5598
16818TIP3    H171945   4.613   3.042  11.335 -1.6415 -0.0548 -0.0584
16818TIP3    H271946   4.662   2.990  11.202  1.0895 -0.1027  0.9381
16819TIP3   OH271947   0.268   4.384   3.266  0.4573  0.0926 -0.3562
16819TIP3    H171948   0.285   4.290   3.256  2.0805  0.2322  0.8680
16819TIP3    H271949   0.215   4.407   3.190  0.0523 -1.8068 -0.6897
16820TIP3   OH271950   5.001   2.275  13.785  0.3155  0.1647 -0.4641
16820TIP3    H171951   4.978   2.321  13.866 -0.1972  0.9933 -1.0749
16820TIP3    H271952   4.934   2.206  13.778  1.9483 -1.6785  1.2313
16821TIP3   OH271953   5.103   6.313   1.318 -0.5375 -0.8833 -0.2427
16821TIP3    H171954   5.060   6.276   1.395  0.6945 -1.6950  0.0731
16821TIP3    H271955   5.186   6.347   1.351 -0.0942 -1.0572 -1.1676
16822TIP3   OH271956   0.684   0.984   3.706  0.6862  0.1128 -0.0429
16822TIP3    H171957   0.615   0.927   3.739  0.1653  0.5488 -0.3764
16822TIP3    H271958   0.649   1.019   3.624  1.3885  0.1668 -0.3236
16823TIP3   OH271959   2.951   1.220  12.331 -0.2557  0.4665  0.3096
16823TIP3    H171960   3.019   1.287  12.334  0.3005 -0.0787 -0.1113
16823TIP3    H271961   2.872   1.268  12.307 -0.0612  1.1252  0.9513
16824TIP3   OH271962   3.000   0.492  12.789 -0.2205 -0.0463  0.1696
16824TIP3    H171963   2.971   0.437  12.716  0.8622  0.0882 -0.3715
16824TIP3    H271964   2.920   0.528  12.826 -0.7253  0.5762 -1.5076
16825TIP3   OH271965   6.009   1.260   0.861 -0.0759 -0.3672 -0.1861
16825TIP3    H171966   6.066   1.219   0.926 -0.3074 -1.2784 -0.5629
16825TIP3    H271967   5.939   1.301   0.913  1.2840  1.3858  0.3348
16826TIP3   OH271968   5.031   0.615  15.105  0.6961  0.6084  0.2860
16826TIP3    H171969   5.014   0.690  15.047 -2.0009  1.5020  2.1470
16826TIP3    H271970   4.947   0.598  15.147  1.9462 -1.7566  1.9256
16827TIP3   OH271971   6.055   5.243  13.392  0.4158  0.1028  0.2952
16827TIP3    H171972   6.059   5.172  13.456  0.6672 -1.9147 -1.9088
16827TIP3    H271973   6.107   5.212  13.318  0.9498  2.8151 -0.5217
16828TIP3   OH271974   6.405   4.041  11.574 -0.6844  0.6348  0.5248
16828TIP3    H171975   6.353   4.004  11.503  0.1960  2.1124 -0.9274
16828TIP3    H271976   6.360   4.012  11.653 -0.9046 -2.1783 -0.5694
16829TIP3   OH271977   3.819   6.068  11.435 -0.2041  0.0243 -0.5400
16829TIP3    H171978   3.764   6.007  11.387  3.2474 -2.7204 -1.1885
16829TIP3    H271979   3.882   6.100  11.371  0.7887  0.8281  0.7971
16830TIP3   OH271980   4.097   3.564   1.473  0.2226 -0.3456 -0.3922
16830TIP3    H171981   4.161   3.503   1.436  0.6345 -0.2783  0.2125
16830TIP3    H271982   4.130   3.650   1.449 -0.2685 -0.3505 -1.0981
16831TIP3   OH271983   6.316   2.147   5.349 -0.4302 -0.8736 -0.3030
16831TIP3    H171984   6.389   2.088   5.328 -0.7868 -1.1873 -0.6808
16831TIP3    H271985   6.264   2.097   5.413 -0.8388 -1.0517 -0.7723
16832TIP3   OH271986   2.883   6.743   5.930  0.5401 -0.1723  0.4135
16832TIP3    H171987   2.886   6.808   6.001 -0.0381  1.9172 -1.4428
16832TIP3    H271988   2.950   6.772   5.868 -1.6455  0.3124 -1.7978
16833TIP3   OH271989   0.341   5.911  12.385  0.2247 -0.1083 -0.4596
16833TIP3    H171990   0.357   5.895  12.478 -1.1050 -2.1035 -0.5523
16833TIP3    H271991   0.271   5.976  12.384  0.3317  0.0174 -0.0706
16834TIP3   OH271992   4.343   5.255  11.866 -0.5450  0.2479  0.2358
16834TIP3    H171993   4.400   5.283  11.937 -2.6409  1.0712  1.6624
16834TIP3    H271994   4.279   5.198  11.908 -1.7103  0.5958 -1.0137
16835TIP3   OH271995   0.196   2.162  11.428 -0.2569 -0.4286  0.3294
16835TIP3    H171996   0.245   2.102  11.483  1.1524 -0.4831 -0.9359
16835TIP3    H271997   0.256   2.182  11.355 -2.1378 -0.5729 -1.3062
16836TIP3   OH271998   4.398   6.078  13.193 -0.7955  0.2108 -0.5632
16836TIP3    H171999   4.347   6.111  13.268  0.6266  0.1688  0.4450
16836TIP3    H272000   4.355   5.996  13.169  0.4902 -1.3115  2.1454
16837TIP3   OH272001   1.664   1.310   5.908 -0.6610 -0.6368 -0.0797
16837TIP3    H172002   1.575   1.343   5.914 -0.7835 -1.1129  0.6877
16837TIP3    H272003   1.688   1.323   5.816 -1.6732 -0.9151 -0.3868
16838TIP3   OH272004   6.001   5.713   2.599 -0.4780 -0.1891 -0.7238
16838TIP3    H172005   5.972   5.651   2.666 -0.6329  0.7980  0.1339
16838TIP3    H272006   6.057   5.662   2.542 -0.5909 -1.1236 -0.0118
16839TIP3   OH272007   6.439   5.267  12.564  0.1719 -0.0044  0.0214
16839TIP3    H172008   6.465   5.176  12.576 -1.2570 -0.3404  0.6903
16839TIP3    H272009   6.344   5.267  12.577  0.2224  1.6591  0.5443
16840TIP3   OH272010   4.359   1.313   0.082 -0.2290 -0.4001  0.7516
16840TIP3    H172011   4.310   1.308   0.164 -0.2842 -0.2705  0.7275
16840TIP3    H272012   4.292   1.317   0.014 -0.1787 -1.3161  0.6471
16841TIP3   OH272013   5.275   1.437  13.518  0.0855  0.2484 -0.0003
16841TIP3    H172014   5.287   1.401  13.606  0.2314 -0.9755 -0.5245
16841TIP3    H272015   5.355   1.415  13.471  0.6508  2.1940 -0.0209
16842TIP3   OH272016   5.320   3.899   4.407 -0.1646  0.0175 -0.0821
16842TIP3    H172017   5.256   3.964   4.380  1.8411  1.9936 -0.2214
16842TIP3    H272018   5.280   3.854   4.481 -0.7175  2.9154  1.4378
16843TIP3   OH272019   5.805   1.482  11.501  0.0062 -0.6959  0.0206
16843TIP3    H172020   5.787   1.390  11.483  1.4568 -0.6610 -1.7191
16843TIP3    H272021   5.846   1.515  11.422  1.5700  0.8882  1.4369
16844TIP3   OH272022   3.450   5.563  14.257 -0.4126 -0.2874  0.0924
16844TIP3    H172023   3.518   5.547  14.192  1.1937  1.4146  1.2791
16844TIP3    H272024   3.445   5.482  14.308  1.5110 -0.0678  0.6648
16845TIP3   OH272025   0.050   2.582   0.636  0.4146  0.1798 -0.4302
16845TIP3    H172026   0.025   2.585   0.544 -1.7644 -0.6847  0.1147
16845TIP3    H272027   0.042   2.672   0.666 -1.7997 -0.0280 -0.3496
16846TIP3   OH272028   6.094   3.629   2.677  0.5417  0.4391 -0.0753
16846TIP3    H172029   6.106   3.662   2.767  0.2802 -0.1704  0.1874
16846TIP3    H272030   6.182   3.628   2.640  0.3814  2.7412 -0.5533
16847TIP3   OH272031   5.374   3.253   1.824 -0.0756 -0.4508  0.3214
16847TIP3    H172032   5.456   3.207   1.840  1.1381  1.1769 -1.0664
16847TIP3    H272033   5.398   3.346   1.827 -2.1990  0.0844  1.6191
16848TIP3   OH272034   4.689   0.438   5.450  0.4932  0.0016 -0.0659
16848TIP3    H172035   4.686   0.391   5.366  0.3417 -0.6907  0.3218
16848TIP3    H272036   4.739   0.517   5.432  1.0473 -0.4819 -0.6450
16849TIP3   OH272037   6.010   2.715   0.953 -0.4969 -0.2199 -0.3439
16849TIP3    H172038   5.928   2.760   0.931  0.4372  1.5522 -0.3216
16849TIP3    H272039   6.038   2.756   1.035  1.4257  0.6305 -1.3883
16850TIP3   OH272040   4.158   6.429   3.965  0.9763  0.6666 -0.6728
16850TIP3    H172041   4.161   6.390   4.052  0.4303  0.3086 -0.8138
16850TIP3    H272042   4.168   6.354   3.906 -2.3099  0.4277 -1.0064
16851TIP3   OH272043   4.138   3.298  15.734  0.4511  0.2095 -0.0310
16851TIP3    H172044   4.187   3.340  15.805  1.1915  1.6165 -1.3349
16851TIP3    H272045   4.067   3.359  15.714  0.9089  0.3714 -1.2358
16852TIP3   OH272046   6.254   3.424   5.675  0.3075 -0.2693  0.4233
16852TIP3    H172047   6.335   3.435   5.725 -0.7629 -1.0729  2.3783
16852TIP3    H272048   6.276   3.359   5.608  2.5106  2.7388 -1.9330
16853TIP3   OH272049   6.467   1.650   3.541  0.1133  0.0772  0.4922
16853TIP3    H172050   6.377   1.660   3.510  0.0737 -2.8697 -0.5607
16853TIP3    H272051   6.458   1.617   3.630  0.1576 -0.0877  0.4356
16854TIP3   OH272052   3.283   6.527  16.331 -0.0626 -0.0300  0.3342
16854TIP3    H172053   3.327   6.528  16.246  0.8224  1.2987  0.7894
16854TIP3    H272054   3.260   6.435  16.345  0.7360 -0.4259 -0.8555
16855TIP3   OH272055   5.129   4.804  14.460  0.0371  0.1667 -0.5495
16855TIP3    H172056   5.039   4.774  14.455  0.4359 -1.7637  2.4233
16855TIP3    H272057   5.123   4.893  14.495 -0.8018  1.0412 -2.8477
16856TIP3   OH272058   5.948   3.959   6.348  0.8613 -0.0276  0.1644
16856TIP3    H172059   5.960   4.054   6.354  3.6319 -0.3882  1.0115
16856TIP3    H272060   6.031   3.922   6.380 -0.5909 -2.7530  0.9505
16857TIP3   OH272061   0.555   4.809   0.380  0.2731  0.2801  0.6011
16857TIP3    H172062   0.576   4.816   0.473  0.1949  1.0583  0.5655
16857TIP3    H272063   0.590   4.889   0.341  0.5417 -0.1654 -0.0878
16858TIP3   OH272064   3.121   1.608  16.853  0.3425  0.1149 -0.3104
16858TIP3    H172065   3.063   1.532  16.854  0.8925 -0.2972  0.8844
16858TIP3    H272066   3.178   1.594  16.778  0.3006 -0.5361 -0.2232
16859TIP3   OH272067   4.433   4.707   3.559  0.4230  0.4339 -0.3603
16859TIP3    H172068   4.391   4.749   3.484 -1.9473 -0.4630  0.4253
16859TIP3    H272069   4.447   4.779   3.622  0.6948  0.8493 -0.8920
16860TIP3   OH272070   1.021   5.321   4.469  0.2207  0.5208 -0.7467
16860TIP3    H172071   1.084   5.300   4.539  0.3496 -1.2850 -1.3831
16860TIP3    H272072   1.070   5.309   4.388 -0.5629  0.4425 -1.2122
16861TIP3   OH272073   3.932   5.073   2.560  0.5785  0.4807 -0.6555
16861TIP3    H172074   3.845   5.034   2.563  1.5376 -1.7040 -0.0367
16861TIP3    H272075   3.958   5.080   2.652  1.5669 -0.0939 -0.8795
16862TIP3   OH272076   1.528   0.075   5.408  0.7912  0.1466  0.6761
16862TIP3    H172077   1.578   0.156   5.417 -0.4673  0.7819  2.1547
16862TIP3    H272078   1.486   0.063   5.493  0.2986 -1.6321  0.2084
16863TIP3   OH272079   5.132   6.085  12.949 -0.2271  0.4483  0.1013
16863TIP3    H172080   5.133   6.126  12.863  3.7925  0.5283  0.0871
16863TIP3    H272081   5.128   5.991  12.931 -1.0856  0.5199 -0.1057
16864TIP3   OH272082   1.559   6.083  11.894  0.2201 -0.2602  0.1034
16864TIP3    H172083   1.637   6.078  11.950 -0.0318  0.3521  0.5137
16864TIP3    H272084   1.557   6.174  11.864  1.0473 -0.8826 -1.9138
16865TIP3   OH272085   0.949   5.610   3.602  0.4410 -0.1638 -0.3231
16865TIP3    H172086   0.927   5.565   3.683  1.9967  1.6362  1.1244
16865TIP3    H272087   1.024   5.563   3.567 -0.3852 -1.0949 -0.8848
16866TIP3   OH272088   3.205   0.790   3.906 -0.2558 -0.6689  0.3656
16866TIP3    H172089   3.132   0.850   3.919  0.3584  0.0303  0.6110
16866TIP3    H272090   3.193   0.756   3.817 -0.9379 -0.6458  0.4489
16867TIP3   OH272091   2.220   2.893   0.856 -0.1291 -0.2095 -0.3101
16867TIP3    H172092   2.249   2.981   0.834 -1.1623  0.3974  0.6494
16867TIP3    H272093   2.246   2.881   0.948 -1.3151 -0.3182  0.0213
16868TIP3   OH272094   0.224   2.638   4.570  0.3550 -0.2222 -0.4023
16868TIP3    H172095   0.242   2.607   4.481  2.1038  0.0959 -0.1618
16868TIP3    H272096   0.143   2.689   4.561  0.4871 -0.2435 -1.8074
16869TIP3   OH272097   4.418   0.256  13.939  0.3142 -0.7881  0.1040
16869TIP3    H172098   4.468   0.298  13.868  1.6600 -0.5070  1.1928
16869TIP3    H272099   4.431   0.314  14.014 -1.1494 -1.0626  0.5827
16870TIP3   OH272100   2.310   2.469   2.810  0.3910 -0.4727 -0.1492
16870TIP3    H172101   2.323   2.417   2.730 -1.2881 -1.0821 -0.0338
16870TIP3    H272102   2.267   2.549   2.779  1.7747  0.2954 -0.1424
16871TIP3   OH272103   6.488   1.357  14.487 -0.6595 -0.4922  0.0097
16871TIP3    H172104   6.499   1.391  14.576  1.5720 -3.7843  1.0854
16871TIP3    H272105   6.473   1.263  14.499 -0.3844 -0.9811 -3.0878
16872TIP3   OH272106   0.616   2.769  13.290 -0.2007  0.0465 -0.0831
16872TIP3    H172107   0.644   2.766  13.199  0.9644  2.1377  0.1738
16872TIP3    H272108   0.649   2.688  13.329  1.7167  0.4252 -0.8657
16873TIP3   OH272109   0.452   6.503   1.735 -0.0421  0.1296  0.2183
16873TIP3    H172110   0.520   6.493   1.669  0.2657  0.9152  0.4139
16873TIP3    H272111   0.447   6.597   1.751  0.3019 -0.0861  1.7358
16874TIP3   OH272112   2.969   0.081   4.337  0.1783  0.1554 -0.1464
16874TIP3    H172113   2.885   0.108   4.374 -0.4085 -0.4267 -1.0665
16874TIP3    H272114   2.988  -0.003   4.380  0.5173  0.5148  0.4093
16875TIP3   OH272115   2.124   0.634   2.088 -0.4976  0.2850 -0.3101
16875TIP3    H172116   2.198   0.687   2.059 -0.3375 -0.5595 -1.4885
16875TIP3    H272117   2.162   0.572   2.149 -0.0161 -0.8203 -1.6913
16876TIP3   OH272118   0.254   0.210  15.240  0.3824 -0.0575 -0.3449
16876TIP3    H172119   0.313   0.171  15.304 -0.6738 -0.8117  0.1798
16876TIP3    H272120   0.286   0.300  15.230 -0.1046  0.4413  2.1253
16877TIP3   OH272121   0.426   2.758  15.942  0.8057  0.4998  0.0940
16877TIP3    H172122   0.360   2.698  15.905  0.6418  1.3796 -1.0864
16877TIP3    H272123   0.498   2.701  15.968 -0.4418 -0.4895  1.4874
16878TIP3   OH272124   3.906   4.212   5.814  0.1950 -0.1695  0.1211
16878TIP3    H172125   3.983   4.231   5.867 -1.2030 -2.5076  3.1364
16878TIP3    H272126   3.851   4.290   5.821  0.5325 -0.0243  1.2193
16879TIP3   OH272127   1.591   0.301  11.214  0.0143  0.3253  0.2332
16879TIP3    H172128   1.535   0.331  11.142 -1.0304  1.4550  1.5006
16879TIP3    H272129   1.670   0.354  11.205  0.5971 -0.7322 -1.0945
16880TIP3   OH272130   4.579   4.614  13.493  0.0058  0.0931 -0.6425
16880TIP3    H172131   4.615   4.700  13.515  0.0498  0.9061 -3.5990
16880TIP3    H272132   4.653   4.555  13.501  0.0400  0.3613  1.1624
16881TIP3   OH272133   6.337   0.101   2.599 -0.1714 -0.0387  0.1987
16881TIP3    H172134   6.320   0.064   2.686 -0.7498 -0.7587 -0.2223
16881TIP3    H272135   6.338   0.196   2.613 -1.1519 -0.1183  0.8266
16882TIP3   OH272136   4.953   6.438   0.885 -0.3623  0.6384 -0.1543
16882TIP3    H172137   4.871   6.487   0.896 -0.8994  0.1109 -1.5984
16882TIP3    H272138   4.934   6.378   0.813  0.6958 -0.8020  0.7616
16883TIP3   OH272139   1.341   2.445  12.093 -0.5253  0.3937 -0.4373
16883TIP3    H172140   1.314   2.537  12.098  1.5869  0.9107  2.0119
16883TIP3    H272141   1.304   2.405  12.171 -2.5058 -1.1990 -2.1170
16884TIP3   OH272142   1.193   6.559  16.356 -0.0612 -0.5908  0.2755
16884TIP3    H172143   1.226   6.626  16.415  1.8495 -2.3235  1.2473
16884TIP3    H272144   1.198   6.598  16.269 -0.3388  1.0097  0.9720
16885TIP3   OH272145   2.104   4.307   5.636 -0.4175  0.5446  0.2638
16885TIP3    H172146   2.170   4.312   5.705 -0.3571  0.7017  0.1942
16885TIP3    H272147   2.050   4.386   5.649 -1.1191 -0.0284  0.8634
16886TIP3   OH272148   3.985   6.541   4.208 -0.1629 -0.1029  0.2709
16886TIP3    H172149   4.054   6.477   4.225 -1.2965 -1.5619 -0.4395
16886TIP3    H272150   3.922   6.527   4.279 -0.7455 -0.2675 -0.2710
16887TIP3   OH272151   4.659   0.829   6.718 -0.3772 -0.2190 -0.2332
16887TIP3    H172152   4.642   0.890   6.646  0.7966  0.4850  0.0735
16887TIP3    H272153   4.592   0.762   6.709 -1.6540  1.0892 -0.6159
16888TIP3   OH272154   1.929   1.648   2.892 -0.7233  0.1374 -0.3361
16888TIP3    H172155   1.985   1.619   2.964  0.6016 -0.6728 -1.6882
16888TIP3    H272156   1.869   1.711   2.933 -0.9488 -1.3982  1.7822
16889TIP3   OH272157   1.596   2.489  11.570  0.0032  0.3792  0.0458
16889TIP3    H172158   1.676   2.475  11.621  0.7942 -2.0201 -1.7596
16889TIP3    H272159   1.621   2.549  11.500 -0.2362  1.0305  0.5160
16890TIP3   OH272160   5.235   5.090  12.772  0.3957  0.2223  0.2920
16890TIP3    H172161   5.247   5.005  12.814 -0.1094  0.2557  0.5060
16890TIP3    H272162   5.237   5.153  12.844 -2.7351  0.0918  0.5580
16891TIP3   OH272163   6.383   6.224   2.400 -0.5615  0.2458 -0.1510
16891TIP3    H172164   6.374   6.171   2.479 -0.0155 -1.1041 -0.9791
16891TIP3    H272165   6.295   6.261   2.386 -0.8277 -0.0500  0.6951
16892TIP3   OH272166   5.039   5.374  16.163 -0.0599  0.1387 -0.0327
16892TIP3    H172167   5.116   5.429  16.146 -0.3005  0.4625 -0.0648
16892TIP3    H272168   5.075   5.286  16.174  0.3101  0.2779 -0.1211
16893TIP3   OH272169   1.356   1.348   3.282  0.0382  0.4906  0.7838
16893TIP3    H172170   1.265   1.377   3.273  0.3784  1.3845  0.1372
16893TIP3    H272171   1.369   1.285   3.211  0.1635  0.9814  0.3710
16894TIP3   OH272172   6.176   5.192   6.294  0.3066 -0.7524 -0.3343
16894TIP3    H172173   6.180   5.181   6.199  0.4307 -0.8059 -0.3243
16894TIP3    H272174   6.155   5.284   6.307  0.4227 -0.7145 -0.4129
16895TIP3   OH272175   2.560   1.564   4.208  0.0865  0.6559  0.1580
16895TIP3    H172176   2.490   1.528   4.154 -0.2828  0.8107  0.5247
16895TIP3    H272177   2.621   1.604   4.146 -0.8447  1.7274 -0.0888
16896TIP3   OH272178   6.272   5.084  13.730 -0.0440  0.7531  0.5046
16896TIP3    H172179   6.188   5.064  13.690 -0.5907  1.0038  1.4975
16896TIP3    H272180   6.337   5.043  13.673 -0.7749  1.3924 -0.7933
16897TIP3   OH272181   6.549   5.691   1.371 -0.1570  0.2565  0.3561
16897TIP3    H172182   6.535   5.714   1.462 -0.3343  1.6358 -0.0088
16897TIP3    H272183   6.486   5.745   1.323 -1.3110 -1.7599 -0.4477
16898TIP3   OH272184   5.266   3.371  14.333 -0.0544 -0.4590 -0.3121
16898TIP3    H172185   5.318   3.324  14.268  0.3360 -1.6588  0.8241
16898TIP3    H272186   5.217   3.436  14.283  1.7281 -0.0230 -1.5508
16899TIP3   OH272187   0.649   6.692  14.353 -0.0950  0.2603  0.5716
16899TIP3    H172188   0.619   6.630  14.287 -0.2440  0.1890  0.7072
16899TIP3    H272189   0.637   6.778  14.313  1.7756  0.1440 -0.3279
16900TIP3   OH272190   3.081   5.676   2.214 -0.3381  0.3629 -1.0807
16900TIP3    H172191   3.060   5.590   2.250 -0.8034  1.1381  0.6069
16900TIP3    H272192   3.174   5.673   2.195 -0.4181 -0.6151 -1.3178
16901TIP3   OH272193   1.906   3.822   0.400  0.2076  0.1084 -0.0244
16901TIP3    H172194   1.882   3.829   0.307 -0.2305  2.4118  0.2383
16901TIP3    H272195   2.001   3.822   0.400  0.2086  0.6800 -0.4403
16902TIP3   OH272196   3.101   5.286  15.188  0.1892  0.4211  0.1253
16902TIP3    H172197   3.093   5.191  15.198 -0.1136  0.4411  0.0811
16902TIP3    H272198   3.035   5.322  15.247  0.3468  0.6047  0.1900
16903TIP3   OH272199   1.660   3.379   2.289  0.0638 -0.1481 -0.4045
16903TIP3    H172200   1.749   3.408   2.269  0.6873 -0.4821  1.7513
16903TIP3    H272201   1.624   3.448   2.345 -0.3207 -0.9669  0.3693
16904TIP3   OH272202   1.797   3.996  11.724  0.5910  0.3318 -0.1165
16904TIP3    H172203   1.879   3.991  11.774  0.9671  3.0925 -0.3895
16904TIP3    H272204   1.730   4.018  11.790  0.1283 -1.4312  0.0260
16905TIP3   OH272205   3.935   5.091   1.964 -0.2711 -0.0977 -0.0300
16905TIP3    H172206   3.936   5.014   2.020 -1.0215 -0.0964 -0.0156
16905TIP3    H272207   3.860   5.078   1.905 -0.2554  0.4992 -0.1904
16906TIP3   OH272208   6.806   4.362  12.726 -0.0647 -0.0438 -0.3638
16906TIP3    H172209   6.816   4.450  12.763  0.6116 -0.6065  0.8239
16906TIP3    H272210   6.857   4.364  12.645 -0.2968  0.7530 -0.4874
16907TIP3   OH272211   3.594   6.210  15.955 -0.1811 -0.2016 -0.0719
16907TIP3    H172212   3.528   6.210  15.887  0.8135 -1.9217 -1.0582
16907TIP3    H272213   3.675   6.183  15.911  0.7849  0.0640  1.4796
16908TIP3   OH272214   2.738   4.416  10.959  0.0557 -0.1250  0.1540
16908TIP3    H172215   2.814   4.378  11.003 -0.5182 -1.1080  0.3100
16908TIP3    H272216   2.744   4.509  10.977  0.6500 -0.3287  1.0312
16909TIP3   OH272217   4.555   1.846  11.748  0.6512 -0.7775  0.2514
16909TIP3    H172218   4.604   1.764  11.752 -0.0252 -1.1220  1.6849
16909TIP3    H272219   4.609   1.903  11.693  1.5334 -1.9019 -0.0619
16910TIP3   OH272220   4.780   5.321  13.263 -0.3149 -0.1156  0.1156
16910TIP3    H172221   4.762   5.404  13.218  0.8378  0.2095  0.2385
16910TIP3    H272222   4.745   5.254  13.204 -1.2855  0.4547  0.0296
16911TIP3   OH272223   6.606   5.978   3.572  0.4386  0.0462  0.1699
16911TIP3    H172224   6.650   5.928   3.503 -1.3336 -1.1961 -0.0964
16911TIP3    H272225   6.595   6.066   3.535 -0.0752 -0.4824 -0.9556
16912TIP3   OH272226   2.749   1.674   1.107  0.3120 -0.2290 -0.1226
16912TIP3    H172227   2.765   1.759   1.066 -0.2557  0.3792  0.8903
16912TIP3    H272228   2.759   1.690   1.201 -1.9572 -0.7639  0.2497
16913TIP3   OH272229   4.716   4.729  15.673 -0.2436  0.1630  0.1590
16913TIP3    H172230   4.723   4.797  15.740 -0.3317  0.4328 -0.1048
16913TIP3    H272231   4.622   4.713  15.664 -0.1306 -1.6725  1.9038
16914TIP3   OH272232   4.421   2.806  10.552 -0.7464  1.3264  0.0719
16914TIP3    H172233   4.483   2.875  10.528 -1.1840  1.3565 -1.0056
16914TIP3    H272234   4.470   2.725  10.537 -1.0265  1.3448 -0.9702
16915TIP3   OH272235   5.102   4.501   2.452  0.1327 -0.0138  0.2070
16915TIP3    H172236   5.148   4.528   2.532  0.6330 -0.8588  0.2097
16915TIP3    H272237   5.072   4.583   2.413 -0.3457  0.3982  1.3973
16916TIP3   OH272238   2.167   1.708  13.754  0.3402 -0.0688 -0.3053
16916TIP3    H172239   2.152   1.613  13.755 -0.4589  0.0573  0.7083
16916TIP3    H272240   2.247   1.719  13.702 -0.2896 -1.1881 -1.5558
16917TIP3   OH272241   4.352   6.551   1.329  0.4248  0.1660 -0.2787
16917TIP3    H172242   4.404   6.525   1.253  2.7527 -1.3995  1.7613
16917TIP3    H272243   4.414   6.594   1.387 -0.8952 -0.3430  1.5648
16918TIP3   OH272244   2.920   3.818   4.366 -0.4970  0.3309 -0.3020
16918TIP3    H172245   2.856   3.770   4.418 -0.1873  2.8307  2.5223
16918TIP3    H272246   2.979   3.857   4.431  3.0065 -0.6357 -2.7575
16919TIP3   OH272247   5.136   5.475   6.687  0.5140  0.7307  0.9967
16919TIP3    H172248   5.062   5.414   6.685 -1.0300  2.5697  1.4085
16919TIP3    H272249   5.139   5.511   6.598  1.4362  0.0708  0.7516
16920TIP3   OH272250   4.313   6.700  15.360  0.2760  0.2434  0.3050
16920TIP3    H172251   4.241   6.761  15.377 -0.2179  0.4429 -2.3255
16920TIP3    H272252   4.380   6.723  15.424 -0.3670  2.8144  0.0877
16921TIP3   OH272253   2.131   0.085   2.070  0.1109  0.5439 -0.2610
16921TIP3    H172254   2.203   0.144   2.048  0.4182 -0.3114 -1.5769
16921TIP3    H272255   2.066   0.099   2.001  0.1489 -0.6056 -0.5242
16922TIP3   OH272256   1.741   1.475   4.340 -0.5468  0.5924  0.6157
16922TIP3    H172257   1.775   1.386   4.354  0.4982  0.9171  0.2110
16922TIP3    H272258   1.646   1.466   4.349 -0.4341 -0.5182  0.8298
16923TIP3   OH272259   2.435   4.138   3.686  0.0608  0.2202  0.5539
16923TIP3    H172260   2.515   4.117   3.638 -0.1977  0.5997 -0.0497
16923TIP3    H272261   2.440   4.233   3.699 -0.9263  0.4367 -0.6386
16924TIP3   OH272262   0.163   2.979   3.949 -0.1084 -0.2538  0.2098
16924TIP3    H172263   0.077   2.967   3.908  0.1033 -0.4103 -0.1953
16924TIP3    H272264   0.223   2.991   3.875 -0.0742  1.8191  0.5445
16925TIP3   OH272265   5.953   0.066  15.399 -0.0290  0.4452 -0.6568
16925TIP3    H172266   5.898   0.069  15.478  0.6541  0.1500 -0.1659
16925TIP3    H272267   5.919  -0.009  15.350  1.6869 -1.4491  0.9655
16926TIP3   OH272268   4.630   0.932  12.619 -0.3077  0.1317  0.5785
16926TIP3    H172269   4.604   0.841  12.605  1.7265 -0.5264  0.8913
16926TIP3    H272270   4.657   0.936  12.711  1.1190  0.6331  0.1625
16927TIP3   OH272271   2.306   1.443  12.892 -0.1457  0.5918 -0.7444
16927TIP3    H172272   2.216   1.430  12.861 -0.4272  0.6388  0.0199
16927TIP3    H272273   2.333   1.526  12.855 -0.8982  1.2132  0.0880
16928TIP3   OH272274   3.218   0.429   4.660  0.3183 -0.0888  0.0203
16928TIP3    H172275   3.184   0.405   4.573 -1.4741 -0.2887  0.7404
16928TIP3    H272276   3.249   0.518   4.650  2.5087 -0.9758 -1.4677
16929TIP3   OH272277   3.381   1.197  14.898 -0.0521 -0.3184 -0.1840
16929TIP3    H172278   3.338   1.220  14.816  1.7056  2.5074 -0.3926
16929TIP3    H272279   3.354   1.107  14.916 -3.2166  0.1993 -2.0612
16930TIP3   OH272280   3.216   6.639   2.843 -0.6447 -0.1281 -0.4255
16930TIP3    H172281   3.226   6.695   2.921  1.7206  0.8895 -1.4137
16930TIP3    H272282   3.252   6.555   2.869 -0.7385 -0.0786 -0.1293
16931TIP3   OH272283   3.488   4.894   1.971 -0.2554  0.5058  0.2934
16931TIP3    H172284   3.544   4.969   1.991 -0.4914 -0.0343  3.2669
16931TIP3    H272285   3.399   4.926   1.988 -0.6084  0.3882 -1.2582
16932TIP3   OH272286   5.652   1.263  15.166 -0.2172 -0.0684 -0.2000
16932TIP3    H172287   5.707   1.193  15.200 -1.6283 -1.3437 -0.4945
16932TIP3    H272288   5.644   1.244  15.072 -0.6732  0.4408 -0.2665
16933TIP3   OH272289   1.244   2.130   3.260  0.9119 -0.5726  0.7398
16933TIP3    H172290   1.294   2.145   3.179  0.0828 -0.9270  0.1596
16933TIP3    H272291   1.194   2.211   3.273  3.2648  0.6747  2.5225
16934TIP3   OH272292   0.507   2.511  12.122 -0.0410  0.0900 -0.1681
16934TIP3    H172293   0.426   2.549  12.089  0.6907  0.0253 -2.1089
16934TIP3    H272294   0.497   2.417  12.106  0.1175 -0.0123  0.3021
16935TIP3   OH272295   5.294   0.731   2.063 -0.2664  0.3660  0.6742
16935TIP3    H172296   5.344   0.722   2.143 -1.7789 -0.9043  1.5184
16935TIP3    H272297   5.211   0.687   2.081 -1.3768  1.6829 -0.9461
16936TIP3   OH272298   4.851   0.168  11.780 -0.4536 -0.3008  0.0263
16936TIP3    H172299   4.823   0.260  11.777  0.8427  0.0791 -0.9108
16936TIP3    H272300   4.947   0.173  11.785 -0.2974 -1.6075 -1.4694
16937TIP3   OH272301   6.542   5.168   5.895 -0.4094 -0.3243  0.3158
16937TIP3    H172302   6.506   5.080   5.906 -0.7495 -0.1652  0.5296
16937TIP3    H272303   6.473   5.225   5.930  0.1179 -0.0176  0.8718
16938TIP3   OH272304   2.412   2.273  11.679 -0.2402 -1.1635  0.2741
16938TIP3    H172305   2.363   2.249  11.758 -0.8112  1.3131  0.6996
16938TIP3    H272306   2.492   2.314  11.711  0.3354 -1.6954 -0.4519
16939TIP3   OH272307   0.370   3.230  12.593  0.1436 -0.1299 -0.1662
16939TIP3    H172308   0.340   3.298  12.534  1.2717  2.0481  1.6816
16939TIP3    H272309   0.296   3.214  12.651  0.3637  0.6065  0.3279
16940TIP3   OH272310   2.132   1.951   0.675  0.1601  0.4785  0.6107
16940TIP3    H172311   2.109   1.938   0.583  0.0041  0.5208  0.6444
16940TIP3    H272312   2.225   1.976   0.673 -0.2334  1.9959  0.3503
16941TIP3   OH272313   2.818   0.648   4.151 -0.1019  0.2569 -0.5623
16941TIP3    H172314   2.750   0.617   4.210  0.1463  1.5550  0.4162
16941TIP3    H272315   2.892   0.590   4.167  0.0539  0.7626  0.6085
16942TIP3   OH272316   3.161   5.409  14.639  0.3598  0.2284  0.3500
16942TIP3    H172317   3.121   5.390  14.554  1.4230  0.0327 -0.1158
16942TIP3    H272318   3.254   5.421  14.619  0.8239 -1.0646  1.6599
16943TIP3   OH272319   2.514   0.893   2.635 -0.4587  0.2811  0.5982
16943TIP3    H172320   2.569   0.929   2.705  0.3885  0.7330 -0.2794
16943TIP3    H272321   2.503   0.801   2.658 -1.1339  0.6778  1.9125
16944TIP3   OH272322   4.540   3.754   3.046  0.2410 -0.1590  0.8425
16944TIP3    H172323   4.622   3.720   3.009  1.0427  0.7971  1.7050
16944TIP3    H272324   4.544   3.728   3.139  0.5079  1.6038  1.3428
16945TIP3   OH272325   3.379   2.047  15.745  0.0575  0.3089  0.3109
16945TIP3    H172326   3.449   2.001  15.792  0.6320  1.4770  0.6296
16945TIP3    H272327   3.424   2.120  15.702 -0.7708  0.3255 -0.5251
16946TIP3   OH272328   5.020   0.971   1.920  0.3615  0.5876 -0.4504
16946TIP3    H172329   5.091   0.927   1.967 -0.4710  0.3920  0.6407
16946TIP3    H272330   4.990   0.906   1.856 -0.8059 -0.4196  1.0980
16947TIP3   OH272331   0.189   1.832   3.941 -0.2139 -0.8613  0.7041
16947TIP3    H172332   0.276   1.808   3.972 -0.0482 -0.3844  0.6100
16947TIP3    H272333   0.203   1.867   3.853 -0.7375 -2.6217 -0.0935
16948TIP3   OH272334   2.136   0.052  11.304  0.1124  0.3897 -0.1856
16948TIP3    H172335   2.162   0.116  11.370 -1.2236  1.6813 -0.8790
16948TIP3    H272336   2.216   0.037  11.252  0.5722  1.0670  0.3207
16949TIP3   OH272337   0.897   0.031   0.947 -0.1536 -0.4515 -0.1010
16949TIP3    H172338   0.897   0.069   1.036 -0.7924 -0.6492 -0.0159
16949TIP3    H272339   0.878   0.106   0.890  0.4146 -0.2927 -0.0896
16950TIP3   OH272340   4.318   0.859   0.999 -0.0969  0.1158 -0.5503
16950TIP3    H172341   4.335   0.830   1.089  1.3458  0.1236 -0.8173
16950TIP3    H272342   4.248   0.924   1.008 -0.6638 -0.6203  0.4545
16951TIP3   OH272343   5.348   0.036   6.432  0.7957 -0.0647  0.2768
16951TIP3    H172344   5.264   0.078   6.451  1.2306  0.2650  1.5228
16951TIP3    H272345   5.338  -0.053   6.466  0.1890 -0.7154 -1.5540
16952TIP3   OH272346   4.851   2.781  15.439  0.2016  0.2970 -0.4525
16952TIP3    H172347   4.801   2.832  15.375 -0.0214  0.6493 -0.0092
16952TIP3    H272348   4.821   2.691  15.427 -0.1375  0.4220 -0.5688
16953TIP3   OH272349   1.791   3.347   0.697  0.1609 -0.1637 -0.1872
16953TIP3    H172350   1.803   3.357   0.791  0.5484 -0.9491 -0.1436
16953TIP3    H272351   1.699   3.368   0.681 -0.7176 -3.0025  0.8216
16954TIP3   OH272352   6.374   2.686   2.810 -0.1948  0.0210 -0.4254
16954TIP3    H172353   6.360   2.602   2.853 -0.0685 -0.2080 -0.8262
16954TIP3    H272354   6.311   2.745   2.851  0.3781 -0.0368  0.5240
16955TIP3   OH272355   6.535   0.544  12.477  0.2427  0.2779  0.4869
16955TIP3    H172356   6.625   0.516  12.490  0.1474  1.1739  3.2418
16955TIP3    H272357   6.534   0.581  12.388  2.7338  0.8260  0.6595
16956TIP3   OH272358   6.464   5.338   4.500  0.6477  0.3213  0.5048
16956TIP3    H172359   6.417   5.392   4.564  0.2977 -0.2321  0.7194
16956TIP3    H272360   6.498   5.264   4.552  1.9827  0.8497  0.4110
16957TIP3   OH272361   2.328   3.274  11.714 -0.0468 -0.1487  0.5511
16957TIP3    H172362   2.320   3.201  11.653 -0.6948  0.6935 -0.3855
16957TIP3    H272363   2.257   3.262  11.776  0.1539 -0.5899  0.6939
16958TIP3   OH272364   3.545   1.184   4.130 -0.5259 -0.3989  0.1344
16958TIP3    H172365   3.516   1.093   4.118 -1.7009 -0.0823  0.5102
16958TIP3    H272366   3.464   1.235   4.130  0.2551  0.8923 -2.0813
16959TIP3   OH272367   5.389   5.767  11.381  0.4747 -0.2806 -0.5002
16959TIP3    H172368   5.437   5.763  11.463  2.3867  1.1511 -1.5072
16959TIP3    H272369   5.330   5.842  11.390 -0.1204 -0.7980 -0.0348
16960TIP3   OH272370   3.334   6.090  10.899 -0.1195  0.1188  0.0765
16960TIP3    H172371   3.242   6.064  10.896  0.2837 -1.3320 -0.1299
16960TIP3    H272372   3.343   6.152  10.826 -1.1911  1.1768  0.8300
16961TIP3   OH272373   5.889   4.745  15.201  0.3495 -0.4492  0.1503
16961TIP3    H172374   5.861   4.753  15.110  0.3021 -3.5412 -0.1476
16961TIP3    H272375   5.971   4.695  15.197  0.6152 -0.1665  1.7600
16962TIP3   OH272376   5.635   3.720  14.429 -0.2608 -0.4208  0.7027
16962TIP3    H172377   5.546   3.721  14.465 -0.0074  1.7787  1.3436
16962TIP3    H272378   5.659   3.813  14.423  0.6970 -0.8266 -2.7084
16963TIP3   OH272379   5.113   1.360   2.801 -0.2068 -0.1822 -0.2436
16963TIP3    H172380   5.165   1.304   2.858  0.1504  0.0641 -0.3237
16963TIP3    H272381   5.135   1.331   2.712 -0.4553 -0.2982 -0.2653
16964TIP3   OH272382   2.645   4.782  14.980 -0.1581  0.3364 -0.2391
16964TIP3    H172383   2.563   4.739  14.955 -1.4137  1.8221  1.1538
16964TIP3    H272384   2.708   4.711  14.988 -1.6398 -0.9899 -0.0590
16965TIP3   OH272385   0.109   3.271  13.746  0.3058 -0.2770  0.0078
16965TIP3    H172386   0.026   3.225  13.734 -0.2343  0.3975  1.1167
16965TIP3    H272387   0.141   3.286  13.657  0.3558 -2.5012 -0.3902
16966TIP3   OH272388   6.714   6.779  15.640  0.4222 -0.2413 -0.1036
16966TIP3    H172389   6.764   6.699  15.659  0.6226  0.6135  3.1338
16966TIP3    H272390   6.773   6.831  15.586  1.5104 -0.9111  0.4244
16967TIP3   OH272391   4.404   4.488  17.194 -0.2250  0.3758  0.0416
16967TIP3    H172392   4.489   4.511  17.157 -0.9498  4.8331  0.8755
16967TIP3    H272393   4.352   4.461  17.118  0.6443  1.9084 -1.1445
16968TIP3   OH272394   0.615   0.405   5.601 -0.2458  0.7045  0.6898
16968TIP3    H172395   0.654   0.352   5.531 -0.6121  1.1050  0.1780
16968TIP3    H272396   0.535   0.441   5.562  1.2670  3.6807  0.1734
16969TIP3   OH272397   5.541   5.673   1.277 -0.0973 -0.4788 -0.0483
16969TIP3    H172398   5.587   5.744   1.322 -0.8834 -0.5732  0.8985
16969TIP3    H272399   5.595   5.656   1.199 -0.4644  1.8802 -0.8504
16970TIP3   OH272400   0.375   2.599  13.708  0.2531  0.0402 -0.2075
16970TIP3    H172401   0.377   2.528  13.772 -0.8215 -0.2271 -0.4540
16970TIP3    H272402   0.308   2.659  13.741  0.2826  0.3136 -0.6432
16971TIP3   OH272403   2.653   5.437  13.110 -0.8215 -0.3342 -0.2809
16971TIP3    H172404   2.558   5.445  13.104 -0.9990 -2.0082  0.0735
16971TIP3    H272405   2.684   5.453  13.021 -1.2693  2.1669 -0.0076
16972TIP3   OH272406   2.079   6.755  12.613  0.0909 -0.4142 -0.0246
16972TIP3    H172407   2.054   6.668  12.584 -0.6449 -0.9983  2.2292
16972TIP3    H272408   1.997   6.805  12.609 -0.0327 -0.5185  1.0417
16973TIP3   OH272409   2.761   4.647  16.880  0.1198 -0.1193  0.0398
16973TIP3    H172410   2.816   4.601  16.943  2.2674  1.5617 -0.5459
16973TIP3    H272411   2.806   4.636  16.796 -0.8120  0.6679 -0.5719
16974TIP3   OH272412   2.123   0.694   4.961 -0.1332 -0.2899 -0.2380
16974TIP3    H172413   2.201   0.692   5.016  1.6375  2.5905 -2.5240
16974TIP3    H272414   2.148   0.646   4.882  0.0215  2.2691 -1.7830
16975TIP3   OH272415   5.448   4.065  13.321  0.0220  0.9229 -0.2190
16975TIP3    H172416   5.405   4.046  13.405  0.4249  1.2220  0.0507
16975TIP3    H272417   5.502   3.987  13.304  1.9961  1.9714  1.0913
16976TIP3   OH272418   3.055   2.686  17.172  0.5234  0.5663  0.4001
16976TIP3    H172419   3.034   2.595  17.152 -1.7725  0.9051  1.1574
16976TIP3    H272420   3.098   2.683  17.258 -1.0884  0.3613  1.1994
16977TIP3   OH272421   2.743   0.784   0.225  0.1840 -0.7947  0.0347
16977TIP3    H172422   2.715   0.876   0.220 -1.0400 -1.1790 -0.3517
16977TIP3    H272423   2.776   0.764   0.137  2.3294 -0.1647  0.6485
16978TIP3   OH272424   6.765   2.113  11.478 -0.2017  0.0313 -0.6133
16978TIP3    H172425   6.786   2.021  11.495  0.8991  0.0169 -1.8924
16978TIP3    H272426   6.850   2.153  11.458 -0.6943  1.2937 -0.2114
16979TIP3   OH272427   1.377   3.922  16.680 -0.6499 -0.0856  0.0130
16979TIP3    H172428   1.343   3.832  16.675 -0.2865 -0.1583 -1.5009
16979TIP3    H272429   1.340   3.957  16.760 -0.1849 -1.8448  1.0409
16980TIP3   OH272430   0.766   5.431  12.088  0.5851 -0.1693 -0.0631
16980TIP3    H172431   0.706   5.505  12.092  0.3405 -0.3030 -1.0921
16980TIP3    H272432   0.737   5.372  12.157  0.9842  0.8452  0.9686
16981TIP3   OH272433   0.760   3.000  14.296 -0.5773 -0.6045 -0.0632
16981TIP3    H172434   0.832   2.951  14.257 -0.7078 -0.7365 -0.1413
16981TIP3    H272435   0.726   3.054  14.225 -1.2733 -1.3765 -0.3296
16982TIP3   OH272436   4.940   1.508   3.941  0.3845  0.0179  0.1998
16982TIP3    H172437   4.896   1.463   4.013 -1.4823  0.0162 -0.9156
16982TIP3    H272438   5.014   1.451   3.919 -0.8167 -1.5447  0.0907
16983TIP3   OH272439   5.598   0.401   0.162  0.0707 -0.0342 -0.6002
16983TIP3    H172440   5.611   0.452   0.082 -1.1768 -0.7861 -1.3058
16983TIP3    H272441   5.686   0.374   0.189  0.8834  3.4706  0.4593
16984TIP3   OH272442   3.749   2.825   1.948 -0.0429  0.1201  0.1921
16984TIP3    H172443   3.683   2.880   1.991  1.2320  0.9623  1.1151
16984TIP3    H272444   3.699   2.756   1.905 -1.5584  1.0487  0.4452
16985TIP3   OH272445   1.766   3.537  15.485 -0.0642  0.3120  0.4488
16985TIP3    H172446   1.807   3.596  15.422  0.8381 -0.5994  0.1496
16985TIP3    H272447   1.674   3.532  15.457 -0.4361  2.4816  1.2010
16986TIP3   OH272448   2.773   4.584   3.767 -0.1590  0.5721 -0.3467
16986TIP3    H172449   2.782   4.557   3.675  0.7644  0.2345 -0.1702
16986TIP3    H272450   2.857   4.559   3.807 -1.2825 -1.1004  1.0451
16987TIP3   OH272451   4.027   2.617   1.257  0.6186  0.2015 -0.7280
16987TIP3    H172452   4.078   2.693   1.285  1.7769  0.1012 -2.5174
16987TIP3    H272453   4.059   2.545   1.312  0.7608  0.6362 -0.2431
16988TIP3   OH272454   2.120   4.329  10.590  0.8670  0.5424  0.1073
16988TIP3    H172455   2.198   4.286  10.555  0.4153  1.0119 -1.4949
16988TIP3    H272456   2.154   4.404  10.638  1.3515  1.3650 -1.5052
16989TIP3   OH272457   5.156   5.916  15.276 -0.1855  0.3819  0.2992
16989TIP3    H172458   5.106   5.883  15.351  1.0231  0.8157  1.3384
16989TIP3    H272459   5.163   5.842  15.217 -0.4060 -0.2364  1.0350
16990TIP3   OH272460   5.682   3.985  12.393  0.1823  0.0212 -0.0683
16990TIP3    H172461   5.764   4.023  12.422  0.5415 -0.6658 -0.1525
16990TIP3    H272462   5.626   3.984  12.470  0.4729 -0.0734  0.1414
16991TIP3   OH272463   5.412   0.177   4.701 -0.0070 -0.2431  0.3973
16991TIP3    H172464   5.352   0.175   4.775  0.1167  0.8444  0.5423
16991TIP3    H272465   5.364   0.225   4.633 -0.1256 -1.2447 -0.2378
16992TIP3   OH272466   3.689   4.069  17.275  0.0817 -0.5472 -0.2298
16992TIP3    H172467   3.604   4.082  17.317  0.4034 -1.0789  0.5881
16992TIP3    H272468   3.707   3.976  17.284  0.6043 -0.4951 -0.6924
16993TIP3   OH272469   3.213   2.029   2.602  0.0281  0.3483  0.0867
16993TIP3    H172470   3.271   2.074   2.541 -0.9487 -0.3531 -1.3790
16993TIP3    H272471   3.243   1.938   2.602 -0.2914  0.2413  0.2840
16994TIP3   OH272472   4.153   5.162  13.862  0.1354 -0.2532  0.2540
16994TIP3    H172473   4.162   5.247  13.906  2.1908 -0.5742  0.4970
16994TIP3    H272474   4.241   5.141  13.831 -0.6485 -1.5908 -1.1482
16995TIP3   OH272475   0.352   6.416   4.320 -0.8043 -0.5836  0.7619
16995TIP3    H172476   0.415   6.407   4.392  1.7088 -1.4047 -1.4207
16995TIP3    H272477   0.292   6.485   4.348  1.6871  0.9389  2.5361
16996TIP3   OH272478   2.617   4.235  11.770 -0.1076 -0.3912  0.5542
16996TIP3    H172479   2.687   4.217  11.707  0.2973  1.8466  0.3242
16996TIP3    H272480   2.658   4.223  11.855  0.6231  1.0167  0.4200
16997TIP3   OH272481   2.829   1.629   4.342 -0.3243  0.3236  0.1556
16997TIP3    H172482   2.862   1.541   4.325  0.0342  0.2792  1.0344
16997TIP3    H272483   2.885   1.686   4.289 -0.5790  0.0199 -0.4408
16998TIP3   OH272484   5.841   1.528   0.068  0.0939  0.2908 -0.1489
16998TIP3    H172485   5.832   1.520   0.163 -0.9682 -0.5239 -0.3155
16998TIP3    H272486   5.807   1.446   0.034 -1.0308  1.2460 -1.3261
16999TIP3   OH272487   3.327   2.100  11.935  0.3058 -0.3211  0.2646
16999TIP3    H172488   3.415   2.073  11.910 -0.5457 -1.0785 -2.0513
16999TIP3    H272489   3.322   2.083  12.029  2.9363  0.6354  0.6252
17000TIP3   OH272490   5.304   6.273   3.048 -0.2490 -0.4123 -0.2669
17000TIP3    H172491   5.290   6.253   3.141 -2.0861 -0.4831 -0.5280
17000TIP3    H272492   5.246   6.347   3.031  1.9441  1.2166 -0.7781
17001TIP3   OH272493   0.746   2.776  15.773 -0.0129 -0.4325 -0.5177
17001TIP3    H172494   0.705   2.736  15.849 -1.4797 -1.4857 -1.8204
17001TIP3    H272495   0.748   2.706  15.707  0.8258  0.5714 -1.5836
17002TIP3   OH272496   0.408   1.023  10.603 -0.3163 -0.2877 -0.6704
17002TIP3    H172497   0.460   0.943  10.612  0.4161  0.1178 -1.3322
17002TIP3    H272498   0.383   1.025  10.510 -0.3522  0.2408 -0.6512
17003TIP3   OH272499   0.692   0.476  14.657 -0.2816 -0.3897 -0.1270
17003TIP3    H172500   0.760   0.409  14.666 -0.6226 -0.6720  0.3427
17003TIP3    H272501   0.719   0.546  14.717  0.4583  0.2197 -1.1481
17004TIP3   OH272502   2.420   1.969  12.970  0.5463  0.3301 -0.3005
17004TIP3    H172503   2.420   1.918  12.888 -0.7894  1.3992 -1.0008
17004TIP3    H272504   2.497   2.025  12.964  1.3919 -0.8057 -0.0467
17005TIP3   OH272505   2.508   2.279   4.277  0.0529 -0.2215 -0.0603
17005TIP3    H172506   2.559   2.213   4.230  2.2952  1.1642  0.3410
17005TIP3    H272507   2.488   2.238   4.361 -0.5321 -1.2278 -0.6835
17006TIP3   OH272508   3.566   6.539  16.984  0.5942  0.4849 -0.2327
17006TIP3    H172509   3.545   6.470  16.921  2.1687 -1.4619  1.2933
17006TIP3    H272510   3.639   6.587  16.944 -0.1792  0.9531 -1.0834
17007TIP3   OH272511   5.449   2.545   1.623 -0.3826 -0.7175 -0.3630
17007TIP3    H172512   5.462   2.614   1.558  1.2390  0.9243  1.6396
17007TIP3    H272513   5.364   2.565   1.663 -0.1978 -0.2358 -0.2124
17008TIP3   OH272514   2.047   5.880  16.749  0.2321  0.3137  0.9065
17008TIP3    H172515   2.084   5.920  16.670 -2.4573  0.7159 -0.2060
17008TIP3    H272516   1.999   5.803  16.717  0.6826 -0.6214  2.3885
17009TIP3   OH272517   5.626   2.780  12.628 -0.3922 -0.0972 -0.0875
17009TIP3    H172518   5.568   2.742  12.563 -0.3068  1.5499 -1.1393
17009TIP3    H272519   5.705   2.725  12.626 -0.4563 -0.1526 -1.2631
17010TIP3   OH272520   5.376   5.016   2.505  0.4300 -0.7312 -0.4798
17010TIP3    H172521   5.373   4.989   2.596  0.2144  1.7929  0.2995
17010TIP3    H272522   5.437   5.090   2.503 -1.9806  1.3500 -1.7252
17011TIP3   OH272523   0.143   1.746   1.451 -0.3591  0.0351 -0.0898
17011TIP3    H172524   0.063   1.798   1.446 -0.0089  0.7597  1.5030
17011TIP3    H272525   0.205   1.790   1.393 -0.0985  1.3764  1.1641
17012TIP3   OH272526   4.669   0.480  15.830  0.0297 -0.5479 -0.4518
17012TIP3    H172527   4.706   0.540  15.895  0.9151 -1.6151  0.0636
17012TIP3    H272528   4.575   0.496  15.833 -0.1748 -1.8035  2.4147
17013TIP3   OH272529   6.809   1.661  15.933  0.4002 -0.5422 -0.3509
17013TIP3    H172530   6.815   1.597  15.862  1.9111 -0.3325 -0.4346
17013TIP3    H272531   6.750   1.621  15.996  0.5223 -1.5663 -0.8723
17014TIP3   OH272532   4.384   3.445   5.050  0.1187  0.1561 -0.0227
17014TIP3    H172533   4.471   3.427   5.084  0.6174 -1.2025 -1.9061
17014TIP3    H272534   4.325   3.403   5.112  0.8416  0.2845  0.7640
17015TIP3   OH272535   1.140   4.492  12.843 -0.5279 -0.2314 -0.0252
17015TIP3    H172536   1.180   4.511  12.927  2.0452 -0.5221 -1.1416
17015TIP3    H272537   1.124   4.578  12.804  0.5466 -0.1281 -0.2582
17016TIP3   OH272538   0.150   0.209  11.800  0.0076  0.5044 -0.1444
17016TIP3    H172539   0.204   0.277  11.841  1.5169 -0.5570 -0.3015
17016TIP3    H272540   0.180   0.206  11.709  2.7167 -2.9170  0.7142
17017TIP3   OH272541   0.867   3.161   2.936  0.1262 -0.1192 -0.0879
17017TIP3    H172542   0.830   3.104   3.003  1.0490 -1.0248 -0.3256
17017TIP3    H272543   0.961   3.160   2.953  0.1244  1.6136  0.0997
17018TIP3   OH272544   0.977   6.447  12.642  0.0512  0.0827 -0.2942
17018TIP3    H172545   0.932   6.532  12.640  2.2974  1.3053 -1.4010
17018TIP3    H272546   0.942   6.400  12.566  1.8375  1.7053 -2.1891
17019TIP3   OH272547   4.508   3.693   5.587  0.4252  0.3156  0.0690
17019TIP3    H172548   4.493   3.774   5.637  0.9162  0.9738 -0.8309
17019TIP3    H272549   4.598   3.701   5.556  0.2629 -0.2781 -0.5650
17020TIP3   OH272550   4.941   4.983  16.358  0.2319 -0.4317 -0.5482
17020TIP3    H172551   4.990   4.914  16.402 -0.2536  0.2177  1.0380
17020TIP3    H272552   5.005   5.025  16.301  0.7505 -1.5697 -0.8347
17021TIP3   OH272553   3.995   1.694   3.756 -0.2254  0.3169  0.2185
17021TIP3    H172554   4.010   1.629   3.825  0.7538 -0.7961 -1.0162
17021TIP3    H272555   3.905   1.678   3.728 -0.1900 -0.0976  0.3341
17022TIP3   OH272556   1.839   2.100   3.746  0.1068 -0.1187  0.0099
17022TIP3    H172557   1.787   2.177   3.723  0.5478  0.4627  0.9517
17022TIP3    H272558   1.850   2.053   3.664  0.5396  1.2452 -0.7197
17023TIP3   OH272559   1.025   0.895   1.428  0.6804  0.0993 -0.0474
17023TIP3    H172560   1.003   0.879   1.520 -0.8210 -0.5775 -0.5185
17023TIP3    H272561   0.942   0.917   1.386  0.9329 -1.9145 -1.7171
17024TIP3   OH272562   2.939   2.868  14.686 -0.5165 -0.3419 -0.0928
17024TIP3    H172563   2.860   2.921  14.687 -0.4113 -0.1694 -0.7657
17024TIP3    H272564   2.909   2.779  14.704 -0.7145 -0.0867  0.8381
17025TIP3   OH272565   0.301   6.362   4.641  0.4713 -0.0732 -0.6238
17025TIP3    H172566   0.282   6.448   4.603  0.6323  0.3923  0.3600
17025TIP3    H272567   0.219   6.337   4.684  0.6315 -0.1382 -0.3624
17026TIP3   OH272568   2.461   4.204   1.435 -0.0351 -0.1744 -0.0941
17026TIP3    H172569   2.459   4.161   1.350 -1.8741  0.4345 -0.3901
17026TIP3    H272570   2.477   4.296   1.416 -1.6456  0.1666  0.1004
17027TIP3   OH272571   0.028   4.996   4.836 -0.4340 -0.2870  0.5176
17027TIP3    H172572  -0.058   5.038   4.841 -0.7715 -0.5460 -2.1419
17027TIP3    H272573   0.024   4.926   4.901 -2.4100 -0.5581  0.1446
17028TIP3   OH272574   1.142   0.849   5.710  0.5011 -0.4702  0.3518
17028TIP3    H172575   1.204   0.834   5.782  0.8083  0.2976  0.2446
17028TIP3    H272576   1.187   0.911   5.653 -0.5788  0.4725  0.5253
17029TIP3   OH272577   3.025   2.027  16.001 -0.8318  0.5374  0.2474
17029TIP3    H172578   3.062   2.097  15.947  0.0875 -0.8045 -0.8847
17029TIP3    H272579   3.059   2.044  16.089  0.3712  0.8110 -0.2709
17030TIP3   OH272580   6.243   2.094  13.457  0.0423  0.4955  0.0253
17030TIP3    H172581   6.286   2.179  13.459 -1.0312  1.0339  0.4788
17030TIP3    H272582   6.175   2.102  13.390  0.5064 -0.2808 -0.5469
17031TIP3   OH272583   1.795   3.794  16.254 -0.2756  0.1607 -0.0328
17031TIP3    H172584   1.700   3.803  16.247 -0.3492 -0.4173  0.2025
17031TIP3    H272585   1.829   3.840  16.177 -0.7393  0.4927 -0.0368
17032TIP3   OH272586   2.660   3.070  15.006 -0.5987  0.2356  0.2265
17032TIP3    H172587   2.723   3.051  15.075 -0.8808 -0.4609  0.2924
17032TIP3    H272588   2.652   3.165  15.007 -0.6679  0.2239  1.2073
17033TIP3   OH272589   6.052   1.970  14.100 -0.2787  0.2141 -0.0738
17033TIP3    H172590   6.129   2.026  14.100 -0.5334  0.5633  0.3405
17033TIP3    H272591   5.990   2.012  14.040  0.2233 -0.5792 -1.1578
17034TIP3   OH272592   3.245   6.370   4.484  0.4197 -0.4921 -0.1731
17034TIP3    H172593   3.208   6.324   4.409 -1.0441  0.5331 -0.1177
17034TIP3    H272594   3.208   6.459   4.478 -0.0874 -0.5167  1.9820
17035TIP3   OH272595   0.218   5.810   6.320 -0.1434 -0.4253  0.3063
17035TIP3    H172596   0.183   5.893   6.351  0.0125  0.2885 -1.3774
17035TIP3    H272597   0.236   5.760   6.400 -2.1005  0.3682  1.2857
17036TIP3   OH272598   5.394   0.320  16.511 -0.0835 -0.4854  0.2376
17036TIP3    H172599   5.424   0.355  16.595 -1.0491 -1.2659  0.9174
17036TIP3    H272600   5.323   0.260  16.534 -1.1417  0.1764 -1.2362
17037TIP3   OH272601   6.602   3.792  14.835  0.1084 -0.0892 -0.5478
17037TIP3    H172602   6.627   3.723  14.897  0.2178 -1.4975 -2.1115
17037TIP3    H272603   6.645   3.767  14.754 -0.6105  1.3528 -1.3807
17038TIP3   OH272604   3.143   5.022  14.565  0.2136  0.3129 -0.4732
17038TIP3    H172605   3.226   5.004  14.521  0.4954  1.4017 -0.3841
17038TIP3    H272606   3.080   5.033  14.494  0.2391 -0.0194 -0.5510
17039TIP3   OH272607   0.165   0.141   2.468  0.2469 -0.0907  0.2527
17039TIP3    H172608   0.201   0.052   2.466  0.3604 -0.0254 -2.1079
17039TIP3    H272609   0.077   0.132   2.432 -0.4673  0.4752  1.8016
17040TIP3   OH272610   0.701   5.055  16.017 -0.2881  0.1970 -0.7489
17040TIP3    H172611   0.769   5.116  16.046  1.3835 -1.3870 -1.2623
17040TIP3    H272612   0.620   5.106  16.021  0.7608  1.7821  0.9301
17041TIP3   OH272613   2.055   3.709  16.327 -0.6564  0.0820  0.3401
17041TIP3    H172614   1.968   3.724  16.290 -0.3909  0.4810 -0.1202
17041TIP3    H272615   2.055   3.759  16.408 -0.7101  0.4262  0.1311
17042TIP3   OH272616   0.261   6.659   4.989  0.6977  0.0069 -0.3727
17042TIP3    H172617   0.201   6.674   4.916 -2.4779 -2.3591  1.6510
17042TIP3    H272618   0.273   6.746   5.028 -0.7966  0.6320 -1.2780
17043TIP3   OH272619   1.080   4.199   2.739 -0.3926 -0.2528 -0.4475
17043TIP3    H172620   1.025   4.121   2.742  0.7995 -1.1503 -1.3403
17043TIP3    H272621   1.169   4.167   2.755 -0.2337  1.3122  2.0199
17044TIP3   OH272622   3.442   2.058  12.216  0.1377  0.0449  0.0819
17044TIP3    H172623   3.465   2.004  12.292  0.7226 -0.2345 -0.2914
17044TIP3    H272624   3.391   2.130  12.252  0.1509 -0.2542  0.7014
17045TIP3   OH272625   3.028   5.247   1.724  0.0057  0.3824 -0.5776
17045TIP3    H172626   3.120   5.220   1.719 -0.1434 -0.3224  0.2416
17045TIP3    H272627   2.979   5.166   1.711 -0.5014  0.7691 -1.0742
17046TIP3   OH272628   5.344   6.560  15.069 -0.2681  0.2346 -0.5970
17046TIP3    H172629   5.341   6.479  15.017  0.5005  0.1184 -0.4617
17046TIP3    H272630   5.313   6.627  15.009 -2.2859 -0.3737 -0.2806
17047TIP3   OH272631   4.046   3.410  12.056  0.2952  0.7391 -0.3379
17047TIP3    H172632   4.136   3.378  12.047  0.3264  0.9709 -0.8307
17047TIP3    H272633   4.035   3.423  12.151 -0.3093 -2.4567  0.0907
17048TIP3   OH272634   2.580   0.495   2.256  0.4405  0.4822 -0.2759
17048TIP3    H172635   2.643   0.450   2.199  0.3422  0.8128 -0.6540
17048TIP3    H272636   2.598   0.461   2.343  0.5766 -0.0575 -0.5063
17049TIP3   OH272637   2.678   6.005  15.627  0.3610 -0.0958  0.5890
17049TIP3    H172638   2.639   6.086  15.662  1.9497  1.3721 -0.9061
17049TIP3    H272639   2.763   6.033  15.593  1.6727 -2.7290  1.5301
17050TIP3   OH272640   2.795   0.091  16.256 -0.2998 -0.1918 -0.2232
17050TIP3    H172641   2.868   0.127  16.306  1.2559 -1.3565 -1.6029
17050TIP3    H272642   2.728   0.071  16.322  0.8081  0.4189  1.1061
17051TIP3   OH272643   1.667   5.748   2.879 -0.1569  0.2438  0.4801
17051TIP3    H172644   1.710   5.763   2.795 -0.5358  1.0670  0.4331
17051TIP3    H272645   1.727   5.690   2.927  1.1005  1.5238  0.4812
17052TIP3   OH272646   0.162   1.249   4.677 -0.2605 -0.0440 -0.3716
17052TIP3    H172647   0.092   1.298   4.722 -0.2821 -0.1066 -0.3371
17052TIP3    H272648   0.193   1.309   4.610  0.2818  0.3328  0.2140
17053TIP3   OH272649   4.968   4.277  15.935 -0.3437 -0.0242  0.2642
17053TIP3    H172650   4.942   4.224  16.010  0.4119 -1.4968 -0.5035
17053TIP3    H272651   4.889   4.325  15.911 -0.7660 -0.0423  1.5820
17054TIP3   OH272652   1.972   5.911  12.796 -0.2650  0.1454 -0.2856
17054TIP3    H172653   2.040   5.846  12.807 -0.6514  0.0139  1.4424
17054TIP3    H272654   1.999   5.961  12.719  0.8085 -1.0728 -0.7177
17055TIP3   OH272655   4.950   4.208  16.879  0.1106 -0.3310 -0.1713
17055TIP3    H172656   4.881   4.163  16.830 -0.1187  0.2807 -0.4158
17055TIP3    H272657   5.010   4.241  16.811  0.3381 -0.3718  0.0093
17056TIP3   OH272658   6.327   3.854   5.714  0.0010  0.4317  0.1122
17056TIP3    H172659   6.265   3.783   5.692  1.1843 -0.0565 -1.7449
17056TIP3    H272660   6.331   3.853   5.809 -1.1285 -1.0374  0.1688
17057TIP3   OH272661   0.448   0.398  15.924 -0.3545  0.2226  0.2997
17057TIP3    H172662   0.485   0.472  15.875  0.3702 -0.0328  0.4684
17057TIP3    H272663   0.512   0.380  15.992 -1.4356  0.6819  1.4558
17058TIP3   OH272664   1.911   3.459   2.486 -0.0317 -0.1370 -0.1820
17058TIP3    H172665   1.917   3.543   2.531  0.8732 -0.4854  0.3562
17058TIP3    H272666   1.853   3.406   2.540  1.2355 -0.6326  0.7129
17059TIP3   OH272667   6.717   6.032  13.609  0.0952  0.0216  0.0486
17059TIP3    H172668   6.796   5.977  13.608  1.3721  1.7806  1.1706
17059TIP3    H272669   6.743   6.113  13.566 -1.6183 -0.0014 -1.0884
17060TIP3   OH272670   3.150   5.696  13.136 -0.2697 -0.1266  0.1559
17060TIP3    H172671   3.104   5.641  13.072  0.9140  0.6627 -1.3954
17060TIP3    H272672   3.080   5.729  13.193 -1.3735 -0.6931 -0.8462
17061TIP3   OH272673   5.358   1.473  10.593  0.0043  0.2979  0.1044
17061TIP3    H172674   5.289   1.539  10.584 -1.2071 -0.9894 -0.2031
17061TIP3    H272675   5.313   1.390  10.579  1.7165 -0.5267 -0.6059
17062TIP3   OH272676   2.804   5.173   4.284  0.2859  0.1255 -0.4296
17062TIP3    H172677   2.877   5.130   4.238 -0.5248 -0.3794 -1.2772
17062TIP3    H272678   2.767   5.232   4.219 -0.5429 -0.1972 -0.2594
17063TIP3   OH272679   6.621   5.494  14.643 -0.2061 -0.4395 -0.2827
17063TIP3    H172680   6.609   5.575  14.694 -0.4729  0.4833 -1.7918
17063TIP3    H272681   6.689   5.446  14.691  0.6215  1.0933  0.1269
17064TIP3   OH272682   1.926   0.553   5.831  0.2459 -0.1463 -0.7820
17064TIP3    H172683   1.897   0.575   5.743 -2.3409  3.1349  0.7698
17064TIP3    H272684   2.021   0.563   5.828  0.3687 -1.7513 -3.5832
17065TIP3   OH272685   4.295   2.730  13.661 -0.2904  0.4050  0.7264
17065TIP3    H172686   4.214   2.712  13.614  0.7046 -0.4410 -0.7032
17065TIP3    H272687   4.274   2.806  13.716 -2.3017 -0.3674  1.0688
17066TIP3   OH272688   0.430   5.915  15.161 -0.3193  0.1733  0.0394
17066TIP3    H172689   0.402   5.993  15.115  0.3941 -0.6002 -1.7728
17066TIP3    H272690   0.504   5.944  15.215 -0.6808  0.9356  0.1288
17067TIP3   OH272691   4.257   3.101   2.134 -0.3691 -0.0696  0.7416
17067TIP3    H172692   4.230   3.171   2.194  0.4222  1.9727 -1.1841
17067TIP3    H272693   4.237   3.136   2.047 -0.5898 -2.5628 -0.2268
17068TIP3   OH272694   5.727   6.376  11.347  0.2357 -0.0076  0.2439
17068TIP3    H172695   5.775   6.341  11.422 -1.3262 -0.7234  0.9285
17068TIP3    H272696   5.697   6.299  11.299  1.6206  0.4361 -1.4265
17069TIP3   OH272697   6.315   0.712  16.170  0.0733 -0.2057  0.0358
17069TIP3    H172698   6.356   0.735  16.087  0.6755 -0.4497  0.2593
17069TIP3    H272699   6.375   0.746  16.237  0.5701 -1.6705  0.3674
17070TIP3   OH272700   2.037   1.842  16.731 -0.0448  0.2502  0.1414
17070TIP3    H172701   1.953   1.796  16.737  0.0484  0.1469  0.6617
17070TIP3    H272702   2.043   1.893  16.812 -0.1826  1.2470 -0.4703
17071TIP3   OH272703   1.429   3.190  11.853  0.1797 -0.0200 -0.2397
17071TIP3    H172704   1.338   3.164  11.866 -0.3484  0.9655 -1.9281
17071TIP3    H272705   1.474   3.109  11.828  0.2167 -0.9318  2.5444
17072TIP3   OH272706   0.512   4.500  11.103  0.6057  0.0400 -0.1613
17072TIP3    H172707   0.502   4.571  11.040  0.7838  0.5163  0.3459
17072TIP3    H272708   0.501   4.420  11.051  2.1912  0.3880 -1.0460
17073TIP3   OH272709   5.686   2.279   5.097  0.2014 -0.6652 -0.0475
17073TIP3    H172710   5.691   2.355   5.039  1.7268 -1.1733 -0.6111
17073TIP3    H272711   5.645   2.313   5.177 -0.4498  0.4077 -0.8133
17074TIP3   OH272712   1.621   3.535  14.286  0.1878  0.1092 -0.2367
17074TIP3    H172713   1.594   3.447  14.312 -2.1023  1.3419  1.7047
17074TIP3    H272714   1.696   3.555  14.342 -0.0196 -0.1427  0.1299
17075TIP3   OH272715   0.343   4.173   2.691 -0.1115  0.3193 -0.4141
17075TIP3    H172716   0.379   4.098   2.738  0.1699  0.5963 -0.1794
17075TIP3    H272717   0.367   4.248   2.745 -0.7826  0.5388 -0.4145
17076TIP3   OH272718   6.682   5.328  12.691 -0.6495  0.4283  0.3406
17076TIP3    H172719   6.680   5.399  12.626  3.7557 -1.0028 -1.5713
17076TIP3    H272720   6.611   5.270  12.664 -2.1250  2.3639 -0.1117
17077TIP3   OH272721   2.931   2.287   1.319  0.9052 -0.5894 -0.4092
17077TIP3    H172722   2.995   2.356   1.300  1.8495 -1.3321  0.0999
17077TIP3    H272723   2.875   2.286   1.241  0.7693  0.8732 -0.3618
17078TIP3   OH272724   5.194   3.551  13.666  0.5674 -0.4019  0.2916
17078TIP3    H172725   5.242   3.556  13.583  1.0351  3.6216  0.6710
17078TIP3    H272726   5.102   3.556  13.641  0.6965  0.4925 -0.0395
17079TIP3   OH272727   0.679   2.265  16.582  0.6289 -0.6480  0.0785
17079TIP3    H172728   0.773   2.263  16.564  0.2471  1.1824 -2.3248
17079TIP3    H272729   0.638   2.263  16.495 -1.5557 -1.2333  1.0905
17080TIP3   OH272730   4.511   5.860  14.632 -0.1168 -0.1129 -0.4908
17080TIP3    H172731   4.567   5.935  14.612 -0.8783  0.4846 -0.3720
17080TIP3    H272732   4.573   5.790  14.655  0.5784  0.6593  0.0407
17081TIP3   OH272733   2.153   4.433   4.643  0.7483 -0.1655  0.0139
17081TIP3    H172734   2.177   4.376   4.569  1.2351 -0.0029  0.0424
17081TIP3    H272735   2.236   4.449   4.688  0.2632 -1.3191  1.3482
17082TIP3   OH272736   0.630   5.927   4.213  0.1315  0.1859 -0.1447
17082TIP3    H172737   0.557   5.876   4.249  1.1768 -1.0052  0.3184
17082TIP3    H272738   0.626   5.911   4.119  1.1763 -1.7404  0.1202
17083TIP3   OH272739   1.124   0.510  15.202 -0.7412  0.0116  0.3535
17083TIP3    H172740   1.092   0.524  15.291 -0.9696  0.9609  0.1262
17083TIP3    H272741   1.180   0.586  15.184  0.7348 -1.0644  0.3291
17084TIP3   OH272742   4.052   3.701   4.405 -0.3282  0.1148  0.3789
17084TIP3    H172743   4.004   3.702   4.322  0.8216 -1.0404 -0.3246
17084TIP3    H272744   4.018   3.625   4.452 -0.0394 -0.0061  0.3929
17085TIP3   OH272745   2.790   2.886   3.998  0.5747  0.5949  0.7596
17085TIP3    H172746   2.771   2.938   3.920 -0.2014  1.2895  1.3991
17085TIP3    H272747   2.801   2.951   4.068  0.9708 -0.0340  1.2960
17086TIP3   OH272748   1.349   3.636   1.657  0.8334  0.0406  0.3388
17086TIP3    H172749   1.352   3.731   1.641 -0.6278  0.0271 -0.0960
17086TIP3    H272750   1.349   3.629   1.753 -0.0795  0.5489  0.3947
17087TIP3   OH272751   6.776   0.297   0.440  0.3252  0.6667 -0.3309
17087TIP3    H172752   6.842   0.272   0.376 -0.0468 -1.7132  0.1476
17087TIP3    H272753   6.752   0.386   0.416  0.8268  0.1542 -2.9725
17088TIP3   OH272754   4.310   2.405  17.166  0.2775 -0.2305 -0.2265
17088TIP3    H172755   4.347   2.491  17.143  1.9440 -0.4634  1.4657
17088TIP3    H272756   4.356   2.344  17.109 -0.1273 -0.1253 -0.6709
17089TIP3   OH272757   1.116   3.277  12.850  0.1084  0.1079 -0.2395
17089TIP3    H172758   1.070   3.291  12.767  0.6613 -0.7711 -0.6951
17089TIP3    H272759   1.208   3.292  12.830  0.1711  0.5486  0.3693
17090TIP3   OH272760   2.577   2.916  16.633 -0.4616 -0.1145 -0.4528
17090TIP3    H172761   2.596   2.943  16.723 -0.2373  0.0682 -0.5566
17090TIP3    H272762   2.489   2.949  16.616 -0.4978 -0.1341 -0.3079
17091TIP3   OH272763   3.559   4.906  12.137 -0.2858  0.1357  0.2125
17091TIP3    H172764   3.576   4.976  12.201  0.6471 -0.5813  0.7708
17091TIP3    H272765   3.644   4.863  12.126 -0.9313 -1.1332  0.1417
17092TIP3   OH272766   6.810   2.955   5.750  0.4672 -0.3544  0.2433
17092TIP3    H172767   6.867   2.920   5.819 -0.8406  2.4135  2.8487
17092TIP3    H272768   6.743   2.888   5.738  0.2428 -0.5212  2.2642
17093TIP3   OH272769   2.768   4.905  15.985  0.3192  0.4066  0.8209
17093TIP3    H172770   2.801   4.994  15.971  0.1344  0.1222 -1.7777
17093TIP3    H272771   2.839   4.859  16.029  1.6883  1.0111 -0.6807
17094TIP3   OH272772   1.734   5.936   1.038 -0.2327 -0.3965  0.0427
17094TIP3    H172773   1.774   5.981   0.963  0.9591 -0.5929  0.5556
17094TIP3    H272774   1.640   5.940   1.020 -0.1896  2.6216  0.2467
17095TIP3   OH272775   3.722   4.628  11.882 -0.1898  0.2657  0.6307
17095TIP3    H172776   3.797   4.611  11.825 -0.3424  2.7719 -0.3569
17095TIP3    H272777   3.660   4.557  11.861  0.7297 -0.1989 -0.5967
17096TIP3   OH272778   3.612   0.907   0.283 -0.7635  0.4654  0.1693
17096TIP3    H172779   3.538   0.907   0.223 -0.1389 -1.5386 -0.6240
17096TIP3    H272780   3.671   0.973   0.248 -0.3564 -0.7638 -1.5058
17097TIP3   OH272781   4.205   3.498   4.117 -0.1180 -0.5012  0.1842
17097TIP3    H172782   4.160   3.424   4.158 -2.9072  0.1255 -1.6025
17097TIP3    H272783   4.259   3.458   4.049 -0.9171 -1.0017 -0.1723
17098TIP3   OH272784   3.115   5.544  10.370 -0.7855 -0.9216  0.6469
17098TIP3    H172785   3.053   5.570  10.438 -1.7475 -0.6604 -0.3098
17098TIP3    H272786   3.093   5.600  10.295  0.2075 -1.2547  0.1013
17099TIP3   OH272787   1.857   0.869  11.649 -0.1648 -0.1495  0.4071
17099TIP3    H172788   1.870   0.803  11.581 -0.6843  0.3138 -0.1372
17099TIP3    H272789   1.946   0.894  11.675  0.0318 -0.3589 -0.0644
17100TIP3   OH272790   6.315   6.000  10.812  0.8048 -0.5400  0.3161
17100TIP3    H172791   6.362   6.056  10.751 -0.2549 -1.4895 -1.4252
17100TIP3    H272792   6.236   6.050  10.834  0.5002 -0.7796 -0.2124
17101TIP3   OH272793   4.128   6.601   0.321 -0.1528 -0.0447  0.4373
17101TIP3    H172794   4.141   6.691   0.350 -0.0895  0.3773 -0.8857
17101TIP3    H272795   4.110   6.553   0.401  1.2991  0.8723  1.3374
17102TIP3   OH272796   4.079   0.745   4.565 -0.2242  1.0440 -0.1757
17102TIP3    H172797   4.142   0.673   4.569  0.2106  1.4551  0.5602
17102TIP3    H272798   4.018   0.720   4.496 -0.7427 -0.5935  0.8256
17103TIP3   OH272799   0.431   2.914  10.657  0.4082 -0.4595 -0.6936
17103TIP3    H172800   0.410   2.965  10.735 -0.6400 -0.1885 -1.1465
17103TIP3    H272801   0.526   2.912  10.654  0.4796  1.6627 -0.7848
17104TIP3   OH272802   4.911   4.940   1.639 -0.2977 -0.0557  0.2230
17104TIP3    H172803   4.874   4.851   1.633 -0.3252 -0.0165 -0.1666
17104TIP3    H272804   4.854   4.993   1.584 -1.2366  0.5216  1.6914
17105TIP3   OH272805   0.505   0.886   1.947  0.0587 -0.5040 -0.8831
17105TIP3    H172806   0.419   0.863   1.910 -0.1508 -0.0617 -0.6713
17105TIP3    H272807   0.510   0.836   2.028 -1.0925  1.4053  0.4168
17106TIP3   OH272808   0.411   1.501  16.343 -0.4139 -0.8156  0.4229
17106TIP3    H172809   0.359   1.530  16.268 -0.8990 -1.2332  0.5978
17106TIP3    H272810   0.349   1.454  16.399  0.2270 -1.6086  0.4708
17107TIP3   OH272811   0.944   5.797  16.998 -0.2370 -0.2600 -0.6272
17107TIP3    H172812   0.991   5.775  16.918 -0.6961 -2.0142 -0.4401
17107TIP3    H272813   0.869   5.848  16.969 -0.3830 -0.8603 -1.3212
17108TIP3   OH272814   2.915   0.643  10.432  0.8090  0.0525  0.3824
17108TIP3    H172815   2.867   0.664  10.512  1.9553  0.9481  0.8446
17108TIP3    H272816   2.994   0.598  10.462  1.3103  0.5053 -0.2319
17109TIP3   OH272817   2.119   4.088   4.427  0.4498 -0.4679  0.1892
17109TIP3    H172818   2.141   4.085   4.334  1.1181 -0.7563  0.3483
17109TIP3    H272819   2.032   4.128   4.431  0.1185 -1.1137 -0.6030
17110TIP3   OH272820   2.489   1.825  12.453 -0.0263  0.1119  0.0081
17110TIP3    H172821   2.471   1.774  12.374 -0.2827  1.1450 -0.6079
17110TIP3    H272822   2.447   1.909  12.438 -1.3140 -0.1571  1.8465
17111TIP3   OH272823   4.490   6.255  17.275 -0.2780  0.0752  0.0029
17111TIP3    H172824   4.472   6.201  17.351  2.5387 -0.1976  0.5139
17111TIP3    H272825   4.466   6.344  17.302 -1.7616 -0.4030  0.2927
17112TIP3   OH272826   1.132   0.640   2.981  0.0208 -0.1704 -0.4904
17112TIP3    H172827   1.119   0.731   2.955 -0.5860 -0.0712  0.1372
17112TIP3    H272828   1.079   0.590   2.919  0.0849 -0.0665 -0.6273
17113TIP3   OH272829   5.488   6.288   0.921 -0.4536 -0.5075  0.2809
17113TIP3    H172830   5.415   6.330   0.968  0.9248  0.0734  1.9452
17113TIP3    H272831   5.554   6.274   0.988  0.5859 -1.9465 -1.0304
17114TIP3   OH272832   5.396   0.451  15.421  0.6234  0.1410  0.2658
17114TIP3    H172833   5.427   0.477  15.334 -1.7602  0.5717 -0.4774
17114TIP3    H272834   5.389   0.534  15.469 -0.0218  0.1204  0.2093
17115TIP3   OH272835   5.729   6.599  14.935 -0.5754 -0.1664 -0.5593
17115TIP3    H172836   5.812   6.644  14.946  0.3366 -2.5378  2.8663
17115TIP3    H272837   5.664   6.670  14.930  1.5681  1.7078 -3.4695
17116TIP3   OH272838   0.879   0.845  15.506 -0.0094 -0.3685 -0.0573
17116TIP3    H172839   0.838   0.868  15.590  0.8297  3.2356 -0.5636
17116TIP3    H272840   0.809   0.858  15.442 -0.2672 -1.8368 -0.0877
17117TIP3   OH272841   0.162   2.331  16.062 -1.0073  0.4217 -0.0544
17117TIP3    H172842   0.237   2.272  16.073 -1.8813 -0.5842  0.6638
17117TIP3    H272843   0.120   2.332  16.148 -1.9981  0.7289 -0.5383
17118TIP3   OH272844   0.790   5.488  16.501  0.2157  0.1914  0.3076
17118TIP3    H172845   0.812   5.406  16.545  2.9015 -0.7523 -2.6335
17118TIP3    H272846   0.715   5.465  16.446  0.9917 -0.3435 -0.5457
17119TIP3   OH272847   6.508   2.924   2.218  0.1726 -0.0233 -0.4197
17119TIP3    H172848   6.568   2.860   2.180 -0.2881 -0.0318 -1.1464
17119TIP3    H272849   6.446   2.871   2.268  0.6933 -0.0233  0.2349
17120TIP3   OH272850   6.611   3.059   1.245  0.3825  0.1678 -0.1588
17120TIP3    H172851   6.612   2.966   1.266 -0.3822 -0.0414 -0.9691
17120TIP3    H272852   6.694   3.093   1.279  2.0631 -1.4184 -2.4963
17121TIP3   OH272853   4.949   3.311   3.501  0.0147  0.0613 -0.1571
17121TIP3    H172854   4.982   3.227   3.532  0.8594  0.9410  1.3775
17121TIP3    H272855   4.867   3.289   3.456  0.4563 -1.6286 -0.1742
17122TIP3   OH272856   2.086   2.055  12.538  0.4053 -0.6285  0.1981
17122TIP3    H172857   2.006   2.107  12.544  0.5896 -0.3749  0.4581
17122TIP3    H272858   2.144   2.092  12.605  0.6875 -0.9028  0.1054
17123TIP3   OH272859   4.720   5.773  14.002 -0.5457 -0.2940 -0.3182
17123TIP3    H172860   4.764   5.805  13.924 -1.0715  0.1517 -0.4385
17123TIP3    H272861   4.737   5.679  14.003  0.4217 -0.1277 -0.3428
17124TIP3   OH272862   1.086   5.641   1.824 -0.1888  0.0802  0.1431
17124TIP3    H172863   1.150   5.701   1.786  0.5606 -0.0628  1.1643
17124TIP3    H272864   1.134   5.596   1.895 -0.5420 -2.1695 -0.9934
17125TIP3   OH272865   1.209   4.347   5.609  0.1905  0.8332  0.5790
17125TIP3    H172866   1.297   4.314   5.627  0.2634 -0.5900 -2.1706
17125TIP3    H272867   1.222   4.441   5.595  1.2625  0.6486  0.2737
17126TIP3   OH272868   3.120   0.158  10.786  0.0889 -0.5932  0.3414
17126TIP3    H172869   3.213   0.162  10.811  0.1435  0.6229 -0.0084
17126TIP3    H272870   3.108   0.233  10.727 -1.2595 -0.3897  0.8545
17127TIP3   OH272871   0.167   4.511   1.343 -0.0211  0.4947 -0.2629
17127TIP3    H172872   0.209   4.479   1.423 -1.2766 -0.3354  0.0864
17127TIP3    H272873   0.220   4.473   1.272  0.2819  0.0940  0.1691
17128TIP3   OH272874   4.002   0.798  12.057 -0.1620  0.6381 -0.1584
17128TIP3    H172875   4.017   0.722  12.002 -1.5469  0.2390  0.0093
17128TIP3    H272876   3.935   0.849  12.011  0.1756  1.3565  0.1249
17129TIP3   OH272877   1.207   0.044   1.528 -0.3765  0.0123  0.1002
17129TIP3    H172878   1.283   0.088   1.566  0.2362 -0.7778 -0.1822
17129TIP3    H272879   1.148   0.115   1.503  0.5619  0.6809 -0.2733
17130TIP3   OH272880   6.544   4.876  15.439  0.1251  0.1365 -0.2808
17130TIP3    H172881   6.489   4.830  15.376  0.7860  1.0995 -1.5847
17130TIP3    H272882   6.613   4.814  15.461 -0.9407 -0.7419  0.6524
17131TIP3   OH272883   1.502   2.492   1.875  0.1904  0.2682  0.1152
17131TIP3    H172884   1.572   2.427   1.881 -0.3515 -0.3753 -0.4487
17131TIP3    H272885   1.534   2.566   1.927  1.2123 -0.0834  0.0022
17132TIP3   OH272886   2.454   1.925  15.034  0.3453 -0.0433 -0.5635
17132TIP3    H172887   2.396   1.872  14.980 -0.4730  1.4745 -1.2024
17132TIP3    H272888   2.395   1.969  15.097  1.0890 -0.4542  0.4386
17133TIP3   OH272889   1.414   0.968  17.080 -0.0309  0.3895 -0.3252
17133TIP3    H172890   1.505   0.992  17.096  0.1215  0.3213 -1.0854
17133TIP3    H272891   1.392   1.010  16.997 -0.6422  0.2647 -0.2296
17134TIP3   OH272892   3.581   0.804   0.779 -0.1560  0.3868 -0.7533
17134TIP3    H172893   3.567   0.884   0.729  0.6234  1.7307  1.0953
17134TIP3    H272894   3.493   0.770   0.797 -0.6618  2.5815  1.1444
17135TIP3   OH272895   3.612   5.804  13.232  0.1301  0.2583 -0.0090
17135TIP3    H172896   3.594   5.740  13.301 -1.5314  2.7836  1.9814
17135TIP3    H272897   3.528   5.813  13.186  0.5287  0.5384 -0.6842
17136TIP3   OH272898   1.833   1.455  17.025  0.1522 -0.1606  0.0745
17136TIP3    H172899   1.844   1.443  16.931 -1.0825  0.2127 -0.1191
17136TIP3    H272900   1.789   1.540  17.033  3.2367  1.4190  1.1377
17137TIP3   OH272901   5.076   2.737   2.789  0.1383  0.7311 -0.6992
17137TIP3    H172902   5.001   2.733   2.730 -0.1150  1.4272 -0.4236
17137TIP3    H272903   5.132   2.664   2.761 -0.0264  0.9914 -1.7267
17138TIP3   OH272904   3.437   2.916  17.022 -0.4433 -0.0195 -0.4790
17138TIP3    H172905   3.394   2.840  17.060  0.0722 -0.9359 -1.6706
17138TIP3    H272906   3.456   2.890  16.932 -1.8838  2.1760 -1.4578
17139TIP3   OH272907   4.929   0.587   5.380 -0.2234  0.4567 -0.1642
17139TIP3    H172908   5.015   0.628   5.374  0.5351 -1.2153 -1.2812
17139TIP3    H272909   4.947   0.496   5.406 -1.5210 -0.2400 -1.5800
17140TIP3   OH272910   2.889   3.686  12.707  0.5027 -0.0148  0.0196
17140TIP3    H172911   2.887   3.777  12.678  1.2297  0.7421  2.2169
17140TIP3    H272912   2.861   3.635  12.631 -1.5637  2.1740 -0.7377
17141TIP3   OH272913   2.263   4.298  15.881  0.1253  0.4609 -0.2864
17141TIP3    H172914   2.228   4.386  15.870 -0.0494  0.2232 -1.6394
17141TIP3    H272915   2.353   4.311  15.913 -1.4968  1.0693  4.4303
17142TIP3   OH272916   6.472   4.433   3.974 -0.3436  0.7733 -0.2043
17142TIP3    H172917   6.398   4.487   3.945 -1.7850  0.6135  2.9521
17142TIP3    H272918   6.534   4.495   4.012 -1.2639  0.4269  1.9317
17143TIP3   OH272919   0.717   5.631  12.808 -0.2709 -0.0509 -0.4495
17143TIP3    H172920   0.793   5.575  12.821 -1.3638 -1.0841  1.7559
17143TIP3    H272921   0.743   5.716  12.843 -0.7498 -0.9338  2.1942
17144TIP3   OH272922   4.385   1.025  16.996 -0.2186  0.1656 -0.2886
17144TIP3    H172923   4.431   1.057  17.075  0.5950  0.2013 -0.7690
17144TIP3    H272924   4.418   1.080  16.926  3.3925 -3.5296 -1.6586
17145TIP3   OH272925   4.674   1.737  14.205 -0.4052  0.1018 -0.8464
17145TIP3    H172926   4.747   1.797  14.215 -0.1086 -0.8244  3.2326
17145TIP3    H272927   4.597   1.794  14.197  0.0863  1.0905  1.1275
17146TIP3   OH272928   2.805   4.180  13.485  0.7033 -0.1280 -0.1348
17146TIP3    H172929   2.797   4.209  13.394  1.5597 -0.8797 -0.4531
17146TIP3    H272930   2.796   4.085  13.480  0.5916 -0.1532  0.5878
17147TIP3   OH272931   4.483   0.310  12.512 -0.0284  0.1265 -0.0916
17147TIP3    H172932   4.485   0.225  12.468  0.0249  1.0239 -1.8480
17147TIP3    H272933   4.512   0.291  12.601  0.7522 -1.5714 -0.6828
17148TIP3   OH272934   5.634   2.789  13.423 -0.0278  0.1002 -0.0591
17148TIP3    H172935   5.577   2.712  13.430  1.0087 -0.6168  0.6084
17148TIP3    H272936   5.650   2.815  13.514  0.7202  0.2874 -0.2437
17149TIP3   OH272937   0.316   4.661   6.007  0.1946  0.7777  0.2563
17149TIP3    H172938   0.343   4.753   6.010  0.1434  0.8847 -1.8445
17149TIP3    H272939   0.336   4.633   5.918 -0.4910 -1.0490  0.6470
17150TIP3   OH272940   5.455   1.723  14.842  0.2912 -0.3300 -0.6217
17150TIP3    H172941   5.499   1.671  14.909  1.0731  1.4592  0.2515
17150TIP3    H272942   5.362   1.700  14.851  0.2667  0.6250  1.7231
17151TIP3   OH272943   1.101   1.115   1.262 -0.2338  0.0368  0.3828
17151TIP3    H172944   1.179   1.138   1.212 -1.1072 -2.2539 -2.1723
17151TIP3    H272945   1.127   1.037   1.312  0.3348  1.7342  2.7991
17152TIP3   OH272946   4.840   3.936   3.388 -0.3150 -0.3281 -0.2297
17152TIP3    H172947   4.819   3.952   3.480  1.9239  0.1694  0.2251
17152TIP3    H272948   4.848   4.024   3.350  7.1621 -0.0081  1.1548
17153TIP3   OH272949   3.866   6.181  11.828  0.1269  0.0531  0.1293
17153TIP3    H172950   3.847   6.257  11.883  2.0446  1.9229 -1.7418
17153TIP3    H272951   3.788   6.170  11.774 -0.6261 -0.0687  1.2139
17154TIP3   OH272952   0.986   1.262   5.075 -0.7459 -0.0661  0.2911
17154TIP3    H172953   0.950   1.176   5.053 -1.0489 -0.1520  1.0990
17154TIP3    H272954   0.986   1.264   5.170  0.7319  0.2242  0.2851
17155TIP3   OH272955   0.293   5.938   1.257 -0.3091 -0.6302  0.4268
17155TIP3    H172956   0.361   5.951   1.190 -0.1420  0.6296  0.8227
17155TIP3    H272957   0.275   5.844   1.255 -0.2675 -0.6270 -1.3507
17156TIP3   OH272958   0.663   0.088   3.435  0.0919  0.2442 -0.1527
17156TIP3    H172959   0.663   0.085   3.339 -0.4326  0.6305 -0.1693
17156TIP3    H272960   0.746   0.048   3.460  1.3296  2.2556 -0.8522
17157TIP3   OH272961   4.368   3.550  15.756 -0.5070 -0.2482 -0.4305
17157TIP3    H172962   4.437   3.517  15.699 -2.0100 -2.6658 -0.9141
17157TIP3    H272963   4.350   3.478  15.817 -0.8615  1.2629  1.2939
17158TIP3   OH272964   1.713   2.681  17.140  0.1281  0.4544  0.1412
17158TIP3    H172965   1.785   2.622  17.165  0.0322  0.3977  0.2860
17158TIP3    H272966   1.719   2.687  17.045 -0.8374 -1.0562 -0.0339
17159TIP3   OH272967   5.523   3.018   2.072  0.6864  0.5188 -0.0632
17159TIP3    H172968   5.563   3.022   2.158  0.0402 -1.2462  0.3284
17159TIP3    H272969   5.432   3.046   2.086  0.4875 -0.0964 -0.1015
17160TIP3   OH272970   4.214   1.783  14.209 -0.1672 -0.9692  0.0396
17160TIP3    H172971   4.140   1.821  14.161 -1.2298 -0.9398  1.6345
17160TIP3    H272972   4.230   1.699  14.167  1.1490  0.5049 -2.5049
17161TIP3   OH272973   1.244   3.559  12.671  0.6088  0.1870  0.0007
17161TIP3    H172974   1.280   3.478  12.707  0.9443 -0.1332 -1.0382
17161TIP3    H272975   1.258   3.624  12.740 -0.1723 -0.7563  1.0608
17162TIP3   OH272976   1.604   3.809   6.256 -0.1018  0.6331 -0.5349
17162TIP3    H172977   1.511   3.831   6.259 -0.6580 -1.6849  0.2431
17162TIP3    H272978   1.632   3.811   6.347  0.7550  1.8396 -0.8124
17163TIP3   OH272979   5.689   3.299  15.554  0.0169  0.4543  0.3874
17163TIP3    H172980   5.595   3.315  15.560  0.2595  2.0180  0.1920
17163TIP3    H272981   5.720   3.307  15.644  0.0110  0.1935  0.4133
17164TIP3   OH272982   1.423   3.248   5.611 -0.1707 -0.1160 -0.3013
17164TIP3    H172983   1.494   3.185   5.625 -1.0872 -0.6041  2.4229
17164TIP3    H272984   1.461   3.313   5.552  1.9730 -1.3048 -0.2904
17165TIP3   OH272985   4.659   5.201   0.966  0.3653  0.2225  0.1298
17165TIP3    H172986   4.703   5.257   0.902  0.5358  0.0313  0.0811
17165TIP3    H272987   4.582   5.168   0.920  0.5237  0.0315 -0.0000
17166TIP3   OH272988   4.602   1.156   1.602  0.2052 -0.4967  0.5696
17166TIP3    H172989   4.517   1.197   1.588  0.8879  0.5057 -0.6623
17166TIP3    H272990   4.599   1.076   1.550 -0.0205 -0.5339  0.6382
17167TIP3   OH272991   5.031   5.282  13.360  0.3432 -0.4639  0.0695
17167TIP3    H172992   4.947   5.304  13.320  0.0952 -0.3391  0.6536
17167TIP3    H272993   5.021   5.191  13.388 -0.2111  0.0728  1.6817
17168TIP3   OH272994   1.335   6.329  13.035 -0.0759  0.2906 -0.2530
17168TIP3    H172995   1.330   6.257  13.097  0.3701  1.2616  0.9233
17168TIP3    H272996   1.425   6.326  13.001  1.0181  2.3193  2.3032
17169TIP3   OH272997   6.045   3.686  14.891 -0.2224 -0.1715 -0.2281
17169TIP3    H172998   6.095   3.667  14.812 -1.4564 -0.0470 -1.0531
17169TIP3    H272999   5.956   3.659  14.870 -0.6729  0.4037  0.9089
17170TIP3   OH273000   3.611   1.185   0.783  0.1453 -0.8084 -0.1296
17170TIP3    H173001   3.664   1.199   0.704  1.9435 -2.8875  0.6374
17170TIP3    H273002   3.625   1.263   0.836 -1.5667  0.8864 -2.1051
17171TIP3   OH273003   4.027   6.795  15.235 -0.0020  0.3785  0.3577
17171TIP3    H173004   4.035   6.890  15.234 -4.7018  0.8816  0.1760
17171TIP3    H273005   3.964   6.776  15.165  1.2315 -2.9459  0.0560
17172TIP3   OH273006   1.861   3.198   3.717 -0.3950  0.0865 -0.6085
17172TIP3    H173007   1.775   3.163   3.743 -0.2846 -1.3577 -2.1227
17172TIP3    H273008   1.841   3.268   3.655 -0.4929 -0.2790 -0.9952
17173TIP3   OH273009   6.059   4.960  16.262  0.6150 -0.4818 -0.1592
17173TIP3    H173010   6.134   5.008  16.296  0.7135 -0.5520 -0.2743
17173TIP3    H273011   6.098   4.887  16.213  0.4805 -0.3416 -0.4796
17174TIP3   OH273012   4.390   2.025  10.657 -0.0890  0.3422  0.0819
17174TIP3    H173013   4.340   2.105  10.642  2.1583  1.7142 -0.3314
17174TIP3    H273014   4.430   2.038  10.743 -0.7608 -0.9192  0.5944
17175TIP3   OH273015   3.181   0.009   3.066 -0.4714  0.0165  0.0487
17175TIP3    H173016   3.108   0.070   3.057 -1.2133 -0.9718 -0.7518
17175TIP3    H273017   3.181  -0.016   3.159 -0.9654  0.2318  0.1056
17176TIP3   OH273018   5.163   0.797   4.256 -0.4074  0.4600  0.3433
17176TIP3    H173019   5.096   0.862   4.278 -1.3566  0.2267 -1.7885
17176TIP3    H273020   5.229   0.847   4.207 -1.0633 -0.1396 -1.1671
17177TIP3   OH273021   1.209   1.238  16.451 -0.2543  0.2626  0.5604
17177TIP3    H173022   1.126   1.250  16.403 -0.8984 -1.0575  1.3080
17177TIP3    H273023   1.196   1.157  16.501  0.8370  0.9789  2.0556
17178TIP3   OH273024   2.632   2.890  15.299  0.6751  0.2372  0.3556
17178TIP3    H173025   2.709   2.848  15.336  0.5791  0.1593  0.4679
17178TIP3    H273026   2.575   2.818  15.273  0.4998  0.2967  0.5723
17179TIP3   OH273027   1.301   4.622  11.310  0.0771  0.4317  0.5826
17179TIP3    H173028   1.301   4.630  11.215  0.3834  1.0945  0.6372
17179TIP3    H273029   1.254   4.540  11.327 -2.1982  1.5653 -0.0357
17180TIP3   OH273030   6.492   0.800  15.775  0.2745 -0.3113  0.2802
17180TIP3    H173031   6.544   0.848  15.710  0.8679 -0.6641  0.4842
17180TIP3    H273032   6.439   0.739  15.722 -1.2148  1.2354 -0.0400
17181TIP3   OH273033   3.454   6.741  14.616  0.2943  0.2657 -0.1292
17181TIP3    H173034   3.484   6.757  14.705  2.1103 -1.0067 -0.4892
17181TIP3    H273035   3.383   6.677  14.626  0.0931  0.5731  0.4436
17182TIP3   OH273036   0.301   5.036   2.925  0.3798  0.3821 -0.5887
17182TIP3    H173037   0.323   5.108   2.984  0.5848 -0.4006  0.2950
17182TIP3    H273038   0.365   4.968   2.946 -0.5175 -0.4805 -0.6531
17183TIP3   OH273039   0.299   3.118  14.666  0.3135 -0.0972 -0.4702
17183TIP3    H173040   0.259   3.184  14.610  0.4032 -0.5103 -1.0275
17183TIP3    H273041   0.346   3.168  14.733  2.8932  0.4773 -2.6096
17184TIP3   OH273042   0.928   0.536  13.789 -0.7456  0.4245 -0.5099
17184TIP3    H173043   0.957   0.455  13.831  1.5128  0.9788 -0.9383
17184TIP3    H273044   0.930   0.602  13.859 -1.1889  0.4357 -0.5033
17185TIP3   OH273045   1.150   4.967  16.374  0.1511  0.2525  0.2920
17185TIP3    H173046   1.162   4.950  16.281  1.1151 -0.3125  0.5071
17185TIP3    H273047   1.194   4.893  16.418  0.6152  1.0520  1.2010
17186TIP3   OH273048   2.583   6.015  16.628  0.3530 -0.2435 -0.5428
17186TIP3    H173049   2.639   5.938  16.637 -1.0202 -1.2476 -0.4361
17186TIP3    H273050   2.529   5.997  16.551 -1.6437 -0.4915  0.8659
17187TIP3   OH273051   1.610   4.448   2.449  0.5614  0.3639  0.0091
17187TIP3    H173052   1.688   4.451   2.503  0.2546 -1.3507  0.5840
17187TIP3    H273053   1.597   4.355   2.430 -2.6119  0.3440  1.8189
17188TIP3   OH273054   3.761   1.274   5.720  0.2579  0.5846 -0.5101
17188TIP3    H173055   3.751   1.352   5.666 -1.3937  0.5742 -0.2537
17188TIP3    H273056   3.681   1.271   5.774  0.5501 -0.9605 -0.1125
17189TIP3   OH273057   0.155   6.339   6.672 -0.3572 -0.0099 -0.6369
17189TIP3    H173058   0.097   6.402   6.715 -0.5246 -1.7544  1.8370
17189TIP3    H273059   0.117   6.327   6.585 -1.4848  1.7718 -0.4076
17190TIP3   OH273060   4.213   5.296   2.242  0.0534 -0.5804 -0.5317
17190TIP3    H173061   4.245   5.211   2.213 -1.4380 -1.7168  1.0661
17190TIP3    H273062   4.120   5.297   2.216 -0.2480  0.0668  0.5419
17191TIP3   OH273063   2.549   2.996   4.186  0.0292 -0.4772 -0.4457
17191TIP3    H173064   2.643   3.009   4.193 -0.1590  2.1637 -1.9620
17191TIP3    H273065   2.512   3.041   4.262 -0.0203 -1.4528  0.1123
17192TIP3   OH273066   4.839   5.559   2.237 -0.9947 -0.6931 -0.6626
17192TIP3    H173067   4.927   5.550   2.272 -0.7118 -1.5024 -1.5582
17192TIP3    H273068   4.810   5.469   2.223 -2.8208 -0.5265  1.7328
17193TIP3   OH273069   4.418   2.077   2.563  0.3367  0.5240  0.5548
17193TIP3    H173070   4.504   2.051   2.595  0.7146  0.3393 -0.6116
17193TIP3    H273071   4.362   2.073   2.640  0.7424 -2.1266  0.7536
17194TIP3   OH273072   4.483   0.665  12.004 -0.0628 -0.4907  0.4275
17194TIP3    H173073   4.446   0.747  12.036 -2.0905 -0.4153 -1.9226
17194TIP3    H273074   4.423   0.598  12.035  0.4313 -0.8644  0.5710
17195TIP3   OH273075   5.756   6.263  15.185 -0.4845 -0.1562  0.6226
17195TIP3    H173076   5.707   6.345  15.193 -0.8926 -0.1493 -1.7203
17195TIP3    H273077   5.698   6.198  15.225 -0.7400  0.4501  1.2684
17196TIP3   OH273078   6.091   0.712   5.707 -0.1272 -0.3207  0.3680
17196TIP3    H173079   6.164   0.673   5.660 -0.8722  0.3247 -1.3947
17196TIP3    H273080   6.046   0.638   5.749  0.2984 -0.9666 -0.3137
17197TIP3   OH273081   4.333   3.451   5.573  0.0626 -0.0571 -0.2968
17197TIP3    H173082   4.298   3.393   5.641 -0.3853 -1.3875 -1.6303
17197TIP3    H273083   4.427   3.434   5.573  0.1060  0.1685  0.1894
17198TIP3   OH273084   2.392   2.910   3.964 -0.2532 -0.4101  0.4147
17198TIP3    H173085   2.443   2.931   4.042  0.5168 -1.7902  0.3149
17198TIP3    H273086   2.334   2.840   3.993 -0.4193 -0.4739 -0.0765
17199TIP3   OH273087   6.648   2.460  14.902 -0.0307  0.0115  0.8875
17199TIP3    H173088   6.662   2.365  14.904 -0.0545  0.0357  2.3906
17199TIP3    H273089   6.670   2.485  14.812 -0.7066 -1.5138  0.2788
17200TIP3   OH273090   2.147   1.772  12.552  0.1405  0.3944 -0.2680
17200TIP3    H173091   2.125   1.865  12.552 -0.0523  0.3550  0.7255
17200TIP3    H273092   2.172   1.753  12.642  0.6335 -0.4135 -0.5672
17201TIP3   OH273093   1.844   3.405  13.030 -0.4299 -0.0079  0.3428
17201TIP3    H173094   1.924   3.367  13.066  0.5782  0.7123 -1.0754
17201TIP3    H273095   1.820   3.474  13.092  0.4109  0.1964  0.4462
17202TIP3   OH273096   5.486   5.907  17.060  0.2192  0.4476 -0.3010
17202TIP3    H173097   5.420   5.885  16.995  0.6860  0.0970 -0.6648
17202TIP3    H273098   5.513   5.822  17.096  0.8308  0.5485 -0.5180
17203TIP3   OH273099   2.105   4.400  12.546  0.3451  0.1270  0.1600
17203TIP3    H173100   2.099   4.401  12.451 -0.2225  0.6644  0.2018
17203TIP3    H273101   2.180   4.455  12.566 -0.0347  0.6823  0.0608
17204TIP3   OH273102   6.006   6.684   1.906  0.6667  0.4152 -0.0754
17204TIP3    H173103   5.923   6.723   1.934  1.0215  0.5689  0.7700
17204TIP3    H273104   5.988   6.590   1.902  0.5463  0.4135  0.4467
17205TIP3   OH273105   2.383   4.807   6.260  0.2215 -0.1859 -0.4617
17205TIP3    H173106   2.440   4.753   6.314  0.3828 -0.1714 -0.6196
17205TIP3    H273107   2.374   4.889   6.309  1.3042  0.2635 -1.0209
17206TIP3   OH273108   0.388   0.789  13.052  0.1924  0.0387 -0.1700
17206TIP3    H173109   0.403   0.695  13.042 -0.1741  0.0367 -0.7257
17206TIP3    H273110   0.296   0.800  13.030  0.2872  0.5578 -0.2982
17207TIP3   OH273111   0.848   6.342  12.012  0.0127  0.1775  0.0301
17207TIP3    H173112   0.890   6.425  12.032 -1.2983  1.0078 -0.5796
17207TIP3    H273113   0.882   6.319  11.925 -0.8635  0.9205 -0.5253
17208TIP3   OH273114   4.535   4.654  12.975  0.2343 -0.2702 -0.1839
17208TIP3    H173115   4.493   4.636  12.891  0.4251  0.4700 -0.4376
17208TIP3    H273116   4.466   4.637  13.040 -0.2312  0.1653 -0.5527
17209TIP3   OH273117   0.369   1.235   6.002  0.1615  0.0166 -0.2307
17209TIP3    H173118   0.439   1.171   6.014  0.3345 -0.1722 -2.1309
17209TIP3    H273119   0.414   1.319   6.002  0.1658  0.0183  0.3009
17210TIP3   OH273120   6.050   2.004   3.102 -0.1401 -0.2305  0.0988
17210TIP3    H173121   5.965   1.965   3.124  0.9337 -3.1080 -0.6313
17210TIP3    H273122   6.065   1.980   3.011  1.7129 -0.2505  0.3905
17211TIP3   OH273123   2.725   1.538   3.776 -0.0020 -0.1750  0.2169
17211TIP3    H173124   2.681   1.458   3.804 -0.4330  0.3200  0.9975
17211TIP3    H273125   2.818   1.515   3.773 -0.1168 -0.6883  0.5023
17212TIP3   OH273126   0.933   1.147  13.539 -0.4143  0.0076 -0.0700
17212TIP3    H173127   0.932   1.232  13.583  0.9395 -0.2455  0.4806
17212TIP3    H273128   0.871   1.093  13.588  2.5091 -0.8836  2.8161
17213TIP3   OH273129   3.103   5.816  14.409 -0.0551 -0.4386  0.0754
17213TIP3    H173130   3.118   5.906  14.436  1.1060 -0.2262 -1.2133
17213TIP3    H273131   3.039   5.782  14.472  0.9844  0.6658  1.7486
17214TIP3   OH273132   3.042   3.175   1.303 -0.2008 -0.3380 -0.7367
17214TIP3    H173133   2.977   3.204   1.366 -0.5168 -1.1198 -0.7022
17214TIP3    H273134   3.106   3.247   1.300  0.0767 -0.5126  0.8268
17215TIP3   OH273135   5.246   5.300   1.134 -0.3752 -0.2696 -0.6230
17215TIP3    H173136   5.253   5.231   1.201 -0.0409  0.5623  0.2116
17215TIP3    H273137   5.219   5.378   1.183 -0.8297  0.1735 -1.5747
17216TIP3   OH273138   6.635   0.895   1.188  0.0109 -0.1293  0.2966
17216TIP3    H173139   6.569   0.827   1.205 -0.2459 -0.3181 -1.3233
17216TIP3    H273140   6.584   0.972   1.162  0.4027 -0.1064 -0.4183
17217TIP3   OH273141   6.492   5.520  12.043  0.1294  0.0682  0.1993
17217TIP3    H173142   6.524   5.549  12.129  1.5683 -1.6431  0.2630
17217TIP3    H273143   6.407   5.482  12.062 -0.0133  0.6213  0.7058
17218TIP3   OH273144   2.150   4.529  13.342  0.0099  0.8190  0.0260
17218TIP3    H173145   2.245   4.526  13.351  0.0058  0.3400 -0.0416
17218TIP3    H273146   2.130   4.620  13.324  0.4747  0.8849 -0.1564
17219TIP3   OH273147   2.792   5.093   2.539 -0.0798 -0.6794  0.1607
17219TIP3    H173148   2.790   4.997   2.541  0.2926 -0.6695  1.2984
17219TIP3    H273149   2.824   5.118   2.626 -1.3030  0.5159  0.2792
17220TIP3   OH273150   2.871   0.343  16.521 -0.3660  0.2516 -0.1040
17220TIP3    H173151   2.945   0.300  16.564 -1.1280 -0.7559  0.2109
17220TIP3    H273152   2.873   0.433  16.555  1.4669  0.6027 -1.0625
17221TIP3   OH273153   6.343   4.944  16.948  0.1851 -0.5354 -0.5257
17221TIP3    H173154   6.295   4.925  16.868 -1.1363 -4.4953  1.1062
17221TIP3    H273155   6.426   4.898  16.938  1.1509  1.1842 -0.6989
17222TIP3   OH273156   3.199   4.997  15.441  0.0278 -0.1839 -0.3183
17222TIP3    H173157   3.114   5.015  15.400 -0.2895  0.1314  0.4544
17222TIP3    H273158   3.246   5.080  15.436  0.6251 -0.5931 -1.5152
17223TIP3   OH273159   6.607   4.365  15.340 -0.4357  0.3693  0.7697
17223TIP3    H173160   6.526   4.360  15.290 -1.4011  2.9743  1.9806
17223TIP3    H273161   6.578   4.381  15.430  1.3967  0.7618  1.3062
17224TIP3   OH273162   3.721   6.409   0.304  0.0534 -0.3595 -0.1731
17224TIP3    H173163   3.746   6.351   0.232 -0.7307 -1.3987  0.3871
17224TIP3    H273164   3.628   6.426   0.290  0.0244 -0.1312  0.2843
17225TIP3   OH273165   6.478   5.554   0.585 -0.2044  0.3793  0.7674
17225TIP3    H173166   6.390   5.558   0.624 -0.1049  0.7995  0.9614
17225TIP3    H273167   6.525   5.490   0.638 -0.6841 -0.5573  0.0583
17226TIP3   OH273168   5.915   5.949   4.197 -0.2857  0.0506 -0.1728
17226TIP3    H173169   5.913   6.027   4.253  0.2744 -0.4871  0.6118
17226TIP3    H273170   6.008   5.927   4.189 -0.4966 -1.2088  0.5871
17227TIP3   OH273171   0.659   1.695   2.323  0.1871 -0.0188  0.2206
17227TIP3    H173172   0.730   1.725   2.380 -0.0298  0.2307  0.3590
17227TIP3    H273173   0.605   1.639   2.378  1.9175 -2.6690 -0.6531
17228TIP3   OH273174   1.170   5.049  14.672  0.8955  0.1551  0.3347
17228TIP3    H173175   1.187   5.137  14.706  0.3669  0.2076  0.4680
17228TIP3    H273176   1.162   4.994  14.750  1.9590 -0.1554  0.2418
17229TIP3   OH273177   1.751   0.580   5.598 -0.1440  0.4259  0.8857
17229TIP3    H173178   1.666   0.551   5.563 -0.0145  0.6928  0.3458
17229TIP3    H273179   1.779   0.649   5.538  0.8733 -0.2695  0.5583
17230TIP3   OH273180   3.004   2.504  10.458 -0.4301 -0.6262  0.3064
17230TIP3    H173181   3.033   2.436  10.519  0.4879  1.1855  1.9628
17230TIP3    H273182   3.061   2.579  10.477 -0.9985  0.4256 -1.9041
17231TIP3   OH273183   3.220   3.965   5.610  0.0681 -0.3815 -0.5763
17231TIP3    H173184   3.243   3.879   5.644 -2.7356 -0.5135  1.1083
17231TIP3    H273185   3.265   4.027   5.668 -0.3882 -0.6675  0.0794
17232TIP3   OH273186   2.298   3.467  10.450  0.5812  0.1237  0.1129
17232TIP3    H173187   2.336   3.524  10.517 -1.0846  1.3317  0.0677
17232TIP3    H273188   2.287   3.524  10.373 -1.2892 -0.1887  0.1282
17233TIP3   OH273189   6.372   3.613   2.665 -0.3431  0.3165 -0.4860
17233TIP3    H173190   6.443   3.674   2.648  0.3743 -0.1981  0.6528
17233TIP3    H273191   6.413   3.526   2.667 -0.9244  0.0497  0.5352
17234TIP3   OH273192   0.762   3.572   5.387  0.2843  0.6592  0.1630
17234TIP3    H173193   0.853   3.564   5.415  0.5615  4.0945  0.4548
17234TIP3    H273194   0.767   3.581   5.292  0.3467  2.0024  0.2909
17235TIP3   OH273195   5.199   6.614  12.240 -0.1457 -0.2766 -0.0349
17235TIP3    H173196   5.134   6.598  12.309 -0.6850  1.6012 -0.0874
17235TIP3    H273197   5.283   6.605  12.285 -0.4539 -1.0966  0.4010
17236TIP3   OH273198   5.241   5.775  11.126  0.0460  0.0303 -0.8089
17236TIP3    H173199   5.302   5.742  11.191 -0.2998 -2.1487 -1.5611
17236TIP3    H273200   5.255   5.870  11.125  2.2489 -0.2757  0.1716
17237TIP3   OH273201   3.949   1.732  15.508  0.2962 -0.2014 -0.0561
17237TIP3    H173202   3.956   1.805  15.446 -0.5095  1.4348  1.7379
17237TIP3    H273203   3.855   1.717  15.516  0.4585 -1.3672 -0.3079
17238TIP3   OH273204   1.893   3.951  16.043  0.7143  0.5184 -0.0728
17238TIP3    H173205   1.988   3.943  16.056  0.6810 -1.2594 -0.8178
17238TIP3    H273206   1.883   3.972  15.950  0.3747  0.7125  0.0061
17239TIP3   OH273207   0.850   4.658   2.442  1.0429 -0.1635  0.0611
17239TIP3    H173208   0.788   4.609   2.387  0.6441 -1.1135  1.3220
17239TIP3    H273209   0.801   4.735   2.470  0.6659 -0.5548  0.4823
17240TIP3   OH273210   0.066   6.239   5.338  0.5827  0.9105 -0.6437
17240TIP3    H173211   0.143   6.183   5.340  0.2400  0.4106 -1.2448
17240TIP3    H273212   0.031   6.228   5.249  0.2976  1.7777 -0.6476
17241TIP3   OH273213   4.685   5.125   5.886 -0.0753 -0.0168  0.3033
17241TIP3    H173214   4.736   5.177   5.823 -2.7816  1.1074 -1.0635
17241TIP3    H273215   4.644   5.191   5.943 -1.9512 -0.7220 -0.1921
17242TIP3   OH273216   3.258   3.905   2.071  0.6187  0.0405 -0.1677
17242TIP3    H173217   3.176   3.856   2.065  0.5653  0.2093 -0.9153
17242TIP3    H273218   3.282   3.901   2.163  0.0697 -0.5031 -0.0448
17243TIP3   OH273219   0.513   0.961  11.695 -0.1871 -0.0778 -0.2277
17243TIP3    H173220   0.596   0.961  11.649 -0.0897  1.3986 -0.0742
17243TIP3    H273221   0.447   0.964  11.625 -0.0603  1.1078 -0.3049
17244TIP3   OH273222   4.599   3.056   1.634  0.3724 -0.3331 -0.0382
17244TIP3    H173223   4.595   3.150   1.619  0.4311 -0.4451 -0.7761
17244TIP3    H273224   4.637   3.046   1.721 -1.3520  0.3834  0.8232
17245TIP3   OH273225   1.986   2.864  17.105 -0.5209  0.6512  0.4124
17245TIP3    H173226   1.946   2.834  17.186 -0.9362  1.4505  0.5142
17245TIP3    H273227   1.920   2.845  17.038  0.7285 -2.1086 -0.1043
17246TIP3   OH273228   2.366   0.722   2.027  0.2189  0.3746  0.6254
17246TIP3    H173229   2.458   0.723   2.054  0.6307  0.8771 -0.7818
17246TIP3    H273230   2.368   0.694   1.936 -0.9917  0.9375  0.4204
17247TIP3   OH273231   0.130   1.875  16.671  0.3172 -0.5026 -0.3896
17247TIP3    H173232   0.166   1.907  16.589 -0.2644  1.6069  0.1545
17247TIP3    H273233   0.206   1.842  16.720  1.1290  1.2241 -0.4450
17248TIP3   OH273234   1.353   3.220  15.208  0.8619 -0.1805  0.4999
17248TIP3    H173235   1.281   3.169  15.247  0.0345 -0.2246 -1.0548
17248TIP3    H273236   1.399   3.157  15.153  0.1058  0.6413 -1.0836
17249TIP3   OH273237   3.846   4.504   4.957  0.4505  0.0008  0.2966
17249TIP3    H173238   3.896   4.491   4.876 -0.2411 -0.2874 -0.0828
17249TIP3    H273239   3.767   4.549   4.931  1.0427  1.5446  1.0815
17250TIP3   OH273240   1.695   1.168   2.298  0.2686  0.4204 -0.1633
17250TIP3    H173241   1.763   1.224   2.261 -0.4741 -0.5123 -3.0331
17250TIP3    H273242   1.732   1.080   2.296 -0.2126  0.2029  0.2823
17251TIP3   OH273243   0.746   5.718  14.744  0.0431 -0.3180 -0.2131
17251TIP3    H173244   0.682   5.775  14.701  1.2832  2.5666  1.6277
17251TIP3    H273245   0.716   5.712  14.835 -0.5851 -3.4555 -0.5695
17252TIP3   OH273246   4.534   5.813   3.780 -0.3993 -0.3834  0.0137
17252TIP3    H173247   4.472   5.856   3.720 -0.0898 -0.7170 -0.5557
17252TIP3    H273248   4.539   5.871   3.856 -0.6797  0.1272 -0.3546
17253TIP3   OH273249   5.662   5.669   2.363  0.1112  0.2730  0.0478
17253TIP3    H173250   5.699   5.590   2.324 -1.0130  0.1513 -0.8157
17253TIP3    H273251   5.673   5.736   2.296 -1.6631  0.1105 -0.4500
17254TIP3   OH273252   5.341   5.724   4.843  0.6373  0.1682 -0.4587
17254TIP3    H173253   5.281   5.696   4.912  1.1137 -1.4869 -0.7065
17254TIP3    H273254   5.283   5.757   4.774  0.0754 -0.0914 -0.1157
17255TIP3   OH273255   0.804   5.759   2.575  0.7193 -0.1603  0.2948
17255TIP3    H173256   0.831   5.704   2.648 -1.0158  0.9983  1.8444
17255TIP3    H273257   0.711   5.774   2.588  0.3425 -0.0148 -2.2402
17256TIP3   OH273258   3.902   5.445   0.256  0.5005  0.6343  0.0709
17256TIP3    H173259   3.902   5.359   0.298 -0.5501  0.6143  0.0426
17256TIP3    H273260   3.950   5.432   0.174 -0.1061 -0.0452 -0.1782
17257TIP3   OH273261   3.221   3.990   5.099  0.6199  0.2472  0.3676
17257TIP3    H173262   3.249   4.002   5.189 -1.2555 -0.3663  1.0537
17257TIP3    H273263   3.204   3.897   5.091  3.2658 -0.1209 -1.3864
17258TIP3   OH273264   1.864   4.055  14.492 -0.4556  0.2070 -0.3164
17258TIP3    H173265   1.895   4.062  14.582 -0.4268 -1.3111 -0.1913
17258TIP3    H273266   1.915   4.119  14.443 -0.8476  1.4091  0.8403
17259TIP3   OH273267   5.515   3.792  11.741 -0.2536 -0.0967 -0.1854
17259TIP3    H173268   5.442   3.810  11.800  0.8503  0.2454  1.0894
17259TIP3    H273269   5.587   3.768  11.799  0.6071 -0.5819 -1.4457
17260TIP3   OH273270   5.172   1.928  11.993 -0.8348 -0.1833 -0.1126
17260TIP3    H173271   5.214   2.013  12.001 -2.3675  0.7729 -1.6357
17260TIP3    H273272   5.176   1.889  12.080  0.8401  0.9815  0.3338
17261TIP3   OH273273   4.443   2.681   4.172 -0.2017  0.2620  0.0798
17261TIP3    H173274   4.481   2.607   4.220  0.0958 -0.0542 -0.6307
17261TIP3    H273275   4.359   2.697   4.215  0.5066  0.6397  1.3477
17262TIP3   OH273276   1.347   6.283   3.129 -0.1141  0.6430  0.0190
17262TIP3    H173277   1.355   6.374   3.099 -1.6914  0.9829  0.5964
17262TIP3    H273278   1.330   6.233   3.049  0.3743  0.9030 -0.2522
17263TIP3   OH273279   5.360   4.905   2.767  0.0802  0.4980 -0.5352
17263TIP3    H173280   5.453   4.881   2.767  0.4863  2.0099  0.3243
17263TIP3    H273281   5.341   4.930   2.857 -1.0269  0.7112 -0.8143
17264TIP3   OH273282   3.765   2.657   1.260  0.0926  0.0392  0.1686
17264TIP3    H173283   3.854   2.622   1.259  0.5915  1.2951  0.1425
17264TIP3    H273284   3.721   2.606   1.328  0.4875 -1.4084 -0.6511
17265TIP3   OH273285   1.130   5.275  12.976  0.4033 -0.6108 -0.6949
17265TIP3    H173286   1.093   5.288  13.064  1.1838  0.8104 -0.5642
17265TIP3    H273287   1.076   5.330  12.919 -1.1623 -2.7886 -1.4191
17266TIP3   OH273288   3.907   2.591   4.802  0.5433 -0.1415 -0.0085
17266TIP3    H173289   3.887   2.623   4.713 -1.9030 -0.2786  0.4479
17266TIP3    H273290   3.953   2.509   4.788 -1.4811 -1.1250 -1.1986
17267TIP3   OH273291   0.783   0.925  13.315 -0.0382 -0.1472 -0.8162
17267TIP3    H173292   0.815   0.859  13.376 -0.4170 -0.6174 -1.1283
17267TIP3    H273293   0.691   0.938  13.339 -0.0670 -0.0060 -0.9981
17268TIP3   OH273294   3.725   2.620  17.041  0.2798  0.0649 -0.5303
17268TIP3    H173295   3.662   2.584  17.104 -0.6741  1.4813 -0.6472
17268TIP3    H273296   3.809   2.581  17.066 -0.6890 -2.1639 -0.6162
17269TIP3   OH273297   0.546   2.163  15.768 -0.1628 -0.0100  0.0198
17269TIP3    H173298   0.569   2.133  15.680  0.0157 -0.9400  0.3777
17269TIP3    H273299   0.452   2.180  15.763  0.3207  2.6053 -1.1039
17270TIP3   OH273300   5.044   5.847   1.468  0.3556  0.6476 -0.2676
17270TIP3    H173301   4.998   5.788   1.409  1.8203 -0.0132 -0.7665
17270TIP3    H273302   4.991   5.848   1.548  0.9489 -2.2823  0.2005
17271TIP3   OH273303   4.175   5.768   2.625  0.7022 -0.6023 -0.3125
17271TIP3    H173304   4.179   5.859   2.654  1.0079 -0.7163  0.0060
17271TIP3    H273305   4.236   5.722   2.683  0.6456 -0.9847 -0.5574
17272TIP3   OH273306   3.686   4.632  12.420  0.7001  0.3691 -0.5998
17272TIP3    H173307   3.595   4.659  12.406  0.1199 -1.0310  0.3919
17272TIP3    H273308   3.724   4.634  12.332 -0.0048  1.9172 -0.8919
17273TIP3   OH273309   1.129   3.833   0.879  0.0440  0.1774  0.5690
17273TIP3    H173310   1.066   3.872   0.818  1.3404  1.6803  0.1367
17273TIP3    H273311   1.173   3.766   0.828  1.0086  1.3167 -0.1333
17274TIP3   OH273312   6.365   5.875   1.301  0.2023  0.0824 -0.0527
17274TIP3    H173313   6.373   5.900   1.209  1.4396  0.4490  0.1396
17274TIP3    H273314   6.363   5.958   1.349  0.8401 -0.1176  0.3365
17275TIP3   OH273315   2.404   5.566  13.054  0.1734 -0.7216 -0.1903
17275TIP3    H173316   2.384   5.610  12.972 -1.5090 -0.2212  0.4580
17275TIP3    H273317   2.328   5.584  13.110  1.0901 -1.4157  1.3211
17276TIP3   OH273318   2.765   2.262   3.150  0.0928  0.1788  0.6715
17276TIP3    H173319   2.807   2.263   3.236 -0.0289  0.7464  0.7229
17276TIP3    H273320   2.698   2.330   3.154 -1.1228 -0.9983  0.7244
17277TIP3   OH273321   0.535   4.591  15.327  0.1906 -0.5486 -0.5202
17277TIP3    H173322   0.630   4.593  15.324  0.1744 -0.2071 -0.8286
17277TIP3    H273323   0.514   4.528  15.396  0.6708  1.4022  1.4595
17278TIP3   OH273324   2.105   2.334   0.913  0.3945  0.2525 -0.4190
17278TIP3    H173325   2.193   2.297   0.922  0.5201  0.3968 -1.0151
17278TIP3    H273326   2.116   2.427   0.935  0.0241 -0.1014  1.3636
17279TIP3   OH273327   2.714   1.688  13.941 -0.4682 -0.2309 -0.2812
17279TIP3    H173328   2.671   1.743  13.876 -1.4338  0.2219  0.7221
17279TIP3    H273329   2.664   1.703  14.021 -0.4762 -2.2343  0.1119
17280TIP3   OH273330   3.047   3.536   6.256 -0.3074 -0.1163  0.2381
17280TIP3    H173331   3.124   3.482   6.237  0.4360  0.3421  1.7877
17280TIP3    H273332   3.034   3.587   6.177  0.4969 -0.7954 -0.3471
17281TIP3   OH273333   1.384   1.017  11.336 -0.6183 -0.5559  0.5621
17281TIP3    H173334   1.313   1.024  11.399 -0.1148 -0.3951  1.1136
17281TIP3    H273335   1.434   1.097  11.347 -0.6348 -0.4396 -0.1777
17282TIP3   OH273336   2.919   3.663  16.199 -0.2866  0.5759  0.0509
17282TIP3    H173337   2.970   3.652  16.119  0.1002  2.2831  0.0341
17282TIP3    H273338   2.828   3.660  16.170 -0.1719 -0.8833 -0.1521
17283TIP3   OH273339   2.600   3.373  11.629 -0.3789  0.2924 -0.0285
17283TIP3    H173340   2.522   3.322  11.608  0.1123 -0.2911 -0.4663
17283TIP3    H273341   2.632   3.336  11.711 -1.2445  1.3396  0.7995
17284TIP3   OH273342   2.299   4.634  12.611  0.3574 -0.2008 -0.2861
17284TIP3    H173343   2.248   4.675  12.540 -0.0593 -0.4471 -0.1300
17284TIP3    H273344   2.355   4.704  12.643 -0.4817  0.3042  0.0987
17285TIP3   OH273345   3.352   5.617   0.929 -0.0447  0.1327  0.2453
17285TIP3    H173346   3.364   5.676   1.002 -1.4150  1.9090 -0.9252
17285TIP3    H273347   3.439   5.579   0.914  0.8753  1.8878  0.9751
17286TIP3   OH273348   4.133   5.918  11.973 -0.3451  0.7311 -0.4678
17286TIP3    H173349   4.174   5.873  11.900 -3.6484 -2.7254 -0.3450
17286TIP3    H273350   4.132   6.011  11.948  2.6522  0.2203 -2.6910
17287TIP3   OH273351   0.635   6.802   1.460  0.6650  0.2472 -0.0267
17287TIP3    H173352   0.672   6.885   1.490  0.9923 -0.0341  0.3439
17287TIP3    H273353   0.704   6.738   1.476  0.0870 -0.2440  0.4913
17288TIP3   OH273354   6.769   0.644   3.932 -0.2785 -0.5958 -0.2480
17288TIP3    H173355   6.685   0.686   3.956 -0.7186 -1.0534 -0.9726
17288TIP3    H273356   6.835   0.700   3.973 -0.8746  0.6599 -0.9498
17289TIP3   OH273357   5.283   3.016  16.348 -0.6084  0.1831  0.2992
17289TIP3    H173358   5.261   3.010  16.255 -1.0551  0.7071  0.3664
17289TIP3    H273359   5.358   2.957  16.359  0.3630  1.2102 -0.6848
17290TIP3   OH273360   5.104   4.277   3.677  0.8759  0.8709  0.1047
17290TIP3    H173361   5.082   4.184   3.683  0.2480  0.9067 -1.5153
17290TIP3    H273362   5.195   4.282   3.707  0.5170 -0.0799  1.3865
17291TIP3   OH273363   4.005   4.333  14.252  0.0192 -0.4927  0.6725
17291TIP3    H173364   3.926   4.358  14.301 -0.4609 -0.1524 -0.2573
17291TIP3    H273365   3.997   4.380  14.169  0.4695 -1.6027 -0.0116
17292TIP3   OH273366   2.170   5.157  12.836 -0.0944  0.2418 -0.8830
17292TIP3    H173367   2.121   5.159  12.918  1.0151 -0.6775 -0.1800
17292TIP3    H273368   2.155   5.242  12.796 -0.7633  0.6361  0.2076
17293TIP3   OH273369   4.548   6.030   0.391  0.3031 -0.6070 -0.2571
17293TIP3    H173370   4.532   6.011   0.299 -0.2900 -0.2447 -0.2280
17293TIP3    H273371   4.490   5.971   0.438 -0.6481  0.3897 -0.1481
17294TIP3   OH273372   4.791   6.620  12.739 -0.7973  0.8104  0.0145
17294TIP3    H173373   4.794   6.686  12.670 -1.3563  0.6937 -0.1250
17294TIP3    H273374   4.833   6.543  12.699 -0.7640  0.8652 -0.0572
17295TIP3   OH273375   1.383   0.146   1.706 -0.3076 -0.1765 -0.1868
17295TIP3    H173376   1.339   0.122   1.788  2.2084 -0.4781  1.1228
17295TIP3    H273377   1.464   0.095   1.707  1.0426  1.8811 -1.5392
17296TIP3   OH273378   3.927   2.166   4.839 -0.1338 -0.2123  0.4865
17296TIP3    H173379   3.983   2.244   4.828  1.2924 -1.1181  1.2155
17296TIP3    H273380   3.898   2.170   4.930 -1.3571  0.3117  0.0780
17297TIP3   OH273381   3.832   3.917  12.431  0.6992  0.1599 -0.5695
17297TIP3    H173382   3.762   3.944  12.372  0.3724 -1.7227 -1.0813
17297TIP3    H273383   3.810   3.826  12.454  2.5325 -0.1845 -0.0905
17298TIP3   OH273384   4.588   3.053  15.071  0.5740  0.6977 -0.2675
17298TIP3    H173385   4.605   2.965  15.038  1.0524  1.3923 -1.9003
17298TIP3    H273386   4.497   3.051  15.101 -0.4796  0.5480 -3.3364
17299TIP3   OH273387   5.865   5.685  16.005  0.1642 -0.1247 -0.1499
17299TIP3    H173388   5.907   5.671  15.921  0.0047  0.7769 -0.3856
17299TIP3    H273389   5.856   5.780  16.012  0.1117 -0.1952  0.8501
17300TIP3   OH273390   2.548   5.484  16.793  0.0677  0.1383  0.0793
17300TIP3    H173391   2.624   5.467  16.848 -1.0343 -0.4725  1.4236
17300TIP3    H273392   2.476   5.498  16.854 -1.8581 -3.7310 -1.1497
17301TIP3   OH273393   2.110   0.811  16.745 -0.2466  0.2206  0.1434
17301TIP3    H173394   2.104   0.788  16.838 -1.4262  1.4647  0.4009
17301TIP3    H273395   2.198   0.846  16.735  1.4572 -3.8483 -0.1798
17302TIP3   OH273396   2.047   4.320  13.496 -0.2734 -0.1280  0.0780
17302TIP3    H173397   2.053   4.366  13.579 -0.6528  0.7085 -0.3517
17302TIP3    H273398   2.078   4.383  13.431 -2.0242 -0.0269 -0.6812
17303TIP3   OH273399   3.048   3.501   2.356  0.2562 -0.3503 -0.3894
17303TIP3    H173400   3.113   3.535   2.295 -1.4981  2.0670 -0.9803
17303TIP3    H273401   2.964   3.524   2.317 -0.9408 -1.1974  1.6007
17304TIP3   OH273402   6.621   0.057  14.970  0.4147  0.8131 -0.4088
17304TIP3    H173403   6.566   0.131  14.995 -0.4882  0.0792 -0.2165
17304TIP3    H273404   6.562  -0.003  14.924  1.2002  0.3365 -0.8036
17305TIP3   OH273405   4.835   2.191  14.119 -0.2402 -0.7274  0.5517
17305TIP3    H173406   4.746   2.195  14.083  0.9882  0.4923 -2.5672
17305TIP3    H273407   4.875   2.275  14.095  2.6713 -2.3890 -0.7953
17306TIP3   OH273408   6.313   5.052  12.347  0.2226  0.4107 -0.5198
17306TIP3    H173409   6.374   4.990  12.388  0.3440  2.0600  1.9385
17306TIP3    H273410   6.346   5.064  12.258  2.6247  0.0967  0.2916
17307TIP3   OH273411   4.580   6.409  12.697  0.2592  0.5841 -0.3556
17307TIP3    H173412   4.641   6.482  12.708 -1.4168  1.8044  0.9940
17307TIP3    H273413   4.543   6.422  12.610 -0.0978  1.3891 -0.0817
17308TIP3   OH273414   1.620   0.778  15.206 -0.3070 -0.3615 -0.0650
17308TIP3    H173415   1.572   0.789  15.288  0.3581 -2.3003  0.6163
17308TIP3    H273416   1.691   0.842  15.211 -1.2509  0.6797  0.1079
17309TIP3   OH273417   4.123   1.914  10.663  0.2094 -0.5535  0.8240
17309TIP3    H173418   4.127   2.005  10.693 -0.1620 -1.1436  2.7823
17309TIP3    H273419   4.214   1.884  10.664  0.3852 -0.0770 -0.2781
17310TIP3   OH273420   0.287   0.900  11.288 -0.3401 -0.2390  0.1596
17310TIP3    H173421   0.232   0.830  11.324 -1.4456  0.2325 -0.5937
17310TIP3    H273422   0.239   0.932  11.212  0.5640  0.7837  0.0031
17311TIP3   OH273423   3.350   3.148   3.231  0.0123  0.4736  0.2221
17311TIP3    H173424   3.379   3.231   3.266 -1.3863  2.0310 -2.1486
17311TIP3    H273425   3.419   3.120   3.172 -0.6534  1.2500 -0.9373
17312TIP3   OH273426   1.779   1.824  14.421  0.5466  0.0645  0.1153
17312TIP3    H173427   1.763   1.919  14.417  1.8778  0.2864 -0.4975
17312TIP3    H273428   1.717   1.786  14.358  0.2441  0.5658  0.1064
17313TIP3   OH273429   5.591   5.074  15.427 -0.4511  0.0827  0.1075
17313TIP3    H173430   5.661   5.070  15.362 -1.2028 -1.2902 -0.6432
17313TIP3    H273431   5.637   5.088  15.510  0.6920 -0.4704 -0.4117
17314TIP3   OH273432   1.207   6.553   2.421 -0.3832  0.1452  0.0715
17314TIP3    H173433   1.295   6.560   2.383 -0.4706  1.9531  0.1695
17314TIP3    H273434   1.157   6.503   2.357  0.2242  0.7508 -0.8888
17315TIP3   OH273435   6.775   4.427   4.322 -0.5817 -0.0393 -0.4758
17315TIP3    H173436   6.705   4.367   4.349 -1.0218  0.9194  0.5788
17315TIP3    H273437   6.844   4.414   4.387 -0.8684  0.9020  0.0434
17316TIP3   OH273438   1.396   2.671  14.958  0.1309 -0.1566  0.4515
17316TIP3    H173439   1.468   2.669  14.895  1.0404 -0.8339  1.4938
17316TIP3    H273440   1.318   2.654  14.906  0.8562 -0.6175 -0.5029
17317TIP3   OH273441   5.369   3.304   2.652 -0.0151  0.3574  0.1550
17317TIP3    H173442   5.275   3.318   2.644  0.1205  0.6343 -1.0725
17317TIP3    H273443   5.388   3.233   2.591  1.0008  2.1944 -1.7440
17318TIP3   OH273444   1.482   3.295  14.011  0.3493 -0.1565 -0.2647
17318TIP3    H173445   1.418   3.233  14.045 -0.5487  0.9379  0.0769
17318TIP3    H273446   1.557   3.286  14.069 -0.6606  0.7379  1.2047
17319TIP3   OH273447   1.315   2.328   1.496 -0.2399  0.3802  0.1935
17319TIP3    H173448   1.372   2.384   1.549  1.3977 -0.2976 -0.7921
17319TIP3    H273449   1.232   2.375   1.491  0.1480  1.2626  1.8974
17320TIP3   OH273450   0.672   6.388   1.958 -0.5341 -0.2621 -0.5672
17320TIP3    H173451   0.762   6.418   1.943 -1.4834  2.4588 -1.1632
17320TIP3    H273452   0.624   6.420   1.882 -2.6107  1.1272  1.2579
17321TIP3   OH273453   4.583   2.943   3.829 -0.4644  0.4407  0.3131
17321TIP3    H173454   4.557   3.018   3.883 -1.7420  0.8799 -0.8900
17321TIP3    H273455   4.536   2.954   3.747  1.9951  0.1586 -1.2026
17322TIP3   OH273456   1.830   1.305   3.213  0.3379  0.4080 -0.5828
17322TIP3    H173457   1.747   1.262   3.232  1.3400 -1.1879  0.3533
17322TIP3    H273458   1.858   1.267   3.129  1.8334 -1.8103  0.8510
17323TIP3   OH273459   0.648   1.293   0.080 -0.0648  0.2487 -0.3670
17323TIP3    H173460   0.565   1.279   0.126 -0.6105  2.5631 -0.5845
17323TIP3    H273461   0.622   1.338  -0.001  1.3151  0.1116 -0.8885
17324TIP3   OH273462   2.044   0.247  12.442 -0.7005  0.0832  0.8434
17324TIP3    H173463   2.081   0.167  12.404 -1.4879 -0.3556  0.9862
17324TIP3    H273464   2.090   0.258  12.525  0.6016  0.7126  0.0567
17325TIP3   OH273465   4.108   4.222   1.415  0.0382  0.0663  0.5023
17325TIP3    H173466   4.109   4.187   1.326 -0.8941  0.1195  0.4673
17325TIP3    H273467   4.137   4.313   1.406 -1.7608  0.6067  0.0087
17326TIP3   OH273468   3.708   1.622   4.127  0.2537 -0.3800 -0.3665
17326TIP3    H173469   3.630   1.669   4.157  1.3495  0.5150  1.1440
17326TIP3    H273470   3.703   1.537   4.170  0.5018 -0.0315  0.3680
17327TIP3   OH273471   1.284   2.931  17.168  0.2728 -0.1063 -0.2579
17327TIP3    H173472   1.263   2.955  17.077  1.5845  1.0915 -0.2675
17327TIP3    H273473   1.365   2.880  17.161  0.4645  0.1285  0.2472
17328TIP3   OH273474   4.316   4.633  14.938 -0.1042  0.2032 -0.4101
17328TIP3    H173475   4.311   4.653  14.844 -2.0348 -2.1317 -0.8499
17328TIP3    H273476   4.398   4.673  14.967 -0.2622  2.3386 -2.7451
17329TIP3   OH273477   5.516   2.155   3.630  0.2941 -0.0128 -0.5383
17329TIP3    H173478   5.443   2.128   3.686  1.1387 -0.7891  0.2130
17329TIP3    H273479   5.520   2.250   3.640 -0.7687  0.0622 -0.7835
17330TIP3   OH273480   3.261   5.431  10.561 -0.4646 -0.0240  0.6573
17330TIP3    H173481   3.199   5.476  10.504  0.0137 -0.9875 -0.6464
17330TIP3    H273482   3.330   5.495  10.577 -0.9230  0.4658  0.6817
17331TIP3   OH273483   1.787   6.593  12.094  0.3157 -0.2759  0.1856
17331TIP3    H173484   1.794   6.520  12.033 -2.1166  0.0815 -0.5801
17331TIP3    H273485   1.710   6.642  12.064  0.8519  1.5838  1.7500
17332TIP3   OH273486   2.274   0.782   0.859  0.9426  0.0017 -0.2468
17332TIP3    H173487   2.346   0.804   0.918  0.8977 -1.0520  0.2167
17332TIP3    H273488   2.296   0.825   0.776  2.0815 -0.2611 -0.0920
17333TIP3   OH273489   0.523   1.475  14.132  0.0814  0.4218 -0.1152
17333TIP3    H173490   0.459   1.448  14.066 -0.7010  1.6473  0.1146
17333TIP3    H273491   0.559   1.393  14.166  1.2520 -0.2360 -2.7773
17334TIP3   OH273492   6.146   2.688   0.718 -0.3998  0.0096 -0.4141
17334TIP3    H173493   6.168   2.775   0.685  0.4692 -0.4983 -1.1830
17334TIP3    H273494   6.114   2.704   0.807 -0.4446  1.1323 -0.6218
17335TIP3   OH273495   2.627   5.163   0.087  0.3105 -0.0736  0.4449
17335TIP3    H173496   2.556   5.100   0.097  0.4039 -0.2309  0.1358
17335TIP3    H273497   2.584   5.248   0.088  0.2011 -0.1324  1.0093
17336TIP3   OH273498   1.910   6.479   5.514  0.0252  0.9691 -0.1303
17336TIP3    H173499   1.926   6.449   5.425  0.0780  3.1369 -0.8954
17336TIP3    H273500   1.960   6.420   5.570  1.4391  0.6906 -1.6722
17337TIP3   OH273501   5.982   0.120   6.059  0.0230 -0.5751 -0.1451
17337TIP3    H173502   5.959   0.111   6.151  0.5696  1.5948  0.2393
17337TIP3    H273503   6.077   0.112   6.056  0.2734  1.9083 -0.1274
17338TIP3   OH273504   1.617   3.505  12.406  0.6879 -0.7099 -0.5973
17338TIP3    H173505   1.680   3.571  12.377 -0.0385 -0.0195 -0.6269
17338TIP3    H273506   1.532   3.539  12.378 -0.1590  0.4381  3.0224
17339TIP3   OH273507   3.766   6.271   4.310  0.3590 -0.2171  0.7521
17339TIP3    H173508   3.709   6.233   4.376  0.8623  0.1165  1.3856
17339TIP3    H273509   3.775   6.363   4.336 -1.5192  0.5793 -1.2118
17340TIP3   OH273510   2.807   6.769   0.966  0.1858 -0.2993  0.4332
17340TIP3    H173511   2.724   6.741   1.006  0.3824  0.6319  1.5359
17340TIP3    H273512   2.799   6.745   0.874 -0.7033 -1.5706  0.8265
17341TIP3   OH273513   6.216   5.894   1.688  0.0969 -0.3420 -0.1957
17341TIP3    H173514   6.131   5.868   1.655 -0.2249  0.5850 -0.1293
17341TIP3    H273515   6.262   5.812   1.706 -1.7310 -0.8785  2.2142
17342TIP3   OH273516   0.137   2.527   0.891  0.5422  0.0936 -0.4875
17342TIP3    H173517   0.146   2.620   0.871 -2.7679  0.9568  1.6627
17342TIP3    H273518   0.144   2.483   0.806  1.7090  2.2896 -1.5776
17343TIP3   OH273519   4.427   2.507  14.469 -0.3665  0.0268 -0.5497
17343TIP3    H173520   4.476   2.496  14.551  1.3182 -1.4742 -1.7270
17343TIP3    H273521   4.342   2.467  14.486 -0.5046  0.8926  0.8746
17344TIP3   OH273522   0.818   5.426   4.630 -0.4725  0.6529  0.0443
17344TIP3    H173523   0.884   5.406   4.564 -0.1720 -0.8481  0.7729
17344TIP3    H273524   0.860   5.405   4.713 -1.3737  1.0595  0.6051
17345TIP3   OH273525   1.820   5.106   0.223 -0.1442  0.6008 -0.0791
17345TIP3    H173526   1.806   5.179   0.284  3.1583  1.6279 -0.4468
17345TIP3    H273527   1.823   5.028   0.279  0.9270  1.3184  0.9050
17346TIP3   OH273528   4.687   2.806  14.934 -0.8356 -0.2384 -0.7528
17346TIP3    H173529   4.700   2.819  14.840 -0.1746  0.5721 -0.5562
17346TIP3    H273530   4.767   2.761  14.963  0.0209  1.6361 -0.1588
17347TIP3   OH273531   2.668   3.226   2.654 -0.2944  0.9171  0.1010
17347TIP3    H173532   2.748   3.235   2.601 -1.3385  1.3448 -1.4321
17347TIP3    H273533   2.622   3.152   2.616 -0.0090 -0.1895  1.8452
17348TIP3   OH273534   5.056   0.622   2.134  0.5165 -0.5546 -0.2232
17348TIP3    H173535   4.981   0.680   2.134  0.7725 -0.1928 -1.8803
17348TIP3    H273536   5.018   0.534   2.135  0.1279 -0.3874  1.9393
17349TIP3   OH273537   3.356   4.577   3.306  0.0727  0.0515  0.5623
17349TIP3    H173538   3.301   4.622   3.242 -0.6061 -0.9355  0.4329
17349TIP3    H273539   3.325   4.486   3.304  1.2325 -0.3649  1.0068
17350TIP3   OH273540   5.611   2.485   4.575  0.0978  0.2588 -0.3918
17350TIP3    H173541   5.687   2.445   4.615  0.2359 -1.8636 -2.6364
17350TIP3    H273542   5.647   2.556   4.521  0.3009  0.5228  0.0946
17351TIP3   OH273543   2.922   1.182  13.739  0.6087  0.1754 -0.1828
17351TIP3    H173544   2.923   1.266  13.786 -0.9258 -0.9796  1.9971
17351TIP3    H273545   2.831   1.153  13.745  1.4100 -2.3497  0.4119
17352TIP3   OH273546   3.030   3.090  15.697 -0.3886  0.1405 -0.4743
17352TIP3    H173547   2.949   3.068  15.651 -0.6152 -1.3620  0.6042
17352TIP3    H273548   3.054   3.010  15.743  0.6389  1.1660  0.8233
17353TIP3   OH273549   0.355   5.834  12.646 -0.2185  0.2301  0.4571
17353TIP3    H173550   0.424   5.767  12.644 -0.9362 -0.5536  1.7209
17353TIP3    H273551   0.393   5.906  12.696 -0.5061 -0.4276  1.6367
17354TIP3   OH273552   6.121   0.788  12.066 -0.8736 -0.4295  0.4581
17354TIP3    H173553   6.197   0.746  12.108  0.5785  1.3545 -0.2906
17354TIP3    H273554   6.075   0.717  12.022  0.7423 -1.4599  0.3868
17355TIP3   OH273555   2.948   4.841  11.479 -0.4763 -0.6276 -0.2951
17355TIP3    H173556   2.854   4.853  11.496 -0.2101  2.7024 -0.7595
17355TIP3    H273557   2.990   4.861  11.563 -0.0888 -0.0164 -0.6274
17356TIP3   OH273558   5.895   5.462  14.912 -0.3356  0.1318  0.1486
17356TIP3    H173559   5.941   5.423  14.837  0.2485 -0.7549  0.9565
17356TIP3    H273560   5.954   5.448  14.986 -0.7774  1.2750  0.7295
17357TIP3   OH273561   0.415   0.814  15.304 -0.0282  0.1858  0.0527
17357TIP3    H173562   0.486   0.802  15.367  0.2135  2.3159  0.2166
17357TIP3    H273563   0.337   0.783  15.350  0.4192  0.0923  0.7534
17358TIP3   OH273564   3.934   2.392  12.785 -0.2648  0.2358  0.0087
17358TIP3    H173565   3.944   2.299  12.765  0.2111  0.2177  0.3248
17358TIP3    H273566   3.868   2.423  12.723  1.0194  0.1410 -1.4219
17359TIP3   OH273567   3.712   4.718   3.988 -0.3431 -0.1422 -0.7536
17359TIP3    H173568   3.659   4.699   4.066 -1.2797 -1.1214 -1.6166
17359TIP3    H273569   3.791   4.760   4.022 -0.3264 -1.4057  0.8038
17360TIP3   OH273570   0.482   0.301  16.608 -0.0906  0.1001 -0.2844
17360TIP3    H173571   0.508   0.299  16.700  0.2705  0.0660 -0.3883
17360TIP3    H273572   0.386   0.302  16.611 -0.1090 -1.1875  0.0734
17361TIP3   OH273573   3.173   3.869   5.920  0.2487 -0.0632 -0.0591
17361TIP3    H173574   3.184   3.888   6.013 -0.6961 -0.6476  0.1855
17361TIP3    H273575   3.178   3.773   5.915  2.6970  0.0857 -0.9525
17362TIP3   OH273576   0.879   6.056   2.908  1.2696  0.1098 -0.3121
17362TIP3    H173577   0.954   6.033   2.852  1.9517 -0.4242  0.8024
17362TIP3    H273578   0.873   5.984   2.970  0.1945  0.4513 -0.0204
17363TIP3   OH273579   6.648   2.229   6.206 -0.4836 -0.3947 -0.0767
17363TIP3    H173580   6.730   2.272   6.230 -0.3092 -0.6838 -0.1512
17363TIP3    H273581   6.581   2.297   6.213 -0.4661 -0.5200  1.4345
17364TIP3   OH273582   4.997   0.853   5.679 -0.1262  0.3067  0.2600
17364TIP3    H173583   4.965   0.921   5.737 -0.3300  0.2260  0.2436
17364TIP3    H273584   5.056   0.800   5.733 -0.5484  0.0530  0.4765
17365TIP3   OH273585   1.312   2.503  17.265 -0.3011 -0.1042  0.7629
17365TIP3    H173586   1.224   2.528  17.293 -0.3484  2.2003 -1.3235
17365TIP3    H273587   1.326   2.550  17.183  2.4611 -1.3066  0.4779
17366TIP3   OH273588   5.384   5.318   4.375  0.5622  0.0639 -0.1487
17366TIP3    H173589   5.440   5.333   4.452  0.1883 -0.2323  0.1853
17366TIP3    H273590   5.301   5.288   4.412 -0.0339  1.1234 -0.6107
17367TIP3   OH273591   6.380   0.504   2.286 -0.6578 -0.1008  0.1692
17367TIP3    H173592   6.359   0.493   2.379 -0.4621  0.2029  0.2511
17367TIP3    H273593   6.440   0.578   2.284  0.5201 -1.0618 -0.0659
17368TIP3   OH273594   6.534   2.038   4.705 -0.5454  0.1869  0.5767
17368TIP3    H173595   6.567   1.976   4.640 -0.4028 -1.7900  2.4785
17368TIP3    H273596   6.612   2.087   4.731 -0.7038  1.4045 -1.1213
17369TIP3   OH273597   5.544   6.759   2.559  1.1191  0.2581 -0.2942
17369TIP3    H173598   5.468   6.781   2.505  0.0112  0.0734  1.1854
17369TIP3    H273599   5.561   6.838   2.610 -0.2922 -0.8618  1.9743
17370TIP3   OH273600   1.199   6.276   1.197  0.4330  0.0167 -0.6289
17370TIP3    H173601   1.128   6.295   1.135 -1.2094  1.1454  1.5303
17370TIP3    H273602   1.185   6.338   1.269  2.9274 -0.5584  0.3831
17371TIP3   OH273603   1.027   0.880   2.214 -0.0714 -0.5087  0.4360
17371TIP3    H173604   0.955   0.903   2.156  0.4270 -0.7272 -0.2778
17371TIP3    H273605   1.010   0.788   2.238 -1.0691  0.0237  1.8205
17372TIP3   OH273606   3.075   4.756   5.718  0.1796  0.3536 -1.3597
17372TIP3    H173607   3.021   4.834   5.732  1.2944  0.9413 -0.2932
17372TIP3    H273608   3.013   4.689   5.687 -0.8467  1.5365 -1.9059
17373TIP3   OH273609   4.439   5.184   0.807 -0.2894  0.3607  0.0349
17373TIP3    H173610   4.358   5.139   0.826 -0.7436  0.9398 -0.4822
17373TIP3    H273611   4.440   5.192   0.711  1.0506 -0.8821 -0.0707
17374TIP3   OH273612   3.540   4.163  10.868 -0.0966 -0.4755  0.2827
17374TIP3    H173613   3.481   4.093  10.897 -1.4217  1.2623  1.9453
17374TIP3    H273614   3.501   4.196  10.787 -0.5145 -0.4424  0.4952
17375TIP3   OH273615   4.531   1.273   3.252  0.1908  0.1584 -0.1444
17375TIP3    H173616   4.477   1.310   3.182  1.2730 -2.0877 -2.2612
17375TIP3    H273617   4.508   1.324   3.329 -1.6971  2.1548 -1.9304
17376TIP3   OH273618   0.151   4.801  10.568 -0.0877  0.0199  0.3208
17376TIP3    H173619   0.170   4.729  10.628  0.9239 -0.7360 -0.8961
17376TIP3    H273620   0.090   4.764  10.505  1.4927 -0.1841 -1.1078
17377TIP3   OH273621   3.251   6.322  14.367  0.0108 -0.0540  0.0105
17377TIP3    H173622   3.260   6.365  14.282  0.7604  0.4485  0.3421
17377TIP3    H273623   3.242   6.229  14.346  0.9720 -0.0167 -0.5788
17378TIP3   OH273624   3.067   5.153  14.255  0.9999  0.2611 -0.1638
17378TIP3    H173625   3.036   5.097  14.184  1.4186  0.4832 -0.5209
17378TIP3    H273626   3.151   5.115  14.281  0.7377  0.0386  0.3769
17379TIP3   OH273627   5.434   0.265   6.575  0.2215 -0.2369  0.1912
17379TIP3    H173628   5.529   0.272   6.568  0.3053  0.0909  1.5071
17379TIP3    H273629   5.407   0.219   6.496  1.3728  0.5461 -0.6620
17380TIP3   OH273630   0.385   1.548  12.356 -0.0464 -0.3009 -0.6152
17380TIP3    H173631   0.386   1.467  12.304 -2.2314  0.5858 -2.1347
17380TIP3    H273632   0.329   1.528  12.431  1.3401 -0.9074  0.2763
17381TIP3   OH273633   1.029   1.755   1.921 -0.3465  0.2924 -0.2813
17381TIP3    H173634   0.949   1.796   1.954 -1.1700 -0.6085 -1.1237
17381TIP3    H273635   1.053   1.691   1.987 -0.6068  0.2012 -0.2754
17382TIP3   OH273636   2.249   4.492  13.759  0.4634 -0.0460 -0.1340
17382TIP3    H173637   2.217   4.422  13.815  0.1915  0.3513  0.2033
17382TIP3    H273638   2.292   4.554  13.818 -0.1502  0.5592 -0.3101
17383TIP3   OH273639   0.093   0.570  13.714  0.0315  0.2570  0.2235
17383TIP3    H173640   0.021   0.632  13.705  2.9105  3.7543  0.0301
17383TIP3    H273641   0.141   0.600  13.792  2.3466 -0.8019 -0.7387
17384TIP3   OH273642   3.072   2.124   5.220 -0.3067 -0.4116  0.2151
17384TIP3    H173643   3.078   2.154   5.311 -0.9448  0.0720  0.1008
17384TIP3    H273644   3.065   2.029   5.227 -2.3130 -0.2480  0.7697
17385TIP3   OH273645   6.568   5.039  12.754  0.2324  0.2838 -0.1799
17385TIP3    H173646   6.517   5.107  12.799  3.3885  2.0786  0.9309
17385TIP3    H273647   6.623   5.002  12.823 -1.1929 -3.2584 -0.8469
17386TIP3   OH273648   1.401   4.955  12.443  0.1933  0.0963 -0.0172
17386TIP3    H173649   1.378   5.028  12.499 -0.5796 -0.6894  0.6944
17386TIP3    H273650   1.321   4.904  12.435  0.7313 -0.6962 -0.4772
17387TIP3   OH273651   0.921   4.294   5.633  0.4736  0.0122  0.5283
17387TIP3    H173652   0.939   4.219   5.690  3.4155  0.2367 -0.0620
17387TIP3    H273653   1.005   4.315   5.593 -1.1899  0.8497 -2.7174
17388TIP3   OH273654   4.766   1.374  15.901 -0.3201  0.2496  0.1012
17388TIP3    H173655   4.766   1.282  15.872 -2.0449  0.1277  0.4141
17388TIP3    H273656   4.816   1.374  15.982  0.1393 -0.3164 -0.1759
17389TIP3   OH273657   1.230   4.778   0.609 -0.2747  0.2170  0.1757
17389TIP3    H173658   1.221   4.871   0.587 -1.1983  0.1636  0.3426
17389TIP3    H273659   1.213   4.774   0.703  0.7252  0.0127  0.3551
17390TIP3   OH273660   2.238   0.908  15.343  0.6109  0.8085  0.0944
17390TIP3    H173661   2.301   0.971  15.308  1.3931  0.6221  1.1619
17390TIP3    H273662   2.287   0.857  15.407 -0.7529  0.9887  1.3030
17391TIP3   OH273663   3.207   6.317  12.821 -1.3453  0.1925  0.4346
17391TIP3    H173664   3.151   6.394  12.833  1.3485  1.8985  2.8321
17391TIP3    H273665   3.237   6.323  12.730 -2.5148  1.0047  0.0937
17392TIP3   OH273666   6.797   1.075   4.179 -0.5187 -0.0573 -0.2892
17392TIP3    H173667   6.826   1.131   4.250 -0.8692 -0.3271  0.0656
17392TIP3    H273668   6.789   1.133   4.103 -0.3142  0.2562 -0.0689
17393TIP3   OH273669   4.545   1.866   5.336  0.3687  0.5602 -0.0975
17393TIP3    H173670   4.634   1.870   5.370  0.7770  0.0683 -1.0844
17393TIP3    H273671   4.550   1.911   5.251 -0.8320  2.6056  0.8717
17394TIP3   OH273672   5.408   2.234   3.160 -0.1786 -0.0124  0.4036
17394TIP3    H173673   5.419   2.329   3.156  2.3356 -0.2742  0.4299
17394TIP3    H273674   5.346   2.215   3.089  2.3630  1.2401 -2.2916
17395TIP3   OH273675   1.156   6.028   3.580  0.1349 -1.0759 -0.7226
17395TIP3    H173676   1.129   6.045   3.490 -0.0424 -0.6790 -0.5941
17395TIP3    H273677   1.247   6.056   3.584  0.1557 -1.1347 -0.7912
17396TIP3   OH273678   5.852   3.445  17.067 -0.3887 -0.2985  0.5522
17396TIP3    H173679   5.908   3.403  17.003 -1.2428 -1.1415  0.3442
17396TIP3    H273680   5.810   3.517  17.019 -1.0356 -0.9364  0.1575
17397TIP3   OH273681   2.085   3.841  14.934  1.2187 -0.0198  0.0346
17397TIP3    H173682   2.032   3.921  14.931  0.2517 -0.6362  0.4131
17397TIP3    H273683   2.083   3.808  14.845  4.2854  2.0641 -0.8822
17398TIP3   OH273684   0.712   3.649  16.598  0.0367 -0.2240 -0.0356
17398TIP3    H173685   0.656   3.677  16.525  0.6033  0.3457 -0.2510
17398TIP3    H273686   0.672   3.567  16.628 -0.6792 -0.0316 -0.4526
17399TIP3   OH273687   4.075   5.070  13.021  0.3441  0.0615  0.2146
17399TIP3    H173688   4.088   4.994  12.965  0.3055 -0.2463  0.6149
17399TIP3    H273689   4.063   5.143  12.961 -0.2735 -0.3591 -0.1814
17400TIP3   OH273690   2.111   6.133  14.298  0.6020 -0.0278  0.3719
17400TIP3    H173691   2.021   6.148  14.269  0.3633  0.0016  1.1163
17400TIP3    H273692   2.142   6.220  14.324  0.4640 -0.2195  1.1821
17401TIP3   OH273693   0.807   3.586  11.625 -0.2810  0.0459  0.2401
17401TIP3    H173694   0.712   3.583  11.628 -0.3130 -0.4595 -1.1040
17401TIP3    H273695   0.834   3.494  11.632  0.0785  0.1001 -0.4528
17402TIP3   OH273696   4.469   3.846   4.074 -0.2481  0.0281 -1.0541
17402TIP3    H173697   4.397   3.809   4.126 -0.2718  0.2329 -0.9410
17402TIP3    H273698   4.540   3.782   4.082 -0.3975 -0.1461 -1.1171
17403TIP3   OH273699   2.647   0.830   0.538  0.7788 -1.1676  0.2156
17403TIP3    H173700   2.647   0.775   0.459  0.4875  0.9550 -1.2958
17403TIP3    H273701   2.740   0.845   0.556  0.8432 -1.5481  0.2019
17404TIP3   OH273702   2.037   2.073  10.588 -0.2847  0.0046 -0.1006
17404TIP3    H173703   2.097   2.139  10.554  0.2407 -0.3010  0.2349
17404TIP3    H273704   2.093   2.008  10.631 -0.8396 -0.3487  0.1035
17405TIP3   OH273705   6.624   4.486  14.456 -0.4927  0.3017  0.1125
17405TIP3    H173706   6.597   4.577  14.472 -0.9330 -0.1264  1.8816
17405TIP3    H273707   6.549   4.446  14.412 -1.2970  0.1304  1.6129
17406TIP3   OH273708   5.638   3.502   4.516  0.4595  0.3200  0.4529
17406TIP3    H173709   5.680   3.532   4.435  2.6761 -1.4638  0.8981
17406TIP3    H273710   5.640   3.578   4.573  2.8261  0.3809  0.3352
17407TIP3   OH273711   4.888   5.729   1.264 -0.6153  0.0866  0.3904
17407TIP3    H173712   4.814   5.723   1.203  1.3233  0.4318 -2.0637
17407TIP3    H273713   4.901   5.640   1.296  1.6238 -1.2103 -3.7808
17408TIP3   OH273714   1.572   6.590  13.220  0.2514  0.1074 -0.3017
17408TIP3    H173715   1.661   6.562  13.197  0.5091  0.8797 -0.2695
17408TIP3    H273716   1.517   6.556  13.149  0.3928 -1.4154  0.3089
17409TIP3   OH273717   2.953   3.428   1.910 -0.3575 -0.5393 -0.0438
17409TIP3    H173718   2.886   3.404   1.845  0.5560 -1.4367 -0.6763
17409TIP3    H273719   3.001   3.500   1.869 -1.8956  1.1464  1.0588
17410TIP3   OH273720   2.582   4.577   5.829 -0.1555 -0.2859 -0.9303
17410TIP3    H173721   2.594   4.653   5.772  2.0597 -0.7495 -1.1427
17410TIP3    H273722   2.569   4.615   5.916 -1.9155  0.3860 -1.4607
17411TIP3   OH273723   0.042   1.863   0.600 -0.3292  0.1856  0.6611
17411TIP3    H173724  -0.003   1.946   0.579  1.2887  1.0001  0.3181
17411TIP3    H273725  -0.027   1.797   0.597 -1.7873  1.6340  1.6742
17412TIP3   OH273726   0.769   1.883   0.421  0.0222 -0.1960  0.0673
17412TIP3    H173727   0.837   1.893   0.488  0.0538 -0.4019  0.0652
17412TIP3    H273728   0.816   1.851   0.344  0.5364  3.0573 -1.0601
17413TIP3   OH273729   5.551   4.428  15.355 -0.2621  0.2766  0.0852
17413TIP3    H173730   5.517   4.515  15.375  0.6357  0.6147  0.1506
17413TIP3    H273731   5.642   4.430  15.384  0.0494 -0.3716 -0.8182
17414TIP3   OH273732   3.014   5.946   4.263  0.8682  0.1068 -0.1327
17414TIP3    H173733   2.921   5.941   4.287  0.4853 -1.2209 -1.7683
17414TIP3    H273734   3.060   5.945   4.347 -0.5125 -1.7018  0.6725
17415TIP3   OH273735   0.793   2.542   3.272 -0.6256  0.6266 -0.4092
17415TIP3    H173736   0.814   2.542   3.365 -0.5080 -1.1805 -0.4144
17415TIP3    H273737   0.863   2.592   3.230 -0.9375  1.8483  0.5196
17416TIP3   OH273738   1.661   0.414   5.801  0.3374  0.8023  0.1319
17416TIP3    H173739   1.717   0.342   5.773 -0.2939 -0.2181  1.4384
17416TIP3    H273740   1.677   0.483   5.737  1.6399 -0.1634 -0.6113
17417TIP3   OH273741   6.331   1.506  14.239  0.1833 -0.0329  0.0808
17417TIP3    H173742   6.254   1.564  14.232 -1.1064 -1.6953  0.2540
17417TIP3    H273743   6.372   1.532  14.321 -0.3659  0.6665  0.1457
17418TIP3   OH273744   2.028   6.310  11.912 -0.6120 -0.3037 -0.1258
17418TIP3    H173745   1.937   6.293  11.936 -0.1472 -3.0558 -0.1121
17418TIP3    H273746   2.076   6.234  11.944  1.1918 -0.4729 -2.9971
17419TIP3   OH273747   3.924   2.338   3.426 -0.0865 -0.1223  0.6278
17419TIP3    H173748   3.945   2.279   3.354 -1.4468  0.0554  0.0827
17419TIP3    H273749   4.004   2.390   3.437  1.1484 -2.0491  1.1394
17420TIP3   OH273750   3.635   2.677   0.561  0.1000  0.0545 -0.1013
17420TIP3    H173751   3.703   2.661   0.628  0.9798 -0.2592 -1.0578
17420TIP3    H273752   3.681   2.668   0.478 -1.6086 -2.4644 -0.8250
17421TIP3   OH273753   2.284   0.495  12.475 -0.3705 -0.3070  0.5141
17421TIP3    H173754   2.200   0.535  12.453 -0.0814 -0.1253 -0.2633
17421TIP3    H273755   2.261   0.409  12.510 -0.8241 -0.6636 -0.6560
17422TIP3   OH273756   5.283   5.977  14.603 -0.1468  0.2520  0.3534
17422TIP3    H173757   5.287   5.975  14.508  3.4219 -1.0848  0.4393
17422TIP3    H273758   5.336   6.053  14.627 -1.5469  0.9474  1.2551
17423TIP3   OH273759   6.642   1.682   5.268 -0.0048  0.8639  0.0091
17423TIP3    H173760   6.556   1.655   5.301  0.2334  0.0099 -0.0605
17423TIP3    H273761   6.701   1.669   5.341  0.8106 -2.5320 -1.1787
17424TIP3   OH273762   1.427   4.724   6.078  0.2191 -0.4825 -0.2454
17424TIP3    H173763   1.413   4.682   6.162 -1.1208 -1.3872 -0.9040
17424TIP3    H273764   1.446   4.816   6.100  0.1150 -0.7636  1.0453
17425TIP3   OH273765   6.395   4.449  15.931  0.0034  0.3197  0.2896
17425TIP3    H173766   6.425   4.366  15.968 -0.7321 -0.3791 -0.6642
17425TIP3    H273767   6.333   4.482  15.995  2.0953  1.3564  1.8637
17426TIP3   OH273768   1.257   2.397  16.207 -0.0756  0.1162  0.2145
17426TIP3    H173769   1.308   2.316  16.204  0.6223  0.4769  1.9682
17426TIP3    H273770   1.170   2.369  16.234 -0.3482 -0.2677 -1.0097
17427TIP3   OH273771   4.523   0.697   4.668  0.1806 -0.0055 -0.0133
17427TIP3    H173772   4.430   0.674   4.666 -0.1701  1.4001 -0.5098
17427TIP3    H273773   4.552   0.675   4.757 -0.9890  0.8871  0.5992
17428TIP3   OH273774   5.775   6.605   1.086  0.6761 -0.4320 -0.3220
17428TIP3    H173775   5.801   6.613   0.995 -0.7265 -1.8642 -0.8633
17428TIP3    H273776   5.688   6.645   1.090 -0.2125 -2.3359 -0.0917
17429TIP3   OH273777   6.176   2.267   2.257  0.0414 -0.0807  0.3519
17429TIP3    H173778   6.268   2.275   2.284  0.5165 -0.8923 -0.9196
17429TIP3    H273779   6.129   2.328   2.313  1.5042  1.0965  0.3475
17430TIP3   OH273780   4.356   2.529  14.862 -0.0880 -0.3655  0.8616
17430TIP3    H173781   4.333   2.621  14.850 -0.2992 -0.2421  2.2476
17430TIP3    H273782   4.282   2.480  14.827 -0.4031 -0.0069  1.0366
17431TIP3   OH273783   4.364   6.073   1.604 -0.3999 -0.0347  0.2225
17431TIP3    H173784   4.357   6.137   1.533  1.1963 -0.7610 -0.6015
17431TIP3    H273785   4.453   6.037   1.596 -0.7795 -1.3268  1.5577
17432TIP3   OH273786   6.362   4.706   1.038  0.2033  0.9738  0.1794
17432TIP3    H173787   6.421   4.756   1.096 -0.8700  2.5059 -0.0158
17432TIP3    H273788   6.412   4.697   0.956  0.9861  0.4301  0.7039
17433TIP3   OH273789   5.091   0.848  10.478 -0.0730 -0.2223 -0.0580
17433TIP3    H173790   5.069   0.901  10.555  1.9157  0.4041  0.1012
17433TIP3    H273791   5.025   0.873  10.413 -0.8773  0.3338  0.9394
17434TIP3   OH273792   4.083   4.681   1.040 -0.6898  0.5079  0.5242
17434TIP3    H173793   4.011   4.713   0.986 -1.2405 -1.5003 -0.0114
17434TIP3    H273794   4.053   4.694   1.130 -0.8465  1.5579  0.3263
17435TIP3   OH273795   5.701   4.936   0.234 -0.6542 -0.0673 -0.1707
17435TIP3    H173796   5.683   4.928   0.140 -0.8875  1.9388 -0.3166
17435TIP3    H273797   5.614   4.947   0.273 -0.3209  2.2779 -0.0700
17436TIP3   OH273798   2.590   4.626   2.388  0.0875  0.4713 -0.4386
17436TIP3    H173799   2.674   4.670   2.400 -0.1384  1.8105 -3.2272
17436TIP3    H273800   2.525   4.691   2.414 -0.1426  0.1263 -0.1453
17437TIP3   OH273801   0.999   5.913   1.623 -0.9141 -0.2112 -0.5732
17437TIP3    H173802   0.986   5.996   1.577  0.1132  0.4063  0.2402
17437TIP3    H273803   1.081   5.924   1.672  0.1149 -2.3008 -1.7572
17438TIP3   OH273804   1.029   5.570  12.484 -0.4017  0.1550  0.1501
17438TIP3    H173805   1.098   5.563  12.419 -0.2715 -0.9960  0.4098
17438TIP3    H273806   1.047   5.652  12.530  0.0147  0.5249 -0.6719
17439TIP3   OH273807   2.165   1.756   3.360  0.6380 -0.2021  0.2571
17439TIP3    H173808   2.241   1.704   3.337  2.0812  1.3266  1.4708
17439TIP3    H273809   2.174   1.774   3.453 -1.3032 -0.1435  0.4642
17440TIP3   OH273810   6.088   2.313  14.042  0.0235  0.1438  0.1368
17440TIP3    H173811   6.034   2.238  14.015 -1.8276  2.2004 -2.1426
17440TIP3    H273812   6.024   2.382  14.061  1.7370  1.3582  1.6016
17441TIP3   OH273813   5.768   5.696  14.746 -0.0871  0.2255  0.2021
17441TIP3    H173814   5.825   5.635  14.793  1.4547  2.3604  1.1785
17441TIP3    H273815   5.681   5.657  14.751  0.7710 -1.5959  1.2994
17442TIP3   OH273816   4.727   3.362  16.889 -0.2139  0.5494  0.5149
17442TIP3    H173817   4.813   3.405  16.891 -1.0625  2.2671  1.0001
17442TIP3    H273818   4.688   3.390  16.807 -0.1802 -0.5019  0.1386
17443TIP3   OH273819   2.130   0.431  15.035  0.1560 -0.1329 -0.2548
17443TIP3    H173820   2.165   0.507  14.988  0.8148 -0.6633 -0.6280
17443TIP3    H273821   2.185   0.423  15.113 -1.4377  1.2277  1.0397
17444TIP3   OH273822   5.590   3.692   3.288  0.1722  0.9733 -0.1100
17444TIP3    H173823   5.667   3.635   3.287  0.4244  1.2899  0.6346
17444TIP3    H273824   5.528   3.650   3.228  0.3485 -0.0823  0.4324
17445TIP3   OH273825   4.268   5.290   4.898  1.2002 -0.8937 -0.0325
17445TIP3    H173826   4.246   5.355   4.831  0.1649  0.6937  1.7716
17445TIP3    H273827   4.363   5.296   4.907  1.0573  0.9286  0.5954
17446TIP3   OH273828   1.458   4.590  16.529 -0.2993  0.5906  0.1855
17446TIP3    H173829   1.448   4.644  16.607 -0.0173 -1.5751  1.7641
17446TIP3    H273830   1.550   4.602  16.503 -0.6770  2.1778 -0.5171
17447TIP3   OH273831   0.877   0.536  11.188 -0.3783  0.1718 -0.1368
17447TIP3    H173832   0.952   0.528  11.248  1.1073 -0.0445 -1.9766
17447TIP3    H273833   0.814   0.590  11.235  0.7262 -0.0510  1.6512
17448TIP3   OH273834   3.759   3.966   0.541 -0.0062 -0.8548 -0.3931
17448TIP3    H173835   3.753   4.049   0.590 -1.9137 -1.0006 -0.3485
17448TIP3    H273836   3.756   3.992   0.449 -0.3451 -0.8381 -0.3804
17449TIP3   OH273837   0.362   0.841  14.680  0.4351  0.2223  0.5493
17449TIP3    H173838   0.339   0.865  14.590 -2.5724 -3.8715  0.1085
17449TIP3    H273839   0.451   0.807  14.673  0.1791 -0.2098 -0.9087
17450TIP3   OH273840   0.739   3.772   5.912 -0.6024  0.1160  0.7149
17450TIP3    H173841   0.834   3.763   5.907 -0.8096 -1.4446 -0.8089
17450TIP3    H273842   0.723   3.866   5.903  0.6974  0.2278 -0.4961
17451TIP3   OH273843   6.352   6.449   3.673 -0.0365  0.7642 -0.1857
17451TIP3    H173844   6.428   6.452   3.731  1.7372 -0.4488 -2.3459
17451TIP3    H273845   6.388   6.420   3.589 -2.9305 -0.0021 -1.2013
17452TIP3   OH273846   0.872   3.279  13.605 -0.1008 -0.1259  0.4888
17452TIP3    H173847   0.846   3.332  13.530 -0.4529 -0.9065  0.0440
17452TIP3    H273848   0.790   3.241  13.637  0.1446 -0.4028  0.7895
17453TIP3   OH273849   3.758   5.868   1.791  0.6034 -0.1181 -0.0542
17453TIP3    H173850   3.834   5.810   1.791 -1.3422 -2.7641 -1.5324
17453TIP3    H273851   3.742   5.886   1.698 -1.3533 -0.6895  0.1493
17454TIP3   OH273852   3.369   4.838   4.624  0.4311  0.6559  0.1028
17454TIP3    H173853   3.373   4.926   4.663 -0.6123  1.8133 -2.2876
17454TIP3    H273854   3.282   4.805   4.648  0.5407  0.5670  0.3810
17455TIP3   OH273855   5.309   4.512  17.031  0.3073  0.2888 -0.1329
17455TIP3    H173856   5.341   4.430  17.068  1.1723  1.0861  0.9016
17455TIP3    H273857   5.307   4.496  16.936 -1.2100 -1.4972  0.1774
17456TIP3   OH273858   2.667   5.409  15.002 -0.0351 -0.2350  0.2081
17456TIP3    H173859   2.573   5.409  14.986  0.3176  0.1011 -2.1207
17456TIP3    H273860   2.691   5.317  15.010 -0.5765 -0.3117  0.9507
17457TIP3   OH273861   1.586   5.302  12.502  0.2270  0.1976  0.2633
17457TIP3    H173862   1.608   5.235  12.437 -0.1666 -1.2414  1.5881
17457TIP3    H273863   1.490   5.305  12.500  0.2627  1.2036 -0.2554
17458TIP3   OH273864   1.359   5.076  13.811  0.2487  0.2744 -0.2752
17458TIP3    H173865   1.328   5.145  13.752  0.6397  0.5900 -0.1085
17458TIP3    H273866   1.447   5.103  13.835  0.2740 -0.1115  0.0606
17459TIP3   OH273867   4.772   3.682   1.564 -0.2152 -0.0480  0.3655
17459TIP3    H173868   4.834   3.668   1.492  0.3378  1.0419  0.6142
17459TIP3    H273869   4.807   3.757   1.611 -1.4418  0.2454  0.8314
17460TIP3   OH273870   5.631   4.069   5.954 -0.0747 -0.3162 -0.2701
17460TIP3    H173871   5.580   4.131   5.903 -0.2422 -0.2950 -0.0760
17460TIP3    H273872   5.693   4.031   5.891  0.7055  0.7748 -0.1837
17461TIP3   OH273873   2.178   4.110   3.309  0.1982  0.0885  0.2383
17461TIP3    H173874   2.216   4.197   3.315  1.4470 -0.4531  0.3679
17461TIP3    H273875   2.250   4.051   3.333  0.1558 -1.1055 -2.3926
17462TIP3   OH273876   3.473   2.885  13.664 -0.4064 -0.6275 -0.2757
17462TIP3    H173877   3.440   2.972  13.640 -1.5561 -0.1218  2.9486
17462TIP3    H273878   3.494   2.844  13.580  3.2669  3.9222 -1.7814
17463TIP3   OH273879   2.058   0.511   3.216 -0.6458  0.3757 -0.5317
17463TIP3    H173880   2.079   0.519   3.123 -1.8867 -0.5577 -0.9055
17463TIP3    H273881   2.141   0.524   3.261 -0.1393  1.3935 -1.7487
17464TIP3   OH273882   3.214   0.299  16.654 -0.1750  0.4259  0.0978
17464TIP3    H173883   3.250   0.354  16.722  0.9044  0.2768 -0.3406
17464TIP3    H273884   3.203   0.213  16.695 -2.9293  1.2211  1.1152
17465TIP3   OH273885   6.686   6.238  16.842 -0.3899 -0.0813 -0.3457
17465TIP3    H173886   6.708   6.150  16.872 -0.6091 -0.6820 -1.9108
17465TIP3    H273887   6.757   6.294  16.875  1.7939 -1.4543 -2.5670
17466TIP3   OH273888   1.170   4.674  17.230  0.1544  0.5188 -0.1730
17466TIP3    H173889   1.164   4.625  17.148 -1.4341 -0.4969  0.5127
17466TIP3    H273890   1.263   4.695  17.239  0.3474  0.6250 -2.2098
17467TIP3   OH273891   4.335   0.901   2.346  0.1376 -0.0682  0.4528
17467TIP3    H173892   4.338   0.966   2.276  1.2538  0.4224  0.9522
17467TIP3    H273893   4.255   0.921   2.394 -0.2480  0.0582 -0.2403
17468TIP3   OH273894   5.647   0.783   4.122 -0.1145 -0.3764 -0.3066
17468TIP3    H173895   5.619   0.828   4.043  0.4734  0.2550 -0.1585
17468TIP3    H273896   5.649   0.690   4.098 -0.3893 -0.2307 -0.8891
17469TIP3   OH273897   1.524   4.592   0.810 -0.0888 -0.6700 -0.6791
17469TIP3    H173898   1.464   4.528   0.772 -0.3881 -1.7745  1.5678
17469TIP3    H273899   1.537   4.562   0.900  0.5621  1.8870  0.1178
17470TIP3   OH273900   0.141   1.548  16.217 -0.3081  0.0959 -0.1663
17470TIP3    H173901   0.142   1.454  16.198 -0.5155  0.4276 -1.9411
17470TIP3    H273902   0.051   1.566  16.245 -0.6176 -0.0150 -1.0692
17471TIP3   OH273903   1.410   4.755  14.282 -0.0395 -0.4478 -0.1303
17471TIP3    H173904   1.315   4.756  14.288 -0.1496 -0.2151 -1.7026
17471TIP3    H273905   1.435   4.847  14.273  0.2989 -0.5389 -0.1451
17472TIP3   OH273906   0.848   5.571  15.459 -0.4964  0.1033  0.1449
17472TIP3    H173907   0.771   5.615  15.422  0.5120  0.3915 -1.6486
17472TIP3    H273908   0.880   5.633  15.525 -0.7568  0.7767 -0.3493
17473TIP3   OH273909   1.938   4.244  14.725 -0.0519  1.0161 -0.1954
17473TIP3    H173910   2.022   4.285  14.706  0.5924  1.4890  3.3279
17473TIP3    H273911   1.949   4.207  14.812 -2.8095 -0.8476 -0.5798
17474TIP3   OH273912   6.106   6.382   2.200 -0.5499 -0.3078 -1.1720
17474TIP3    H173913   6.184   6.407   2.248 -1.1035  1.1782 -1.0352
17474TIP3    H273914   6.091   6.291   2.225 -1.6128  0.8064  2.5601
17475TIP3   OH273915   2.622   2.157   5.140 -0.5169 -0.1679 -0.6196
17475TIP3    H173916   2.624   2.129   5.231  0.2814 -0.4334 -0.7172
17475TIP3    H273917   2.708   2.196   5.124  0.2011 -2.1725 -1.8899
17476TIP3   OH273918   4.270   0.635   2.491 -0.5034 -0.3912 -0.6112
17476TIP3    H173919   4.342   0.696   2.508 -2.2897  1.2547  1.2934
17476TIP3    H273920   4.266   0.627   2.396  0.0898  2.0469 -0.8548
17477TIP3   OH273921   3.215   4.977   1.996  0.2725  0.0897  0.3789
17477TIP3    H173922   3.179   5.013   2.077 -0.0011  0.3303  0.1502
17477TIP3    H273923   3.145   4.922   1.961 -0.1104  1.0499 -0.3908
17478TIP3   OH273924   4.405   0.766  11.173 -0.2830  0.6176  0.3286
17478TIP3    H173925   4.433   0.707  11.103 -0.8312  0.1317  0.5240
17478TIP3    H273926   4.433   0.853  11.143  2.1841  0.0539  0.8753
17479TIP3   OH273927   2.901   3.864   0.136  0.3097  0.3938  0.1581
17479TIP3    H173928   2.811   3.863   0.103 -0.1186  1.6547  1.2632
17479TIP3    H273929   2.917   3.955   0.162  0.6358 -0.4946  3.3260
17480TIP3   OH273930   2.427   6.391  14.740 -0.1331 -0.0231  0.1368
17480TIP3    H173931   2.420   6.405  14.645  2.6047 -1.0151 -0.2570
17480TIP3    H273932   2.408   6.477  14.778 -0.1627  0.6451 -1.3617
17481TIP3   OH273933   5.415   1.999   2.828 -0.4999  0.2981 -0.3569
17481TIP3    H173934   5.365   1.931   2.875  1.3147 -1.2934 -0.6867
17481TIP3    H273935   5.506   1.970   2.833  0.1731  2.1145 -1.5464
17482TIP3   OH273936   0.672   2.179  13.311  0.6052 -0.3241  0.1573
17482TIP3    H173937   0.746   2.187  13.371  0.7684  1.4933 -0.2465
17482TIP3    H273938   0.685   2.095  13.267  1.2958 -0.9730  1.5714
17483TIP3   OH273939   1.626   6.682   5.042 -0.0082  0.1496  0.2679
17483TIP3    H173940   1.612   6.669   5.136 -0.4559  0.7654  0.2935
17483TIP3    H273941   1.538   6.679   5.005  0.3114 -1.9310 -0.3830
17484TIP3   OH273942   0.025   2.443   1.551 -0.5446 -1.2252  1.4286
17484TIP3    H173943   0.004   2.373   1.612  0.2794 -2.4219  0.3412
17484TIP3    H273944   0.087   2.405   1.489 -2.2312 -0.3806 -0.8498
17485TIP3   OH273945   5.160   3.482   6.272 -0.2590  0.3357  0.1378
17485TIP3    H173946   5.067   3.497   6.287 -0.4409 -0.9103  0.3231
17485TIP3    H273947   5.185   3.419   6.339  0.5298  0.0561 -0.4163
17486TIP3   OH273948   1.365   5.151  16.607  0.2237 -0.0509 -0.3855
17486TIP3    H173949   1.384   5.073  16.553  0.0621 -0.9159  0.7862
17486TIP3    H273950   1.270   5.157  16.607  0.1976 -0.3502  0.1891
17487TIP3   OH273951   1.580   3.401  11.235  0.3595 -0.5455  0.2399
17487TIP3    H173952   1.620   3.465  11.294  1.8090  0.5226 -1.8290
17487TIP3    H273953   1.637   3.325  11.241  0.5309 -0.4225  0.1809
17488TIP3   OH273954   0.860   3.229  15.275 -0.4599  0.1172 -0.1432
17488TIP3    H173955   0.944   3.193  15.248 -0.0765  0.9924 -0.1368
17488TIP3    H273956   0.807   3.229  15.196 -0.1583  0.3788 -0.3477
17489TIP3   OH273957   1.573   6.427   4.666  0.0886  0.0290  0.3206
17489TIP3    H173958   1.606   6.516   4.654  1.4407 -0.9320 -4.5403
17489TIP3    H273959   1.491   6.425   4.617  2.0490 -2.2923 -3.1704
17490TIP3   OH273960   4.251   2.728  15.059  0.0231  0.5360  0.2930
17490TIP3    H173961   4.192   2.787  15.011 -0.5389 -0.0204  0.2847
17490TIP3    H273962   4.193   2.660  15.095  0.2368  1.7303  3.0025
17491TIP3   OH273963   6.759   1.699  16.308 -0.1839  0.8542 -0.0503
17491TIP3    H173964   6.766   1.744  16.391 -0.7462  0.7990  0.0304
17491TIP3    H273965   6.682   1.642  16.317 -1.1344  1.9230 -1.1028
17492TIP3   OH273966   6.537   4.307   5.754 -0.0159  0.0093  0.3394
17492TIP3    H173967   6.473   4.344   5.694  0.2377 -1.0461 -0.5837
17492TIP3    H273968   6.614   4.364   5.746  0.1111 -0.2821 -0.5389
17493TIP3   OH273969   6.067   5.604   2.152 -0.0928 -0.3166  0.2892
17493TIP3    H173970   6.090   5.692   2.181 -2.3884  0.4270 -0.1040
17493TIP3    H273971   6.033   5.560   2.230  0.6586 -0.7568  0.3860
17494TIP3   OH273972   5.638   3.480  13.590  0.0048 -0.1466 -0.4644
17494TIP3    H173973   5.637   3.483  13.686  0.2130 -2.6564 -0.3516
17494TIP3    H273974   5.559   3.526  13.564 -0.6882 -0.4952  0.9564
17495TIP3   OH273975   3.259   4.220  12.081  0.6330  0.7708 -0.3113
17495TIP3    H173976   3.318   4.214  12.006 -1.0149 -1.1781 -1.4897
17495TIP3    H273977   3.287   4.149  12.139  0.4897  0.8909 -0.0965
17496TIP3   OH273978   6.493   6.712  12.071  0.0383  0.7477 -0.3081
17496TIP3    H173979   6.472   6.803  12.052 -0.1895  1.1962  1.8936
17496TIP3    H273980   6.588   6.708  12.071  0.0501  1.0494 -0.1576
17497TIP3   OH273981   4.873   6.057   1.240 -0.6041 -0.4157  0.0211
17497TIP3    H173982   4.878   6.059   1.145  1.6119  0.1140  0.1109
17497TIP3    H273983   4.896   5.968   1.264  0.9766  0.0075  0.1297
17498TIP3   OH273984   3.715   0.228   1.274  0.0750  0.5713  0.3158
17498TIP3    H173985   3.694   0.142   1.238  2.6580 -0.4754  1.2149
17498TIP3    H273986   3.725   0.285   1.198 -2.2825  0.2675 -0.2615
17499TIP3   OH273987   1.945   6.476   4.927  0.1752 -0.1101 -0.4231
17499TIP3    H173988   2.006   6.434   4.986  0.5845 -0.8684 -1.3718
17499TIP3    H273989   1.859   6.454   4.961  0.3548 -2.5313 -1.4331
17500TIP3   OH273990   5.916   3.921  13.126  1.1786  0.2118  0.0301
17500TIP3    H173991   5.833   3.903  13.170  1.0198  1.4437  0.2636
17500TIP3    H273992   5.912   4.015  13.106  1.6723 -0.1161 -1.7228
17501TIP3   OH273993   4.948   4.668   5.476  0.2708 -0.2863  0.1117
17501TIP3    H173994   4.864   4.631   5.449  0.2167 -1.3247  1.6760
17501TIP3    H273995   4.984   4.605   5.538  1.5920  0.8041  0.4849
17502TIP3   OH273996   2.182   1.342  12.219  0.2732  0.4934  0.1328
17502TIP3    H173997   2.153   1.251  12.213 -0.2979  0.6782  0.1548
17502TIP3    H273998   2.265   1.337  12.268  0.5659 -0.0780 -0.4122
17503TIP3   OH273999   5.362   1.032  14.284  0.0028 -0.1629  0.0511
17503TIP3    H174000   5.437   0.972  14.286  1.1343  1.2475  0.8491
17503TIP3    H274001   5.351   1.060  14.374 -0.8435  0.4199 -0.2321
17504TIP3   OH274002   1.162   2.467  16.743 -0.2959  0.3640 -0.2943
17504TIP3    H174003   1.076   2.425  16.745 -0.1558  0.0897  0.7070
17504TIP3    H274004   1.180   2.489  16.835  0.8889  0.0192 -0.4302
17505TIP3   OH274005   4.346   2.021  14.943 -0.4559 -0.3181 -0.4915
17505TIP3    H174006   4.256   2.042  14.967  0.0269  0.6849  0.4912
17505TIP3    H274007   4.384   2.105  14.915 -0.4545 -1.1252 -3.0317
17506TIP3   OH274008   1.741   3.990   3.854 -0.0330 -0.2311  0.1032
17506TIP3    H174009   1.757   4.063   3.795 -1.8369  0.9780  1.0571
17506TIP3    H274010   1.822   3.940   3.854  1.0584  1.5097 -0.9321
17507TIP3   OH274011   0.031   3.683  16.316 -0.3924 -0.6079 -0.9438
17507TIP3    H174012  -0.020   3.641  16.247  1.0780 -2.5734 -0.8684
17507TIP3    H274013  -0.015   3.662  16.397  0.7809 -2.8529 -0.8161
17508TIP3   OH274014   3.888   1.345  16.421  0.0393 -0.3230 -0.0416
17508TIP3    H174015   3.863   1.365  16.330  1.5436  2.2368  0.0377
17508TIP3    H274016   3.972   1.300  16.413 -0.6721 -1.6584  0.0160
17509TIP3   OH274017   0.418   6.420   0.349  0.6338  0.5187  0.2740
17509TIP3    H174018   0.416   6.502   0.298 -2.6438  0.5979  0.4373
17509TIP3    H274019   0.446   6.448   0.436  2.9549  0.9033 -0.5602
17510TIP3   OH274020   3.829   6.608   2.205 -0.1196 -0.4367  0.0063
17510TIP3    H174021   3.843   6.702   2.194 -0.9382 -0.1703  1.1984
17510TIP3    H274022   3.750   6.602   2.257  1.6933 -1.7320  2.7121
17511TIP3   OH274023   5.610   4.610   3.785 -0.1414  0.0145 -0.4057
17511TIP3    H174024   5.548   4.682   3.795  0.1492  0.1473  0.4820
17511TIP3    H274025   5.615   4.596   3.690 -1.1528  0.3196 -0.5082
17512TIP3   OH274026   6.181   4.270   4.799 -0.1063 -0.4694 -0.6601
17512TIP3    H174027   6.154   4.181   4.821  1.3445 -0.6917  0.2851
17512TIP3    H274028   6.216   4.306   4.881  1.1976  0.2585 -1.5198
17513TIP3   OH274029   3.394   6.076  12.663 -0.0087 -0.1868  0.3404
17513TIP3    H174030   3.362   6.162  12.634 -1.3203 -1.2919 -1.6116
17513TIP3    H274031   3.489   6.081  12.655  0.0845  1.8391  2.4158
17514TIP3   OH274032   1.569   6.407   0.048 -0.3495  0.2860 -0.0971
17514TIP3    H174033   1.486   6.393   0.094 -0.3456 -0.4642 -0.3155
17514TIP3    H274034   1.624   6.454   0.111  0.2538 -2.2164  1.3289
17515TIP3   OH274035   0.569   2.234  12.442  0.2234  0.6637 -0.2179
17515TIP3    H174036   0.613   2.187  12.513 -2.9343 -1.4700  0.4071
17515TIP3    H274037   0.580   2.177  12.366  0.7023  1.3503 -0.6707
17516TIP3   OH274038   2.543   6.693   1.643  0.2963  0.2189 -0.1729
17516TIP3    H174039   2.630   6.704   1.605  0.0729  0.1048 -0.7164
17516TIP3    H274040   2.486   6.745   1.588 -0.1413 -0.5201 -0.4308
17517TIP3   OH274041   6.621   1.070  11.534  0.1349  0.5670 -0.0979
17517TIP3    H174042   6.682   1.049  11.463 -0.0274  0.0750 -0.0949
17517TIP3    H274043   6.662   1.142  11.581 -1.1389  2.9362 -2.4653
17518TIP3   OH274044   2.061   0.849   3.505  0.4667 -0.5683  0.1041
17518TIP3    H174045   2.124   0.880   3.570  2.0213 -0.3148 -1.4930
17518TIP3    H274046   2.101   0.871   3.421 -2.2647  0.5857 -0.9367
17519TIP3   OH274047   2.991   6.377  13.659 -0.4034 -0.3918  0.3704
17519TIP3    H174048   2.920   6.401  13.599  0.9042 -0.3090 -1.1606
17519TIP3    H274049   3.016   6.289  13.631  0.2660 -0.3234  0.7519
17520TIP3   OH274050   5.179   3.684   2.859  0.1879 -0.1216  0.0544
17520TIP3    H174051   5.117   3.656   2.791  3.4862  0.0359 -3.1836
17520TIP3    H274052   5.167   3.778   2.864 -0.4495 -0.2000  0.1008
17521TIP3   OH274053   1.835   0.482   4.092  0.5334 -0.3366  0.6024
17521TIP3    H174054   1.901   0.550   4.102 -0.5603  0.6364  1.4411
17521TIP3    H274055   1.861   0.413   4.153  0.6953  0.1200  1.0574
17522TIP3   OH274056   0.063   1.591   2.080 -0.4078  0.0388  0.4253
17522TIP3    H174057  -0.009   1.570   2.140 -1.3950  0.5420 -0.5674
17522TIP3    H274058   0.081   1.509   2.035 -0.0842 -0.1880  0.9636
17523TIP3   OH274059   0.141   6.032   4.852 -0.4594  0.2545 -0.0628
17523TIP3    H174060   0.088   6.097   4.900  0.7767  2.3867 -1.4983
17523TIP3    H274061   0.111   6.041   4.761 -0.5110 -1.4653 -0.2209
17524TIP3   OH274062   5.115   2.503   2.432  0.7080 -0.3654  0.3039
17524TIP3    H174063   5.022   2.479   2.435  0.2351  0.8988 -2.0542
17524TIP3    H274064   5.157   2.432   2.384  0.9102 -0.8139  1.1473
17525TIP3   OH274065   0.207   4.870   1.864 -0.3706 -0.0267 -0.7622
17525TIP3    H174066   0.302   4.875   1.877 -0.3640 -1.3032 -0.2401
17525TIP3    H274067   0.183   4.956   1.829  0.5879  1.2711  1.6389
17526TIP3   OH274068   2.839   5.697   5.454  0.7830  0.5920  0.0792
17526TIP3    H174069   2.813   5.696   5.362  0.0981  0.2044  0.2754
17526TIP3    H274070   2.816   5.610   5.486 -0.0723  1.1245  0.9232
17527TIP3   OH274071   4.673   1.464  10.549 -0.7927  0.1389  0.1231
17527TIP3    H174072   4.694   1.378  10.511  0.3688  0.4305  0.0693
17527TIP3    H274073   4.593   1.491  10.504  0.2566  0.2264 -1.7272
17528TIP3   OH274074   6.777   0.439  13.959 -0.0539  0.2736 -0.3038
17528TIP3    H174075   6.784   0.534  13.964 -1.6799  0.4533 -1.0854
17528TIP3    H274076   6.690   0.419  13.992  0.1425 -0.9258 -0.4703
17529TIP3   OH274077   1.828   6.692   2.829 -0.2093  0.5393 -0.3233
17529TIP3    H174078   1.911   6.726   2.796  0.5509 -1.3475 -0.3946
17529TIP3    H274079   1.764   6.761   2.808  1.3516  2.1029 -0.0536
17530TIP3   OH274080   2.400   1.740  13.629 -0.5099 -0.2253 -0.7445
17530TIP3    H174081   2.441   1.733  13.543 -1.9356  0.0759 -1.4694
17530TIP3    H274082   2.418   1.829  13.658  2.6478 -1.2458  0.6988
17531TIP3   OH274083   1.324   3.972   0.386  0.4265 -0.1567  0.6909
17531TIP3    H174084   1.322   3.964   0.481 -1.0888 -0.3629  0.6582
17531TIP3    H274085   1.295   4.062   0.369 -0.6165 -0.5369  0.3899
17532TIP3   OH274086   2.674   6.736   2.686 -0.7800 -0.2090  0.2129
17532TIP3    H174087   2.759   6.702   2.657 -0.1349  0.5538  1.1737
17532TIP3    H274088   2.610   6.680   2.642  0.2351 -2.3253  1.3564
17533TIP3   OH274089   6.488   4.378   2.265 -0.1379  0.2292  0.4812
17533TIP3    H174090   6.475   4.473   2.270 -1.5652  0.0014  1.2865
17533TIP3    H274091   6.497   4.359   2.172 -0.0013  1.1377  0.3085
17534TIP3   OH274092   1.724   3.266  15.161  0.1931  0.1278  0.2287
17534TIP3    H174093   1.818   3.251  15.162  0.3200  0.7144 -1.3025
17534TIP3    H274094   1.715   3.361  15.151 -0.5626  0.1978  1.4842
17535TIP3   OH274095   1.180   0.897   4.992 -0.0902 -0.3915 -0.1741
17535TIP3    H174096   1.192   0.986   4.958  1.0335  0.5155  2.4757
17535TIP3    H274097   1.090   0.897   5.026  0.5847  0.4507  1.7168
17536TIP3   OH274098   2.928   1.122   1.017  0.2886  0.5184  0.0300
17536TIP3    H174099   3.017   1.154   1.011  0.6069 -0.4860 -0.7181
17536TIP3    H274100   2.883   1.160   0.942  0.1519  0.8063  0.2556
17537TIP3   OH274101   4.570   6.330   0.307  0.0491  0.5966 -0.0405
17537TIP3    H174102   4.555   6.244   0.346 -2.8268  0.8341 -0.4507
17537TIP3    H274103   4.647   6.318   0.251 -0.3412 -1.7479 -0.1386
17538TIP3   OH274104   3.871   0.595  15.285 -0.6129  0.1535  0.2682
17538TIP3    H174105   3.877   0.605  15.380 -1.7682  0.7762  0.2854
17538TIP3    H274106   3.955   0.557  15.260  1.2777  3.5457  1.0926
17539TIP3   OH274107   3.578   3.680  14.949 -0.4009  0.4445  0.4576
17539TIP3    H174108   3.665   3.680  14.990 -0.9976  1.1419  1.7577
17539TIP3    H274109   3.564   3.589  14.923  0.6361  0.2869  0.4101
17540TIP3   OH274110   1.938   6.530   6.398 -0.6904 -0.3733  0.6560
17540TIP3    H174111   2.020   6.480   6.395 -1.7320 -2.1354  0.6313
17540TIP3    H274112   1.905   6.515   6.487 -0.2985  1.4874  1.1286
17541TIP3   OH274113   4.411   0.943   0.693  0.0639 -0.2846 -0.3218
17541TIP3    H174114   4.444   0.974   0.778 -1.6081 -4.0213  1.8159
17541TIP3    H274115   4.318   0.968   0.693 -0.0493 -0.7143 -0.8645
17542TIP3   OH274116   5.062   2.251  16.846 -0.1117  0.0166  0.2873
17542TIP3    H174117   5.042   2.182  16.782  0.8239 -0.5844  0.6305
17542TIP3    H274118   4.999   2.237  16.916 -0.7999  0.3489 -0.2598
17543TIP3   OH274119   2.551   5.068  14.605  0.6140  0.4646  0.1863
17543TIP3    H174120   2.540   5.161  14.587 -0.1409  0.4327  0.4547
17543TIP3    H274121   2.616   5.064  14.676  0.5445  0.7900  0.2676
17544TIP3   OH274122   0.545   6.665   2.797 -0.3153 -0.6605 -0.0781
17544TIP3    H174123   0.637   6.690   2.787 -0.0074 -1.3860  0.8732
17544TIP3    H274124   0.548   6.573   2.825 -1.1689  0.4677  4.0228
17545TIP3   OH274125   0.636   0.514  11.936 -0.2249  0.3031 -0.0784
17545TIP3    H174126   0.655   0.586  11.995  0.0199 -0.3456  0.6346
17545TIP3    H274127   0.542   0.522  11.918 -0.3132  0.4528  0.4577
17546TIP3   OH274128   5.594   1.146   5.229 -0.7017  1.0524  0.2327
17546TIP3    H174129   5.681   1.119   5.201 -1.6355  0.6170 -2.4216
17546TIP3    H274130   5.573   1.222   5.174 -1.6529  1.7016  1.4492
17547TIP3   OH274131   5.225   0.213  15.409  0.3235 -0.5021  0.0809
17547TIP3    H174132   5.160   0.266  15.455 -2.0038 -1.5666 -1.8777
17547TIP3    H274133   5.290   0.277  15.378 -1.5648  1.0328 -0.8186
17548TIP3   OH274134   6.380   1.502  11.725  0.0983 -0.1716  0.4312
17548TIP3    H174135   6.289   1.527  11.739  0.2367  0.4437  0.2344
17548TIP3    H274136   6.378   1.443  11.650 -0.0638  0.3217  0.0514
17549TIP3   OH274137   1.412   6.125   6.131  0.0553 -0.0654  0.0594
17549TIP3    H174138   1.317   6.134   6.135  0.0988 -0.3301  2.4491
17549TIP3    H274139   1.430   6.106   6.039 -2.3253 -1.3981 -0.1768
17550TIP3   OH274140   3.352   2.373   6.334  0.1702 -0.2136 -0.3512
17550TIP3    H174141   3.378   2.388   6.244  1.9085 -2.5005 -0.2926
17550TIP3    H274142   3.428   2.400   6.386 -0.4694  0.2270  0.3698
17551TIP3   OH274143   0.415   1.015  16.450  0.5945 -0.3265 -0.0950
17551TIP3    H174144   0.399   1.095  16.501  0.1018 -1.0177  0.8500
17551TIP3    H274145   0.508   0.996  16.464  0.2625 -1.0258  1.3375
17552TIP3   OH274146   3.576   3.389  16.571 -0.6587  0.0088 -0.2562
17552TIP3    H174147   3.563   3.478  16.539 -0.2299 -0.0472 -0.5977
17552TIP3    H274148   3.550   3.333  16.498  1.0471 -0.1068 -0.7899
17553TIP3   OH274149   6.210   0.898   5.879  0.4040 -0.4287  0.6638
17553TIP3    H174150   6.212   0.811   5.838 -0.7744 -1.0877  1.9714
17553TIP3    H274151   6.125   0.934   5.854  0.7724  0.2388  0.3670
17554TIP3   OH274152   4.850   3.846   3.009 -0.6788  0.2558 -0.1535
17554TIP3    H174153   4.870   3.930   3.052  0.9613  1.0809 -2.4184
17554TIP3    H274154   4.865   3.863   2.916 -0.0246 -2.6551 -0.6143
17555TIP3   OH274155   1.339   2.461  11.701  0.0564  0.0259  0.0627
17555TIP3    H174156   1.271   2.426  11.643 -0.4216 -0.1754  0.7441
17555TIP3    H274157   1.419   2.458  11.648 -0.4028 -0.0402 -0.6307
17556TIP3   OH274158   5.160   1.076   0.780  0.3419  0.0562  0.3119
17556TIP3    H174159   5.232   1.072   0.717 -0.1534 -1.9240 -0.1473
17556TIP3    H274160   5.161   0.990   0.823 -0.9846  0.4568  1.1717
17557TIP3   OH274161   3.228   3.746  12.110  0.0783 -0.3653  0.3824
17557TIP3    H174162   3.266   3.674  12.060  1.3000  1.0504 -0.7689
17557TIP3    H274163   3.135   3.743  12.088  0.6586  0.5306 -2.4332
17558TIP3   OH274164   4.987   6.196  10.959  0.4325  0.2212 -0.4823
17558TIP3    H174165   5.073   6.237  10.948 -0.1313  1.0968 -1.9106
17558TIP3    H274166   4.933   6.237  10.890 -1.1251 -0.2791  0.4231
17559TIP3   OH274167   0.095   4.992   1.286 -0.1050  0.6431  0.2718
17559TIP3    H174168   0.075   4.900   1.267  2.1793  0.6096 -2.3235
17559TIP3    H274169   0.142   4.990   1.369 -2.2407 -0.2444  1.4967
17560TIP3   OH274170   5.595   0.256   3.933  0.3521  0.2567 -0.0934
17560TIP3    H174171   5.566   0.187   3.873  0.9780 -0.7405  0.7395
17560TIP3    H274172   5.617   0.210   4.014 -0.6453  1.6026  0.9744
17561TIP3   OH274173   4.136   2.138  13.488  0.3903  0.4879  0.7299
17561TIP3    H174174   4.109   2.060  13.537 -0.3521  0.8548  0.9109
17561TIP3    H274175   4.211   2.109  13.436 -1.3338 -0.9738 -1.0197
17562TIP3   OH274176   5.034   0.346  14.559 -0.3008  0.5328  0.5111
17562TIP3    H174177   4.978   0.370  14.633  0.4954  3.2775  0.2656
17562TIP3    H274178   4.975   0.301  14.498 -1.6538  1.0349  1.4217
17563TIP3   OH274179   6.784   2.463  15.906  0.0907 -0.0668  0.2100
17563TIP3    H174180   6.856   2.412  15.942  0.4063 -0.1744 -0.5679
17563TIP3    H274181   6.732   2.401  15.855  0.2294  0.2945 -0.3767
17564TIP3   OH274182   5.960   4.322  15.719 -0.9961 -0.3488  0.5815
17564TIP3    H174183   5.899   4.273  15.664  0.8381 -1.3798 -0.5938
17564TIP3    H274184   5.938   4.414  15.703 -2.0290 -0.7089 -0.0846
17565TIP3   OH274185   5.061   6.781  11.427  0.2135 -0.5376 -0.1938
17565TIP3    H174186   5.135   6.764  11.369 -0.6797  2.0590 -2.2138
17565TIP3    H274187   4.994   6.719  11.400  1.4618 -2.6669  1.4146
17566TIP3   OH274188   3.801   3.003  11.591  0.4545  0.0029 -0.4326
17566TIP3    H174189   3.743   2.956  11.650 -1.1637 -0.0032 -1.9987
17566TIP3    H274190   3.791   2.958  11.507 -0.3383  2.4886 -1.6996
17567TIP3   OH274191   3.576   4.797   3.106 -0.1206 -0.2049  0.2492
17567TIP3    H174192   3.522   4.832   3.178 -0.2859 -1.9633  0.9888
17567TIP3    H274193   3.515   4.789   3.032 -0.7996 -1.7895  0.9628
17568TIP3   OH274194   2.081   1.941   1.773 -0.1843  0.3888 -0.1826
17568TIP3    H174195   2.106   1.870   1.832  0.3946  1.6384  1.1080
17568TIP3    H274196   2.164   1.979   1.744 -0.5006  1.3725  0.1749
17569TIP3   OH274197   1.842   2.120  14.350  0.5700 -0.2472 -0.6678
17569TIP3    H174198   1.782   2.194  14.361  0.6376  0.1715 -2.8724
17569TIP3    H274199   1.801   2.067  14.282  0.4278 -2.3797  1.0119
17570TIP3   OH274200   1.462   2.028   1.444 -0.6574  0.0370  0.2491
17570TIP3    H174201   1.450   2.057   1.534 -0.7117 -0.3022  0.3504
17570TIP3    H274202   1.477   2.109   1.395 -1.8788  0.3387  0.3564
17571TIP3   OH274203   2.830   4.842  17.117  0.4124  0.0515  0.2782
17571TIP3    H174204   2.799   4.788  17.189 -1.1722  0.3624 -0.1526
17571TIP3    H274205   2.867   4.781  17.054 -0.5699 -0.4637  0.1927
17572TIP3   OH274206   4.652   3.841  11.039 -0.2110 -0.4516  0.3979
17572TIP3    H174207   4.684   3.753  11.019 -2.0919 -1.3086  0.9971
17572TIP3    H274208   4.695   3.898  10.975  1.5681 -1.6949  0.4485
17573TIP3   OH274209   5.286   6.513   1.768  0.2858 -0.0134  0.1778
17573TIP3    H174210   5.218   6.446   1.761  0.5377 -0.3698  1.0875
17573TIP3    H274211   5.367   6.468   1.744  0.0086  0.7832 -2.3684
17574TIP3   OH274212   1.118   6.332   0.605  0.3991  0.0973 -0.7355
17574TIP3    H174213   1.088   6.267   0.542  2.1095  0.0433 -1.5069
17574TIP3    H274214   1.096   6.295   0.690  2.0474 -1.8676 -1.1214
17575TIP3   OH274215   3.700   0.527   2.872 -0.1105  0.5221 -0.7286
17575TIP3    H174216   3.735   0.616   2.883 -0.2044  0.4869 -0.1422
17575TIP3    H274217   3.772   0.470   2.899 -0.3834  0.4372 -0.1766
17576TIP3   OH274218   6.266   4.339  11.525 -0.2029  0.8648 -0.4172
17576TIP3    H174219   6.307   4.408  11.575  1.7082 -1.1841  0.8977
17576TIP3    H274220   6.193   4.309  11.580  1.7770 -1.2536  1.1187
17577TIP3   OH274221   4.079   3.566   6.190  0.1065  0.5353 -0.0150
17577TIP3    H174222   4.092   3.552   6.096  1.5721  1.4331  0.0341
17577TIP3    H274223   4.114   3.653   6.206 -0.2692  0.4479  1.3528
17578TIP3   OH274224   0.336   3.679  11.771  0.0412  0.0020 -0.2091
17578TIP3    H174225   0.333   3.703  11.678  0.4416  1.1464  0.0778
17578TIP3    H274226   0.250   3.640  11.788 -0.7349  1.5323 -0.5881
17579TIP3   OH274227   4.322   2.514  12.148 -0.3985  0.6567  0.3159
17579TIP3    H174228   4.234   2.550  12.159 -0.7406 -0.5950  1.8372
17579TIP3    H274229   4.318   2.465  12.066 -1.0161  0.9420  0.1732
17580TIP3   OH274230   0.984   3.501  15.396 -0.1281  0.5163  0.0639
17580TIP3    H174231   1.040   3.578  15.410 -0.1737  0.5633 -0.0104
17580TIP3    H274232   0.973   3.497  15.301  0.8240 -0.2635 -0.0240
17581TIP3   OH274233   3.899   3.373  17.273 -0.4589 -0.5722  0.2338
17581TIP3    H174234   3.954   3.321  17.215 -1.7523 -1.9746  0.2182
17581TIP3    H274235   3.960   3.418  17.331  0.7596 -0.6480 -0.9729
17582TIP3   OH274236   4.620   3.795   2.710 -0.5172 -0.6708  0.2284
17582TIP3    H174237   4.672   3.850   2.651 -0.3308 -1.5626 -0.4396
17582TIP3    H274238   4.671   3.715   2.718 -0.8002 -0.7571  1.1933
17583TIP3   OH274239   0.495   1.883  10.888  1.0292  0.3267  0.0846
17583TIP3    H174240   0.403   1.905  10.881  0.8883  0.2644  1.5857
17583TIP3    H274241   0.498   1.788  10.873  0.9588  0.4591 -0.7933
17584TIP3   OH274242   0.296   2.742  16.834  0.7898 -0.0623 -1.0854
17584TIP3    H174243   0.282   2.816  16.893 -0.6053 -1.8703  0.9295
17584TIP3    H274244   0.390   2.725  16.841  0.7255  0.0625  0.2463
17585TIP3   OH274245   6.731   0.137  14.622  0.5341 -0.1137  0.1514
17585TIP3    H174246   6.792   0.207  14.600  1.2461 -0.8124 -0.1174
17585TIP3    H274247   6.780   0.080  14.682  0.1177 -0.6252  0.0152
17586TIP3   OH274248   5.063   5.664  14.149 -0.1792 -0.3624 -0.4487
17586TIP3    H174249   5.072   5.570  14.136 -0.4099 -0.4930  0.3249
17586TIP3    H274250   5.069   5.676  14.244  0.9004  0.5081 -0.6180
17587TIP3   OH274251   4.159   3.626   1.771  0.2261  0.1222 -0.1994
17587TIP3    H174252   4.178   3.715   1.742 -0.6354  0.2349 -0.4431
17587TIP3    H274253   4.087   3.637   1.833  0.4110 -0.3611  0.0991
17588TIP3   OH274254   0.490   4.686   1.065  0.6063  0.1990 -0.3735
17588TIP3    H174255   0.434   4.717   0.995  0.5251 -1.1155 -0.9091
17588TIP3    H274256   0.455   4.600   1.088  1.1980  0.2175  0.6354
17589TIP3   OH274257   0.329   5.307   0.785 -0.0028  0.0203 -0.3100
17589TIP3    H174258   0.270   5.286   0.858 -1.1569  1.3348 -0.8502
17589TIP3    H274259   0.409   5.258   0.805 -0.5158 -0.1223  1.5200
17590TIP3   OH274260   6.199   3.790   0.061  0.2069  0.0928  0.0691
17590TIP3    H174261   6.246   3.723   0.110  2.8319  1.7570 -0.0597
17590TIP3    H274262   6.247   3.871   0.079 -2.3542  1.8108 -0.4821
17591TIP3   OH274263   6.171   5.423   3.084  0.3500  0.3007 -0.0025
17591TIP3    H174264   6.129   5.494   3.132  0.2860  0.1578  0.1527
17591TIP3    H274265   6.144   5.344   3.130 -0.0488  0.1299 -0.5251
17592TIP3   OH274266   2.194   2.427  12.666 -0.1467  0.1813  0.8169
17592TIP3    H174267   2.256   2.472  12.608 -1.5015 -0.4296 -1.1699
17592TIP3    H274268   2.115   2.482  12.663 -0.3271 -0.0185  1.8598
17593TIP3   OH274269   0.613   5.067   3.760  0.0149 -0.0688 -0.6171
17593TIP3    H174270   0.665   5.056   3.681 -0.2546  0.8010 -0.9232
17593TIP3    H274271   0.537   5.117   3.732  0.3726  1.0530  0.3564
17594TIP3   OH274272   3.830   1.202   6.171 -0.6820  0.0092 -1.0157
17594TIP3    H174273   3.751   1.249   6.143 -0.8516 -0.0371 -0.6227
17594TIP3    H274274   3.895   1.223   6.104 -1.3256 -0.7852 -1.9015
17595TIP3   OH274275   1.273   6.230   3.399  0.2647 -0.7100  0.4820
17595TIP3    H174276   1.351   6.210   3.452  0.7400  1.5714  0.6820
17595TIP3    H274277   1.304   6.225   3.309  0.2009 -1.5379  0.4987
17596TIP3   OH274278   1.479   2.014   1.954  0.5669 -0.1813  0.5314
17596TIP3    H174279   1.449   2.042   2.041 -1.3754 -0.1728 -0.1206
17596TIP3    H274280   1.528   1.934   1.971 -0.8206 -0.8382  1.5210
17597TIP3   OH274281   5.167   6.408  14.870  0.0256 -0.4567 -0.1143
17597TIP3    H174282   5.098   6.375  14.813 -0.2646  0.8608 -0.5548
17597TIP3    H274283   5.186   6.496  14.837  2.0520 -0.8618 -0.1102
17598TIP3   OH274284   2.715   0.640  10.232 -0.0940 -0.1596 -0.1814
17598TIP3    H174285   2.674   0.718  10.270 -1.1271 -1.8663  2.2832
17598TIP3    H274286   2.802   0.637  10.271 -1.5707 -2.5784  3.1943
17599TIP3   OH274287   6.086   4.835  13.201  0.4299  0.0530 -0.2824
17599TIP3    H174288   6.114   4.762  13.256  1.5004  1.4168  1.0515
17599TIP3    H274289   5.991   4.831  13.203  0.4430  0.0974  1.7475
17600TIP3   OH274290   4.356   3.627   1.253  0.3578  0.4970  0.0178
17600TIP3    H174291   4.330   3.606   1.163 -0.7427 -0.2998  0.5059
17600TIP3    H274292   4.425   3.692   1.243  1.5097 -0.8995 -1.4712
17601TIP3   OH274293   3.063   5.746   3.862  0.4090  0.0373  0.7037
17601TIP3    H174294   3.061   5.659   3.901 -1.0095 -0.9413 -1.4228
17601TIP3    H274295   2.998   5.742   3.792  2.7832  1.7003 -1.7191
17602TIP3   OH274296   0.493   4.320   4.908 -0.1610  0.2824 -0.0458
17602TIP3    H174297   0.468   4.272   4.987 -1.3584 -0.2086 -0.7260
17602TIP3    H274298   0.466   4.264   4.836  1.7574  0.3111 -0.8251
17603TIP3   OH274299   4.165   5.547  14.788 -0.3596  0.0336 -0.0167
17603TIP3    H174300   4.215   5.473  14.753  1.0456  0.7484  0.4289
17603TIP3    H274301   4.101   5.567  14.721 -1.4849 -2.2756  0.3002
17604TIP3   OH274302   2.963   1.106  16.177 -0.7653  0.2854 -0.4181
17604TIP3    H174303   2.872   1.119  16.151 -0.4043  1.2323 -1.2836
17604TIP3    H274304   2.998   1.195  16.184  0.3434 -0.0945 -1.0299
17605TIP3   OH274305   5.194   4.039  14.371 -0.4323 -0.1313  0.0142
17605TIP3    H174306   5.237   4.125  14.370 -1.0227  0.2019  1.2779
17605TIP3    H274307   5.226   3.995  14.293  0.1884  1.0953 -0.4395
17606TIP3   OH274308   5.271   2.995  14.805  0.0292 -0.2489 -0.1157
17606TIP3    H174309   5.224   3.073  14.834  0.9113 -0.6060  2.4186
17606TIP3    H274310   5.202   2.932  14.784 -0.6756  0.2384  0.6846
17607TIP3   OH274311   1.727   4.516   0.094  0.1610 -0.7325  0.4879
17607TIP3    H174312   1.749   4.603   0.062 -0.4508  0.2640  2.7167
17607TIP3    H274313   1.777   4.507   0.175 -1.2113 -1.7168  1.2437
17608TIP3   OH274314   2.936   1.424   0.625  0.0242  0.3725  1.1198
17608TIP3    H174315   2.903   1.485   0.559 -0.1976 -0.7144  0.2203
17608TIP3    H274316   3.021   1.396   0.592 -1.0187 -1.8199  0.2087
17609TIP3   OH274317   4.594   4.294   1.943  0.2150 -0.1570  0.0782
17609TIP3    H174318   4.499   4.290   1.954 -0.0727  1.2540 -1.5981
17609TIP3    H274319   4.610   4.258   1.856  1.2402 -0.4542  0.3774
17610TIP3   OH274320   2.970   3.445   3.441  0.0724  0.3818 -0.2357
17610TIP3    H174321   2.883   3.475   3.466  0.1407 -0.5502  1.1975
17610TIP3    H274322   2.962   3.421   3.349 -0.8636  1.4586 -0.4469
17611TIP3   OH274323   5.449   5.676  15.267 -0.6868 -0.1848  0.0847
17611TIP3    H174324   5.411   5.736  15.203  0.1657  0.6037  0.3027
17611TIP3    H274325   5.535   5.654  15.232 -0.6420 -0.5828  0.4406
17612TIP3   OH274326   6.225   4.874  14.839  0.8058  0.3481 -0.7981
17612TIP3    H174327   6.214   4.939  14.769 -3.6263 -0.1490 -0.7382
17612TIP3    H274328   6.179   4.912  14.914 -0.4865 -2.0884 -0.2928
17613TIP3   OH274329   0.243   1.954  15.386 -0.0936  0.3655  0.3768
17613TIP3    H174330   0.244   1.886  15.318  0.2671  1.0318 -0.2897
17613TIP3    H274331   0.253   2.036  15.337 -1.4841  0.9700  1.0837
17614TIP3   OH274332   4.456   2.777  12.863 -0.1781 -0.2942  0.2361
17614TIP3    H174333   4.512   2.855  12.872 -1.0625  0.3103  0.5300
17614TIP3    H274334   4.420   2.783  12.775  0.0418 -0.5705  0.1268
17615TIP3   OH274335   2.817   3.379   3.868 -0.0691  0.3159  0.0635
17615TIP3    H174336   2.888   3.375   3.805 -0.8345  0.3570 -0.8131
17615TIP3    H274337   2.835   3.458   3.920  1.1290 -0.2940  0.6045
17616TIP3   OH274338   0.854   4.734  10.592  0.6018 -0.2124 -0.3650
17616TIP3    H174339   0.942   4.727  10.629  1.8279  0.9895 -2.9429
17616TIP3    H274340   0.861   4.805  10.528 -2.5442  0.6675  0.2041
17617TIP3   OH274341   1.105   4.009  12.803 -0.0197 -0.8265  0.2984
17617TIP3    H174342   1.147   4.039  12.884 -1.2249 -0.9380  0.9778
17617TIP3    H274343   1.033   4.071  12.789  0.8079 -0.1926 -1.2586
17618TIP3   OH274344   3.866   6.778  15.021 -0.1860 -0.1301  0.2218
17618TIP3    H174345   3.901   6.864  14.997  1.7476 -0.9078  0.1992
17618TIP3    H274346   3.838   6.739  14.938 -2.5954  1.0918  0.4024
17619TIP3   OH274347   1.058   3.203  13.408 -0.1849  0.2569  0.0973
17619TIP3    H174348   0.999   3.137  13.370  1.5022 -0.6768 -0.9482
17619TIP3    H274349   1.017   3.225  13.492 -1.8755 -0.5812 -0.4659
17620TIP3   OH274350   1.984   3.430  14.846  0.0815  0.3744 -0.4010
17620TIP3    H174351   1.893   3.407  14.827  0.0677 -0.2668  0.4436
17620TIP3    H274352   2.027   3.346  14.862  0.9680  0.6303 -1.4223
17621TIP3   OH274353   4.870   1.690  16.051 -0.5864 -0.5513  0.3045
17621TIP3    H174354   4.807   1.620  16.065  0.8050 -1.4788  2.1657
17621TIP3    H274355   4.953   1.654  16.082  0.1455  1.9389  1.3672
17622TIP3   OH274356   0.421   3.675  13.679  0.4565  0.1344  0.2539
17622TIP3    H174357   0.406   3.636  13.765 -0.3686 -0.1849 -0.0266
17622TIP3    H274358   0.456   3.762  13.698  1.6462 -0.4736  0.8889
17623TIP3   OH274359   1.503   1.172  14.290  0.3103  0.0719  0.1502
17623TIP3    H174360   1.505   1.092  14.237 -1.6160  0.3543 -0.3759
17623TIP3    H274361   1.484   1.242  14.228 -0.4529  0.6145  0.9846
17624TIP3   OH274362   1.945   6.107   2.253  0.1386  0.0737  0.6086
17624TIP3    H174363   2.007   6.174   2.282 -0.2218  0.5798  0.2093
17624TIP3    H274364   1.861   6.154   2.245 -0.3871 -0.6907  1.5428
17625TIP3   OH274365   2.010   0.039   3.810 -0.5028 -0.0328 -0.1676
17625TIP3    H174366   2.092   0.045   3.761 -0.1410  0.2509  0.4726
17625TIP3    H274367   1.949   0.095   3.763  0.1280  1.0284  0.2717
17626TIP3   OH274368   4.243   6.732  15.055  0.3844  0.4277 -0.4434
17626TIP3    H174369   4.192   6.808  15.026  0.8429  0.0313 -2.4023
17626TIP3    H274370   4.227   6.726  15.149 -1.6716  1.4179 -0.7106
17627TIP3   OH274371   2.763   6.660   4.647 -0.1432  0.2978 -0.1791
17627TIP3    H174372   2.833   6.725   4.656 -0.6930  0.5532  2.9187
17627TIP3    H274373   2.795   6.584   4.694 -0.9507 -0.4569 -0.8461
17628TIP3   OH274374   1.964   4.786  15.637 -0.0750  0.3463 -0.4788
17628TIP3    H174375   1.942   4.710  15.583  0.2509  0.2960 -0.5388
17628TIP3    H274376   1.889   4.796  15.695  0.7896 -1.2755  0.9299
17629TIP3   OH274377   1.990   5.064  13.644 -0.2897  0.2802 -0.2590
17629TIP3    H174378   1.971   4.986  13.697  1.5661  0.3146  0.4972
17629TIP3    H274379   1.904   5.095  13.617 -1.1390 -1.2636  0.5486
17630TIP3   OH274380   5.957   0.299   1.678  0.5295 -0.4838  0.1259
17630TIP3    H174381   5.986   0.352   1.753 -0.8116  0.0914  0.2414
17630TIP3    H274382   5.978   0.209   1.703  3.4097  0.0021 -0.3266
17631TIP3   OH274383   6.275   1.944   2.010 -0.9760 -0.0051  0.0231
17631TIP3    H174384   6.343   2.011   2.010 -1.5148  0.5539 -0.8287
17631TIP3    H274385   6.228   1.958   2.092 -0.6548  0.2063  0.1732
17632TIP3   OH274386   1.456   6.581  11.658  0.2701  0.5175 -0.0662
17632TIP3    H174387   1.478   6.527  11.582 -0.9243 -1.0899  0.7005
17632TIP3    H274388   1.369   6.616  11.637 -1.1468 -1.8666  1.5336
17633TIP3   OH274389   6.160   5.344   1.431  0.2483  0.2877 -0.3334
17633TIP3    H174390   6.190   5.254   1.436 -1.1267 -0.2034 -0.5405
17633TIP3    H274391   6.205   5.389   1.502 -0.2983 -0.9490  0.8175
17634TIP3   OH274392   0.347   5.780   0.393  0.1189 -0.0776 -0.1524
17634TIP3    H174393   0.402   5.710   0.429 -0.8364 -0.5835  0.3140
17634TIP3    H274394   0.299   5.815   0.468 -1.3608 -0.6716 -0.8126
17635TIP3   OH274395   4.694   0.021   6.068  0.3024  0.8755  0.4825
17635TIP3    H174396   4.770  -0.010   6.018 -0.7725 -1.1525  0.0417
17635TIP3    H274397   4.653   0.087   6.011  0.4687  0.3478 -0.2561
17636TIP3   OH274398   1.471   5.996   3.184  0.2345 -0.2206  0.7866
17636TIP3    H174399   1.517   5.989   3.101  1.2206  0.9284  1.2105
17636TIP3    H274400   1.530   6.048   3.239 -0.3885 -0.9994  2.2077
17637TIP3   OH274401   1.753   6.111   0.823 -0.2649  0.8161 -0.1815
17637TIP3    H174402   1.797   6.142   0.744  1.0508 -1.0316 -0.1934
17637TIP3    H274403   1.697   6.039   0.793 -1.1140  1.2668  0.3006
17638TIP3   OH274404   0.174   0.982  12.179  0.1545 -0.0851  0.4656
17638TIP3    H174405   0.199   0.899  12.139 -1.0347  0.5292 -1.6356
17638TIP3    H274406   0.085   0.969  12.210  0.0357  0.3421  0.3128
17639TIP3   OH274407   1.285   4.641   3.276  0.5095 -0.5707  0.4927
17639TIP3    H174408   1.234   4.562   3.292  0.8673 -0.6073  1.5083
17639TIP3    H274409   1.364   4.610   3.232  0.0088 -0.6008 -0.4055
17640TIP3   OH274410   4.881   2.603  12.216  0.4328  0.0514 -0.0456
17640TIP3    H174411   4.881   2.667  12.287  2.2950  0.6611 -0.5840
17640TIP3    H274412   4.968   2.564  12.217  0.0700 -0.8547 -1.1933
17641TIP3   OH274413   3.806   1.295  13.555  0.0358 -0.2984 -0.7042
17641TIP3    H174414   3.900   1.309  13.549 -0.1992  0.8022 -1.8391
17641TIP3    H274415   3.767   1.375  13.521 -1.3045 -1.7219 -2.6543
17642TIP3   OH274416   1.772   6.119  16.433  0.0188  0.6686  0.4434
17642TIP3    H174417   1.754   6.057  16.504  2.4409  1.7130  2.0418
17642TIP3    H274418   1.713   6.092  16.362  0.2673 -2.8191  1.4530
17643TIP3   OH274419   1.113   5.537   0.906  0.1880  0.1756  0.7393
17643TIP3    H174420   1.128   5.443   0.895  2.3612  0.6691 -0.9111
17643TIP3    H274421   1.199   5.577   0.894 -1.0232  2.5397 -0.4834
17644TIP3   OH274422   5.137   0.449   0.466  0.5271  0.0511 -0.3836
17644TIP3    H174423   5.109   0.358   0.455 -0.2536  0.1963  0.3448
17644TIP3    H274424   5.215   0.457   0.411  1.0506 -1.2670  0.1467
17645TIP3   OH274425   2.366   3.259  11.228  0.0400  0.6823  0.5260
17645TIP3    H174426   2.296   3.322  11.211 -0.8020 -0.8182 -2.0786
17645TIP3    H274427   2.440   3.291  11.177  0.4014  0.8815  1.1800
17646TIP3   OH274428   5.951   4.019  16.223 -0.0693  0.4168 -0.2095
17646TIP3    H174429   5.926   4.043  16.134  1.3995  2.8617  0.0151
17646TIP3    H274430   6.017   3.950  16.211 -2.4261 -1.8334 -0.8808
17647TIP3   OH274431   0.963   2.972  17.126  0.4112  0.6965  0.7042
17647TIP3    H174432   0.904   2.990  17.199  0.4151 -0.3105  0.9658
17647TIP3    H274433   1.032   3.038  17.134  0.9797 -0.0552  2.2581
17648TIP3   OH274434   2.496   6.714   3.464 -0.4792  0.2437  0.0004
17648TIP3    H174435   2.555   6.690   3.393 -2.1970 -1.4124 -0.9325
17648TIP3    H274436   2.427   6.765   3.421 -0.9931  0.1013  0.6543
17649TIP3   OH274437   0.117   0.061  12.329 -0.2460 -0.4022 -0.4157
17649TIP3    H174438   0.154   0.078  12.242 -1.5837 -1.2297 -1.1611
17649TIP3    H274439   0.049   0.127  12.339  1.5294  1.2702  1.0551
17650TIP3   OH274440   4.699   4.479  13.205 -0.1569 -0.5009 -0.1251
17650TIP3    H174441   4.725   4.465  13.296 -0.0469 -1.5083 -0.2963
17650TIP3    H274442   4.721   4.570  13.187  1.0264 -0.6535  0.4665
17651TIP3   OH274443   6.147   5.157   4.788 -0.3775  0.4215  0.2681
17651TIP3    H174444   6.114   5.108   4.863 -1.8184  0.0521 -0.5862
17651TIP3    H274445   6.232   5.191   4.817 -0.7317 -0.0453  1.9130
17652TIP3   OH274446   4.219   3.187   0.738 -0.2264 -0.3890  0.3504
17652TIP3    H174447   4.273   3.227   0.807 -1.3387 -1.8405  2.1105
17652TIP3    H274448   4.277   3.124   0.696 -0.1887 -1.0829  1.4357
17653TIP3   OH274449   3.700   5.619  17.060 -0.4353  0.1668  0.0636
17653TIP3    H174450   3.655   5.703  17.061 -0.5447  0.1081  0.0853
17653TIP3    H274451   3.631   5.554  17.075 -0.3334  0.0813  0.1683
17654TIP3   OH274452   0.547   6.620  13.902 -0.1951 -0.1883 -0.0315
17654TIP3    H174453   0.567   6.526  13.900 -0.2695 -0.1834 -1.5649
17654TIP3    H274454   0.632   6.662  13.889  0.0853  0.0201  2.1633
17655TIP3   OH274455   3.182   1.994  12.741 -0.0999 -0.1952  0.4950
17655TIP3    H174456   3.152   2.085  12.743 -1.5376 -0.6675  1.6097
17655TIP3    H274457   3.194   1.971  12.834  0.3355 -1.1120  0.2211
17656TIP3   OH274458   3.336   4.481  15.449 -0.5568 -0.1058 -0.2709
17656TIP3    H174459   3.246   4.454  15.429 -0.6189 -0.5034  0.5521
17656TIP3    H274460   3.330   4.574  15.466 -1.3612 -0.7157  3.0075
17657TIP3   OH274461   0.780   1.484   3.797 -0.1628 -0.4798 -0.1285
17657TIP3    H174462   0.845   1.459   3.732  0.3891  0.2182  0.1461
17657TIP3    H274463   0.792   1.421   3.868 -0.1973 -0.7248 -0.3405
17658TIP3   OH274464   6.546   3.279  14.118  0.3607  0.0135  0.1500
17658TIP3    H174465   6.592   3.302  14.038  0.2955  0.2542  0.1823
17658TIP3    H274466   6.503   3.196  14.098 -0.1274  0.3635 -0.2510
17659TIP3   OH274467   2.437   0.868   1.058 -0.4762  0.0394 -0.0772
17659TIP3    H174468   2.501   0.807   1.093 -1.3246 -1.4778 -1.0867
17659TIP3    H274469   2.403   0.914   1.134  0.8537 -0.0822  0.5977
17660TIP3   OH274470   2.625   1.165   1.502 -0.1930  0.2003 -0.1219
17660TIP3    H174471   2.553   1.214   1.464 -0.9357  0.6725  1.8434
17660TIP3    H274472   2.681   1.144   1.427 -1.8981  0.5759 -1.5475
17661TIP3   OH274473   3.948   2.912   3.055 -0.0881 -0.0062  0.0613
17661TIP3    H174474   4.024   2.862   3.083 -0.7075 -1.3419 -0.5752
17661TIP3    H274475   3.983   2.997   3.029  1.2948 -0.8734 -0.9808
17662TIP3   OH274476   0.906   2.772   2.857 -0.2174  0.2649 -0.3936
17662TIP3    H174477   0.847   2.812   2.793 -1.3454 -0.8172 -0.0713
17662TIP3    H274478   0.895   2.825   2.936 -0.6594  0.1683 -0.3848
17663TIP3   OH274479   1.789   0.382  14.131 -0.2045 -0.3750 -0.4717
17663TIP3    H174480   1.777   0.446  14.061 -0.6629  0.4940  0.3861
17663TIP3    H274481   1.753   0.425  14.209  1.1053 -0.9692  0.4832
17664TIP3   OH274482   6.801   1.081  11.311  0.4032  0.5903 -0.2182
17664TIP3    H174483   6.875   1.138  11.292 -1.4634  2.1379 -3.1883
17664TIP3    H274484   6.731   1.111  11.253 -2.5002 -0.9938  2.2905
17665TIP3   OH274485   2.134   1.990  13.835 -0.0323 -0.0499  0.7559
17665TIP3    H174486   2.067   2.057  13.844  1.4746  1.5165  0.5679
17665TIP3    H274487   2.086   1.907  13.843 -1.9015  1.0277  1.0803
17666TIP3   OH274488   0.450   2.519   0.978  0.1665  0.2170  0.1007
17666TIP3    H174489   0.357   2.540   0.968  1.0344  3.2127 -2.6176
17666TIP3    H274490   0.466   2.453   0.911 -0.0391 -0.3976  0.6592
17667TIP3   OH274491   0.605   0.173   1.833 -0.0916 -0.4572  0.1818
17667TIP3    H174492   0.639   0.191   1.921 -1.7131 -0.5411  0.8428
17667TIP3    H274493   0.599   0.260   1.793 -0.5695 -0.2764  0.6266
17668TIP3   OH274494   2.321   5.183  15.576 -0.0296  0.4607 -0.0560
17668TIP3    H174495   2.234   5.223  15.568 -0.4673 -0.4703  0.0168
17668TIP3    H274496   2.312   5.097  15.536  0.1773 -0.6430  2.1712
17669TIP3   OH274497   6.653   3.087  15.208 -0.3945 -0.1452  0.3914
17669TIP3    H174498   6.603   3.130  15.276 -0.8956  0.3819 -0.3002
17669TIP3    H274499   6.708   3.156  15.171 -0.0817 -0.4385  0.2971
17670TIP3   OH274500   2.079   4.169   1.733 -0.3810  0.3115  0.5525
17670TIP3    H174501   2.161   4.203   1.767 -0.3646  0.7552  0.0681
17670TIP3    H274502   2.058   4.095   1.790  1.1546 -0.7788 -0.2724
17671TIP3   OH274503   2.159   0.063  12.018  0.4934 -0.1493  0.7105
17671TIP3    H174504   2.165   0.100  11.930  0.8835  0.5173  1.0096
17671TIP3    H274505   2.065   0.059  12.036  0.4541  2.4964  1.3869
17672TIP3   OH274506   1.743   1.957  11.947 -0.2105  0.1205  0.4647
17672TIP3    H174507   1.718   1.976  11.857  2.7508  0.5625 -0.3214
17672TIP3    H274508   1.776   1.867  11.944  1.4734  0.7127  0.7325
17673TIP3   OH274509   4.195   6.802   6.779  0.6382 -0.2890  0.0957
17673TIP3    H174510   4.265   6.792   6.714  0.0902  1.0704 -0.7230
17673TIP3    H274511   4.191   6.896   6.795 -1.0217 -0.3618  0.1228
17674TIP3   OH274512   3.933   5.529  12.391 -0.0505 -0.2045  0.1201
17674TIP3    H174513   3.844   5.566  12.391 -0.0892 -0.2748 -0.7756
17674TIP3    H274514   3.920   5.439  12.359  0.4706  0.1269 -1.0510
17675TIP3   OH274515   1.709   1.652  15.078  0.4358 -0.0460 -0.0118
17675TIP3    H174516   1.704   1.696  14.993 -0.2634  0.3860  0.2472
17675TIP3    H274517   1.690   1.561  15.059  0.6115 -0.0106 -0.3703
17676TIP3   OH274518   0.968   0.001   4.095 -0.3540  0.5250 -0.1931
17676TIP3    H174519   1.014  -0.064   4.148  1.2216  0.6600 -1.3588
17676TIP3    H274520   0.930   0.062   4.158  1.3300  0.5750  0.7902
17677TIP3   OH274521   2.146   0.192   1.068  0.0528  0.4038 -0.5305
17677TIP3    H174522   2.217   0.248   1.100  0.6969 -0.8572  0.3009
17677TIP3    H274523   2.113   0.238   0.990  1.0258  1.5750 -0.2804
17678TIP3   OH274524   2.702   4.142  11.335  0.5152  0.3345 -0.2783
17678TIP3    H174525   2.742   4.224  11.308  0.6607  0.3558  0.0032
17678TIP3    H274526   2.716   4.138  11.429 -0.7940  0.6958 -0.0574
17679TIP3   OH274527   5.159   5.490   5.831 -0.0226 -0.1774 -0.4983
17679TIP3    H174528   5.156   5.445   5.747 -2.0221  0.4194 -0.7644
17679TIP3    H274529   5.087   5.452   5.882 -0.5492  1.3842 -0.0458
17680TIP3   OH274530   4.273   3.947   3.749 -0.3422 -0.6125  0.2171
17680TIP3    H174531   4.221   3.931   3.828  0.0006 -0.5259  0.4631
17680TIP3    H274532   4.240   3.884   3.685 -2.4567  1.0784 -0.4189
17681TIP3   OH274533   0.890   2.840   4.680 -0.0351  0.4392 -0.0970
17681TIP3    H174534   0.860   2.839   4.589  0.2264  1.9991 -0.2122
17681TIP3    H274535   0.934   2.756   4.691 -1.9360 -0.6886 -0.7634
17682TIP3   OH274536   2.066   1.408  15.080  0.0215  0.2754 -0.3848
17682TIP3    H174537   2.115   1.384  15.158 -0.8586 -1.9197 -0.4646
17682TIP3    H274538   2.037   1.498  15.095  2.4773  0.9465  0.4540
17683TIP3   OH274539   1.619   1.135   1.590 -0.3428  0.3014  0.1315
17683TIP3    H174540   1.567   1.070   1.638  0.2759  0.7261  1.3817
17683TIP3    H274541   1.645   1.199   1.655  0.3203  1.0127 -0.8120
17684TIP3   OH274542   5.536   1.831   0.173  0.1318  0.6443  0.2075
17684TIP3    H174543   5.602   1.829   0.103 -1.6041 -1.3489 -1.4398
17684TIP3    H274544   5.456   1.861   0.129 -1.2062 -1.4922  1.0893
17685TIP3   OH274545   0.013   3.315  12.299 -0.1409  0.8230 -0.3447
17685TIP3    H174546   0.035   3.235  12.252 -0.5400  0.4373  0.1243
17685TIP3    H274547  -0.082   3.311  12.312  0.0295  0.6666  0.9456
17686TIP3   OH274548   6.048   3.857   0.397 -0.0889 -0.3037 -0.4729
17686TIP3    H174549   6.064   3.948   0.370  0.7061 -0.5343 -0.8089
17686TIP3    H274550   5.961   3.837   0.363 -0.0900  0.1947 -0.7754
17687TIP3   OH274551   4.133   1.807  11.646  0.0496  0.3020 -0.3052
17687TIP3    H174552   4.154   1.755  11.567 -2.6661 -1.6748  0.1975
17687TIP3    H274553   4.194   1.774  11.712  1.4173  1.0017 -1.1824
17688TIP3   OH274554   1.249   1.589  12.420 -0.2375  0.2801 -0.2042
17688TIP3    H174555   1.187   1.521  12.446 -0.4098  0.2824 -0.5958
17688TIP3    H274556   1.194   1.658  12.383 -0.0598  0.6339  0.2063
17689TIP3   OH274557   3.022   6.237   6.815 -0.0208 -0.1947  0.3880
17689TIP3    H174558   3.039   6.179   6.741 -1.6661  1.5931 -1.4513
17689TIP3    H274559   2.972   6.184   6.876  0.1196 -1.2743 -0.4187
17690TIP3   OH274560   5.130   1.367  11.503  0.1276  0.4072 -0.1892
17690TIP3    H174561   5.152   1.328  11.587 -0.4288  1.1674  0.3136
17690TIP3    H274562   5.192   1.328  11.441  1.7584  1.2324  0.9025
17691TIP3   OH274563   4.996   4.896   1.159  0.1792  0.9527  0.6000
17691TIP3    H174564   5.015   4.916   1.067 -3.8615  0.6395 -0.4072
17691TIP3    H274565   5.004   4.801   1.165 -1.3828  0.7766  0.0733
17692TIP3   OH274566   0.440   1.147   3.196 -0.4032 -0.3115  0.6087
17692TIP3    H174567   0.470   1.238   3.205  1.2961 -0.7654 -0.1531
17692TIP3    H274568   0.422   1.137   3.103  0.4997 -1.0702  0.5118
17693TIP3   OH274569   5.917   3.069   0.684 -0.0619  0.1198  0.6225
17693TIP3    H174570   5.917   3.029   0.597  2.5303  0.0662  0.6130
17693TIP3    H274571   5.928   3.162   0.667 -3.3485  0.6129  0.7778
17694TIP3   OH274572   6.118   6.745  14.150  0.2056  0.3160 -0.3827
17694TIP3    H174573   6.180   6.690  14.199  0.0570 -1.0045 -1.6540
17694TIP3    H274574   6.038   6.743  14.202  0.5339  0.2269  0.1303
17695TIP3   OH274575   4.952   6.290  14.656 -0.3141 -0.3077 -0.0538
17695TIP3    H174576   4.986   6.339  14.581  1.3133  0.3786  1.0932
17695TIP3    H274577   4.859   6.312  14.660  0.0573  1.3885 -0.5579
17696TIP3   OH274578   3.652   4.526  10.871 -0.1286 -0.5428 -0.4010
17696TIP3    H174579   3.696   4.446  10.900  0.9336 -0.3936 -1.5418
17696TIP3    H274580   3.559   4.506  10.879  0.1376 -0.9366  1.8801
17697TIP3   OH274581   3.827   3.569   3.428  0.0203  0.1357  0.0039
17697TIP3    H174582   3.763   3.640   3.432  0.3937  0.4897 -0.2855
17697TIP3    H274583   3.784   3.502   3.374 -0.9504 -0.5045  1.5411
17698TIP3   OH274584   0.575   0.722  10.007  0.2281  0.2534 -0.2141
17698TIP3    H174585   0.541   0.743  10.094 -0.7268  0.3972 -0.6233
17698TIP3    H274586   0.548   0.632   9.990  0.2551  0.2860 -0.4386
17699TIP3   OH274587   4.247   1.712   2.087  0.0193 -0.0284 -0.0653
17699TIP3    H174588   4.209   1.625   2.072  1.4629 -0.6056 -0.3904
17699TIP3    H274589   4.175   1.772   2.070 -0.5988 -1.0850 -1.2566
17700TIP3   OH274590   2.676   4.207   1.809  0.0252 -0.1840 -0.2195
17700TIP3    H174591   2.636   4.278   1.759 -1.3437 -2.3056 -2.2832
17700TIP3    H274592   2.712   4.149   1.742  1.2629 -1.3590  1.4199
17701TIP3   OH274593   3.134   1.660  14.484  0.4645  0.5095  0.2555
17701TIP3    H174594   3.168   1.658  14.394  2.8005  0.4191  1.1108
17701TIP3    H274595   3.141   1.752  14.509 -0.0162  0.5032  0.4112
17702TIP3   OH274596   2.434   5.126   5.410  0.5950  0.3514  0.0152
17702TIP3    H174597   2.338   5.125   5.407  0.5703 -0.9625  0.7476
17702TIP3    H274598   2.455   5.193   5.475  0.3031  3.2827 -2.7587
17703TIP3   OH274599   5.463   1.241  12.081  0.0448  0.1689 -0.2529
17703TIP3    H174600   5.526   1.229  12.152  0.0960 -0.6474 -0.4298
17703TIP3    H274601   5.438   1.333  12.086 -0.9848 -0.1967  1.6785
17704TIP3   OH274602   2.756   5.791  16.643  0.0612  0.4030  0.1778
17704TIP3    H174603   2.794   5.716  16.597 -0.0415  0.2962  0.2651
17704TIP3    H274604   2.693   5.751  16.704  0.1901  0.5440  0.4018
17705TIP3   OH274605   5.261   5.705  16.366  0.0438 -0.1682  0.0348
17705TIP3    H174606   5.240   5.789  16.408  1.4910  0.4611 -0.4706
17705TIP3    H274607   5.296   5.730  16.280  1.5074 -1.2549  0.3163
17706TIP3   OH274608   2.611   4.955  12.098 -0.3469 -0.6062 -0.0888
17706TIP3    H174609   2.665   4.879  12.077  0.7789  0.7139 -2.0859
17706TIP3    H274610   2.627   5.017  12.027 -5.2436 -0.5580 -1.3887
17707TIP3   OH274611   0.069   1.454   2.617  0.5370  0.1553  0.2768
17707TIP3    H174612   0.070   1.395   2.693  1.0166  0.4459  0.5008
17707TIP3    H274613   0.129   1.525   2.642  1.8469 -0.4964 -0.9726
17708TIP3   OH274614   3.710   6.289   5.129  0.1233 -0.3030  0.5538
17708TIP3    H174615   3.784   6.257   5.078  0.0320  0.1646  0.1278
17708TIP3    H274616   3.699   6.380   5.102 -0.0352 -0.1015  1.2819
17709TIP3   OH274617   2.218   0.582   5.870 -0.1266 -0.3279 -0.1869
17709TIP3    H174618   2.203   0.593   5.776  2.0879  0.1299 -0.4969
17709TIP3    H274619   2.285   0.646   5.892  0.1150 -1.1316  1.5099
17710TIP3   OH274620   3.022   2.033  14.324 -0.0835 -0.1298  0.2376
17710TIP3    H174621   2.994   2.118  14.358 -0.2875 -0.2484  0.3654
17710TIP3    H274622   2.943   1.995  14.287  0.2882  0.3009 -1.0133
17711TIP3   OH274623   6.020   5.670  12.565  0.0128  0.0465  0.2650
17711TIP3    H174624   6.100   5.681  12.513 -0.5853 -1.1945 -0.9257
17711TIP3    H274625   6.037   5.593  12.619 -0.0053  0.3670  0.7311
17712TIP3   OH274626   2.221   5.564   6.302  0.0863 -0.2610  0.7009
17712TIP3    H174627   2.182   5.612   6.375  0.7177 -0.9034  1.4556
17712TIP3    H274628   2.310   5.599   6.294 -1.1529  2.5324 -2.2012
17713TIP3   OH274629   5.812   3.558   1.054 -0.1035  0.7520 -0.3381
17713TIP3    H174630   5.906   3.540   1.047 -0.1557  0.1397  0.4420
17713TIP3    H274631   5.770   3.478   1.022 -0.3491  0.6694  0.1825
17714TIP3   OH274632   1.867   6.697   3.500  0.1872  0.4510 -0.1032
17714TIP3    H174633   1.873   6.711   3.406 -1.2863 -1.1245 -0.4688
17714TIP3    H274634   1.951   6.656   3.523  1.1030  2.0763 -0.4616
17715TIP3   OH274635   5.429   6.178  13.305  0.1705 -0.2650  0.1637
17715TIP3    H174636   5.349   6.142  13.267  0.4949 -0.7880 -0.0229
17715TIP3    H274637   5.472   6.103  13.347  0.6111 -0.0073  0.1760
17716TIP3   OH274638   5.067   0.305  15.754  0.1657 -0.0123 -0.5992
17716TIP3    H174639   4.973   0.309  15.737 -0.2066  0.3453  1.3140
17716TIP3    H274640   5.100   0.390  15.724 -0.4861  0.6650  0.5290
17717TIP3   OH274641   3.209   2.086  11.043 -0.5891  0.1770 -0.5230
17717TIP3    H174642   3.275   2.021  11.067 -0.4030  1.0421  1.3830
17717TIP3    H274643   3.173   2.054  10.961  1.3507 -0.9509 -0.9762
17718TIP3   OH274644   3.202   6.054  14.813 -0.1710 -0.0933 -0.7619
17718TIP3    H174645   3.143   6.129  14.811  1.0139  0.8938  0.5092
17718TIP3    H274646   3.150   5.982  14.778 -1.8922  0.9148 -0.3296
17719TIP3   OH274647   0.289   6.675  15.616  0.7086  0.1779 -0.4036
17719TIP3    H174648   0.361   6.619  15.646  0.9856  0.7427 -0.0156
17719TIP3    H274649   0.210   6.631  15.648  1.0473  1.4325  2.2798
17720TIP3   OH274650   5.586   3.786   2.890 -0.1754  0.6927 -0.2659
17720TIP3    H174651   5.541   3.773   2.806  0.3369 -1.1600 -0.2690
17720TIP3    H274652   5.638   3.866   2.877 -1.2220  1.2373 -1.2113
17721TIP3   OH274653   6.222   6.316  13.749  0.0859  0.0703 -0.0909
17721TIP3    H174654   6.267   6.370  13.683  0.4040 -2.0871 -1.7133
17721TIP3    H274655   6.130   6.316  13.720  0.2234 -0.8647 -0.5597
17722TIP3   OH274656   2.263   6.133  11.546 -0.1821 -0.0788 -0.3914
17722TIP3    H174657   2.221   6.204  11.594 -1.5197 -1.7193  0.9246
17722TIP3    H274658   2.329   6.176  11.492 -1.1677  2.1820  0.1601
17723TIP3   OH274659   2.975   1.513   0.200  0.2767  0.0685  0.1608
17723TIP3    H174660   2.974   1.480   0.289 -0.1807  1.1165  0.5564
17723TIP3    H274661   3.009   1.602   0.208 -1.9114  0.9905 -0.3950
17724TIP3   OH274662   3.433   4.027   2.446 -0.2001  0.0488  0.0940
17724TIP3    H174663   3.406   4.111   2.410 -0.7262  0.7076  1.9348
17724TIP3    H274664   3.353   3.991   2.485  0.1278 -1.0751 -0.2407
17725TIP3   OH274665   5.421   0.458   6.767 -0.3161 -0.1317 -0.0768
17725TIP3    H174666   5.482   0.458   6.840 -0.5535  0.5387  0.1218
17725TIP3    H274667   5.433   0.372   6.726  3.1279  1.1769 -2.0485
17726TIP3   OH274668   5.614   3.668   5.545  0.5277 -0.2121  0.0333
17726TIP3    H174669   5.563   3.746   5.565 -1.3965 -1.2324 -0.7431
17726TIP3    H274670   5.698   3.683   5.587 -0.2806  1.6794  1.0364
17727TIP3   OH274671   4.853   6.712  14.676  0.2148 -0.0908  0.4271
17727TIP3    H174672   4.855   6.694  14.770 -0.0118 -1.0611  0.2584
17727TIP3    H274673   4.931   6.764  14.659  0.3478 -0.0647  1.1240
17728TIP3   OH274674   5.816   4.161  16.422  0.4845  0.3368  0.3958
17728TIP3    H174675   5.790   4.235  16.366  1.2959  0.6268  0.3965
17728TIP3    H274676   5.871   4.107  16.366 -0.7382 -0.6961  0.1510
17729TIP3   OH274677   5.191   6.670  13.239  0.4579 -0.6458  0.1934
17729TIP3    H174678   5.253   6.613  13.194  0.8162  0.3556 -0.6268
17729TIP3    H274679   5.246   6.729  13.291  0.0649 -1.4207  1.4972
17730TIP3   OH274680   2.481   3.436   2.449 -0.3481 -0.3983  0.7213
17730TIP3    H174681   2.464   3.392   2.532  0.1974 -0.7315  0.6557
17730TIP3    H274682   2.409   3.408   2.392 -0.0092 -1.1885  0.6819
17731TIP3   OH274683   2.253   4.521   4.142 -0.1711  0.5009  0.3030
17731TIP3    H174684   2.303   4.480   4.071  0.0876 -1.4382  1.5627
17731TIP3    H274685   2.214   4.599   4.102  0.3385 -0.3076 -1.8456
17732TIP3   OH274686   4.668   3.580   4.836  0.5236 -0.2762 -0.1363
17732TIP3    H174687   4.758   3.613   4.843  0.6741 -0.9500  1.3744
17732TIP3    H274688   4.615   3.650   4.875  0.1431  1.0610 -2.9376
17733TIP3   OH274689   1.561   0.593  12.109 -0.1268 -0.0662 -0.4674
17733TIP3    H174690   1.517   0.556  12.033  0.0369 -0.1504 -0.5230
17733TIP3    H274691   1.622   0.657  12.073 -1.0421  0.9061 -0.3136
17734TIP3   OH274692   0.737   4.344  15.434 -0.1602 -0.1909  0.3302
17734TIP3    H174693   0.819   4.391  15.415  0.4000 -0.2148  2.5622
17734TIP3    H274694   0.693   4.399  15.498 -0.6311 -1.5104  1.1531
17735TIP3   OH274695   1.729   6.678  15.821  0.1880 -0.2692  0.4835
17735TIP3    H174696   1.686   6.754  15.859 -0.8191 -1.4374  1.7634
17735TIP3    H274697   1.675   6.604  15.848  0.5652 -1.3512 -1.6020
17736TIP3   OH274698   4.023   2.612   6.422 -0.2206 -0.0091 -0.1200
17736TIP3    H174699   3.944   2.608   6.367 -0.1557  0.5794 -0.2671
17736TIP3    H274700   4.030   2.705   6.445  0.4877 -0.0429 -0.1971
17737TIP3   OH274701   3.192   0.317   6.213 -0.0346  0.0116 -0.2407
17737TIP3    H174702   3.204   0.404   6.252 -0.0627  0.1353 -0.5082
17737TIP3    H274703   3.141   0.268   6.278  0.7210 -0.0779  0.2975
17738TIP3   OH274704   6.455   5.007   6.707 -0.1502  0.1084  0.0912
17738TIP3    H174705   6.539   4.972   6.676 -1.3564 -1.4729 -1.4882
17738TIP3    H274706   6.432   5.075   6.645  1.1548  2.3164  1.9604
17739TIP3   OH274707   0.223   0.565  14.403 -0.3977  0.2420  0.0430
17739TIP3    H174708   0.261   0.564  14.491  0.1996 -1.5448 -0.2038
17739TIP3    H274709   0.268   0.494  14.357 -0.0575  1.7473 -2.0006
17740TIP3   OH274710   5.168   3.288   5.260 -0.3308  0.0821  0.0068
17740TIP3    H174711   5.237   3.253   5.204 -0.3996  0.2709 -0.1977
17740TIP3    H274712   5.214   3.313   5.340  0.2053  2.0929 -0.8832
17741TIP3   OH274713   3.401   2.575   1.377 -0.5441  0.0724  0.1696
17741TIP3    H174714   3.323   2.609   1.421 -1.0194  0.4805 -0.9618
17741TIP3    H274715   3.367   2.509   1.317  0.1028 -0.4988  0.4247
17742TIP3   OH274716   5.284   0.103  15.865  0.1726 -0.3222 -0.5340
17742TIP3    H174717   5.266   0.161  15.791 -0.9666 -0.0141 -0.0206
17742TIP3    H274718   5.373   0.072  15.849  0.9804  1.9010 -0.5986
17743TIP3   OH274719   0.705   1.702  11.550 -0.3205 -0.0222 -0.0561
17743TIP3    H174720   0.693   1.629  11.610  1.6034  0.8639  1.4531
17743TIP3    H274721   0.781   1.678  11.497 -0.0218  0.6068  0.0742
17744TIP3   OH274722   6.161   5.808   1.021 -0.1606 -1.0155 -0.0194
17744TIP3    H174723   6.149   5.878   1.084 -1.4685 -0.1557 -1.1982
17744TIP3    H274724   6.137   5.847   0.937  3.2740 -1.5995 -1.3408
17745TIP3   OH274725   4.225   6.644   0.611 -0.2797 -0.0254  0.1170
17745TIP3    H174726   4.291   6.697   0.655  0.2942 -0.6804  0.0674
17745TIP3    H274727   4.146   6.698   0.610  0.1748  0.6448  0.4500
17746TIP3   OH274728   4.033   4.262  15.246  0.6525  0.1257 -0.1643
17746TIP3    H174729   4.030   4.336  15.307 -0.4449 -0.1807  0.1682
17746TIP3    H274730   3.973   4.286  15.175 -0.8005 -1.0183  0.6330
17747TIP3   OH274731   0.174   4.637   2.593 -0.6493  0.5126  0.9403
17747TIP3    H174732   0.161   4.652   2.499 -0.6189 -1.1057  0.6629
17747TIP3    H274733   0.262   4.670   2.611  0.2160 -1.1711 -0.0692
17748TIP3   OH274734   3.434   0.343  11.186 -0.1812 -0.6053  0.0619
17748TIP3    H174735   3.480   0.263  11.158 -1.1644 -1.4359  0.7827
17748TIP3    H274736   3.421   0.392  11.105  2.6343  0.0310 -0.0869
17749TIP3   OH274737   0.029   1.002   5.631 -0.2162 -0.1532 -0.1379
17749TIP3    H174738   0.112   0.987   5.676 -0.3113  0.4834  0.2531
17749TIP3    H274739   0.016   1.096   5.634 -0.1430 -0.0764 -1.6661
17750TIP3   OH274740   1.276   4.237   2.079 -0.0548 -0.0606  0.7693
17750TIP3    H174741   1.277   4.172   2.149 -0.2622 -0.1526  0.6892
17750TIP3    H274742   1.341   4.302   2.105  0.5124 -0.5621  0.5952
17751TIP3   OH274743   0.729   5.529  16.976 -0.2188  0.7339  0.0497
17751TIP3    H174744   0.757   5.605  17.027 -0.6739  0.4226  0.7735
17751TIP3    H274745   0.643   5.553  16.943 -0.9285  0.0400  1.3574
17752TIP3   OH274746   2.936   4.444  11.588 -0.0108 -0.0968  0.1888
17752TIP3    H174747   2.971   4.515  11.641  1.8762 -1.6617  1.1041
17752TIP3    H274748   3.009   4.384  11.577 -0.2068  0.4093 -4.6619
17753TIP3   OH274749   5.207   0.174  12.938  0.3556  0.1754 -0.0601
17753TIP3    H174750   5.274   0.127  12.889 -0.6453 -2.1990  0.7752
17753TIP3    H274751   5.257   0.233  12.996  1.5930  0.8645 -1.7920
17754TIP3   OH274752   3.955   5.596  14.623  0.1287  0.5055 -0.0062
17754TIP3    H174753   3.900   5.525  14.655  0.1951  0.4483 -0.0182
17754TIP3    H274754   3.894   5.667  14.605 -0.4978 -0.9078 -3.9057
17755TIP3   OH274755   5.412   3.141   2.433 -0.0268 -0.1213 -0.2561
17755TIP3    H174756   5.476   3.069   2.430  0.3788  0.2833 -1.4200
17755TIP3    H274757   5.422   3.186   2.349 -0.9002  0.7676  0.1074
17756TIP3   OH274758   4.725   4.776  13.143  0.2834  0.3312  0.4075
17756TIP3    H174759   4.798   4.815  13.095  0.1848 -0.3769 -0.3441
17756TIP3    H274760   4.680   4.722  13.078  0.2764 -0.8364  1.3454
17757TIP3   OH274761   1.267   5.398  15.622 -0.4865  0.3235 -0.4551
17757TIP3    H174762   1.210   5.466  15.659 -1.4038 -0.9821  0.5955
17757TIP3    H274763   1.220   5.316  15.639  1.6751 -0.7744  0.3728
17758TIP3   OH274764   0.715   1.421  15.230 -0.2560 -0.0135 -0.8062
17758TIP3    H174765   0.784   1.464  15.280 -0.9939  0.1359  0.1081
17758TIP3    H274766   0.753   1.405  15.144  0.7924  0.3825 -0.4181
17759TIP3   OH274767   3.900   2.614  12.638  0.2633 -0.5680 -0.2844
17759TIP3    H174768   3.946   2.600  12.721  0.6885 -0.3529 -0.4827
17759TIP3    H274769   3.953   2.568  12.573  0.2436 -0.2511 -0.5248
17760TIP3   OH274770   4.230   1.582  11.495 -0.2913  0.2438  0.0977
17760TIP3    H174771   4.269   1.548  11.415  1.3092  2.8264 -0.2975
17760TIP3    H274772   4.271   1.531  11.565  1.0456  0.3996 -0.5427
17761TIP3   OH274773   0.410   5.199  16.954 -0.3740 -0.5758 -0.2633
17761TIP3    H174774   0.416   5.119  17.006 -0.2002 -0.4895 -0.1492
17761TIP3    H274775   0.469   5.183  16.880  1.2911  0.2745  0.8638
17762TIP3   OH274776   6.650   6.497   2.732  0.3229  0.6883  0.0947
17762TIP3    H174777   6.699   6.578   2.712  1.1610  0.2432  0.3158
17762TIP3    H274778   6.627   6.462   2.647  1.1530  0.4461 -0.0347
17763TIP3   OH274779   6.599   2.759  16.426 -0.3445 -0.1608  0.5310
17763TIP3    H174780   6.526   2.821  16.422 -0.4380 -0.1113  2.3587
17763TIP3    H274781   6.590   2.717  16.511  1.6688 -0.2611  0.7243
17764TIP3   OH274782   4.013   0.311   2.431 -0.4935 -0.4825 -0.3317
17764TIP3    H174783   3.949   0.299   2.362 -0.4343  2.1690 -0.9077
17764TIP3    H274784   4.098   0.299   2.388 -0.5440 -2.4631  0.0961
17765TIP3   OH274785   3.430   6.709   1.555 -0.1189 -0.6817  0.2387
17765TIP3    H174786   3.407   6.655   1.480  0.7520 -0.5311 -0.1439
17765TIP3    H274787   3.436   6.648   1.628  0.1418 -0.9875 -0.0406
17766TIP3   OH274788   0.106   3.334   0.149  0.5601  0.3614 -0.5709
17766TIP3    H174789   0.201   3.341   0.137  0.6074  0.7982  0.0221
17766TIP3    H274790   0.079   3.263   0.091  1.4961 -0.8834  0.5105
17767TIP3   OH274791   1.778   5.345   4.711  0.0189  0.3555  0.0388
17767TIP3    H174792   1.760   5.374   4.801 -0.7420  0.9756 -0.3058
17767TIP3    H274793   1.786   5.250   4.718  0.8526  0.4821  0.9080
17768TIP3   OH274794   3.324   0.996   5.659  0.3230 -0.1665  0.6569
17768TIP3    H174795   3.243   1.038   5.631  0.0883 -0.8946  0.2222
17768TIP3    H274796   3.300   0.904   5.672  0.9627 -0.2882  1.0182
17769TIP3   OH274797   2.027   6.808  14.214  0.4627 -0.1873  0.1997
17769TIP3    H174798   2.076   6.890  14.208  0.5362 -0.1832  0.8916
17769TIP3    H274799   2.036   6.769  14.127  0.0520  0.7447 -0.2640
17770TIP3   OH274800   3.221   3.978   1.730  0.3361  0.0220 -0.0955
17770TIP3    H174801   3.145   3.995   1.674 -0.6505 -1.3738  0.7860
17770TIP3    H274802   3.221   4.049   1.794  0.6243  0.8129 -0.9552
17771TIP3   OH274803   0.568   1.241   4.306 -0.4230 -0.3243  0.5742
17771TIP3    H174804   0.556   1.261   4.399 -1.3763  0.2136  0.3466
17771TIP3    H274805   0.573   1.327   4.264 -2.0445 -0.5422 -0.1126
17772TIP3   OH274806   3.179   5.604   5.062 -0.5724 -0.2129  0.1699
17772TIP3    H174807   3.254   5.593   5.122 -1.7093  0.7792  1.8254
17772TIP3    H274808   3.127   5.525   5.075 -0.6692 -0.1305  0.2871
17773TIP3   OH274809   1.918   2.728   4.298  0.4889  0.8741  0.6974
17773TIP3    H174810   1.871   2.723   4.215  0.1478  0.0122  0.9460
17773TIP3    H274811   1.970   2.648   4.302 -1.1394 -0.1347  2.3098
17774TIP3   OH274812   0.268   5.339  15.820 -0.4287  0.3600 -0.3543
17774TIP3    H174813   0.293   5.258  15.777 -0.2179  1.2589 -2.0046
17774TIP3    H274814   0.337   5.401  15.797 -0.8320  1.1360  0.4703
17775TIP3   OH274815   0.540   2.373  13.841 -0.4413 -0.5935 -0.2717
17775TIP3    H174816   0.516   2.315  13.914 -1.4806 -0.4897 -0.5180
17775TIP3    H274817   0.622   2.337  13.807 -1.1311 -1.9997 -0.5033
17776TIP3   OH274818   2.545   0.108   4.675 -0.4240 -0.1697  0.2433
17776TIP3    H174819   2.470   0.144   4.722 -0.9889 -0.1787 -0.6542
17776TIP3    H274820   2.540   0.014   4.691 -0.2295 -0.1070  0.7086
17777TIP3   OH274821   6.519   3.033   0.460 -0.5411  0.2075 -0.5105
17777TIP3    H174822   6.516   3.019   0.365  1.3590 -0.9119 -0.4306
17777TIP3    H274823   6.533   2.946   0.497 -1.7296  0.5759  0.8497
17778TIP3   OH274824   6.030   6.077  14.591 -0.2901  0.2987 -0.3029
17778TIP3    H174825   6.005   6.041  14.676 -0.0322  0.6828 -0.0601
17778TIP3    H274826   5.949   6.116  14.557 -0.9115 -1.7446 -1.2078
17779TIP3   OH274827   4.144   3.502  13.562 -0.0701  0.4240 -0.0112
17779TIP3    H174828   4.116   3.592  13.579  2.0061  0.5243  3.1424
17779TIP3    H274829   4.237   3.509  13.542 -0.2365 -0.8831 -1.3569
17780TIP3   OH274830   0.858   0.738   6.577  0.3317  0.7722  0.2805
17780TIP3    H174831   0.952   0.721   6.578  0.2950  0.4359 -1.0361
17780TIP3    H274832   0.828   0.713   6.665  1.3187 -0.0251  0.4003
17781TIP3   OH274833   4.520   2.233   3.514  0.2138 -0.2716  0.0231
17781TIP3    H174834   4.448   2.212   3.454 -0.4248 -0.4231  0.8346
17781TIP3    H274835   4.599   2.205   3.467 -0.0632  1.8234 -1.7469
17782TIP3   OH274836   1.955   5.147   2.127 -0.5841 -0.0034  0.0236
17782TIP3    H174837   1.862   5.137   2.150 -0.8018  0.6173 -0.5628
17782TIP3    H274838   1.954   5.171   2.034  0.0856  1.7899  0.4786
17783TIP3   OH274839   5.725   4.108   6.523  0.1210 -0.0570 -0.1567
17783TIP3    H174840   5.664   4.122   6.450 -2.1094  0.8247  1.8180
17783TIP3    H274841   5.805   4.154   6.496 -1.1248  1.3984 -1.4703
17784TIP3   OH274842   3.013   1.497  14.075 -0.0179  0.8504  0.4439
17784TIP3    H174843   3.045   1.408  14.064 -2.3133  0.1424 -0.8925
17784TIP3    H274844   2.980   1.500  14.165  2.3150  1.1257  1.3088
17785TIP3   OH274845   2.917   2.664   3.938  0.6921  0.1371 -0.5730
17785TIP3    H174846   2.852   2.727   3.969  0.6594 -0.3959  0.4971
17785TIP3    H274847   2.900   2.655   3.845  0.7634  1.7699 -0.7565
17786TIP3   OH274848   0.875   3.786   0.184 -0.3817  0.1117  0.1582
17786TIP3    H174849   0.829   3.705   0.206 -0.5909 -0.0565 -0.9043
17786TIP3    H274850   0.967   3.767   0.203 -0.4514 -0.3161  0.0666
17787TIP3   OH274851   6.370   6.538  12.309 -0.0222  0.3936  0.1510
17787TIP3    H174852   6.450   6.489  12.288 -0.9350 -0.4330 -1.5721
17787TIP3    H274853   6.371   6.612  12.248 -1.5209 -0.7002 -1.2341
17788TIP3   OH274854   1.348   2.833  12.316 -0.2330  0.0264  0.6041
17788TIP3    H174855   1.311   2.911  12.275 -0.1477  0.9201  2.1572
17788TIP3    H274856   1.322   2.840  12.408  2.3679 -0.1683  1.4027
17789TIP3   OH274857   6.766   1.697   0.839  0.6001  0.2494  0.5643
17789TIP3    H174858   6.709   1.765   0.874 -0.0548  0.3506 -0.6805
17789TIP3    H274859   6.708   1.624   0.820  1.0667 -0.0896  0.4206
17790TIP3   OH274860   3.351   3.556  11.510 -0.1956  0.5595 -0.0135
17790TIP3    H174861   3.365   3.477  11.562 -1.6286  0.0931 -0.3233
17790TIP3    H274862   3.415   3.551  11.440  0.5475  0.2982  0.6768
17791TIP3   OH274863   2.402   3.834   4.489  0.7353 -0.5842 -0.2971
17791TIP3    H174864   2.310   3.843   4.513  1.1745  1.3256  0.7944
17791TIP3    H274865   2.412   3.886   4.410  1.4952  1.7986  1.3072
17792TIP3   OH274866   1.660   1.201   3.814 -0.1805 -0.4014  0.1753
17792TIP3    H174867   1.721   1.222   3.743 -0.2236  0.8090  0.4932
17792TIP3    H274868   1.679   1.110   3.835  0.3147 -0.5645 -0.9149
17793TIP3   OH274869   0.761   4.899   6.132 -0.5940 -0.0562  0.2854
17793TIP3    H174870   0.676   4.858   6.144 -0.1666 -1.8664 -2.3725
17793TIP3    H274871   0.798   4.856   6.054  2.4385  1.1610  0.9580
17794TIP3   OH274872   3.968   3.370   3.566 -0.1120  0.5034 -0.2861
17794TIP3    H174873   3.914   3.414   3.501 -0.2540  0.3599 -0.2639
17794TIP3    H274874   3.925   3.387   3.649 -1.1555 -1.1599 -0.4561
17795TIP3   OH274875   3.437   2.825   0.667  0.1006 -0.3405 -0.3493
17795TIP3    H174876   3.459   2.857   0.754 -0.1540  3.7357 -1.6445
17795TIP3    H274877   3.520   2.796   0.630  0.5845 -0.0285  0.4730
17796TIP3   OH274878   3.464   1.241   1.580 -0.1805 -0.2948  0.2114
17796TIP3    H174879   3.369   1.236   1.591 -0.0567  0.5330  1.8810
17796TIP3    H274880   3.477   1.318   1.524 -0.4447  0.3925  1.0766
17797TIP3   OH274881   2.799   4.773   2.527 -0.1740 -0.4287  0.9817
17797TIP3    H174882   2.783   4.684   2.558  0.1428 -0.6741  0.4580
17797TIP3    H274883   2.884   4.797   2.563 -0.0504 -0.5139  0.7530
17798TIP3   OH274884   3.366   4.280  10.646 -0.0547  0.0546  0.4448
17798TIP3    H174885   3.272   4.291  10.627 -0.2784 -0.2715  1.3351
17798TIP3    H274886   3.406   4.359  10.612 -0.7650  0.5514  0.7382
17799TIP3   OH274887   6.605   5.104   0.143  0.1092 -0.1339 -0.1097
17799TIP3    H174888   6.552   5.076   0.218 -1.6976 -0.5997 -1.5056
17799TIP3    H274889   6.668   5.033   0.130  0.2981 -0.1488  0.8166
17800TIP3   OH274890   6.204   5.661   0.222  0.3560 -0.2407  0.2063
17800TIP3    H174891   6.240   5.587   0.272  1.5834  0.3201  0.1611
17800TIP3    H274892   6.226   5.738   0.273 -0.1819  0.1771 -0.1821
17801TIP3   OH274893   6.673   2.133  16.517  0.1699 -0.1346  0.4808
17801TIP3    H174894   6.640   2.173  16.437  0.7561 -1.7837 -0.6070
17801TIP3    H274895   6.748   2.187  16.542 -0.3468  0.7027  0.2260
17802TIP3   OH274896   6.640   4.538   3.297  0.3136  0.1870 -0.6768
17802TIP3    H174897   6.647   4.517   3.390  0.9354 -5.1395 -1.7547
17802TIP3    H274898   6.547   4.558   3.284  0.4860  2.4871  1.2828
17803TIP3   OH274899   1.315   6.302  10.812  0.4028  0.2843 -0.5717
17803TIP3    H174900   1.259   6.282  10.887  1.0433  0.9871  0.1126
17803TIP3    H274901   1.267   6.369  10.763 -1.2099 -2.0353 -2.2366
17804TIP3   OH274902   0.380   3.601   2.160 -0.7232 -0.6478 -0.0507
17804TIP3    H174903   0.336   3.582   2.243  0.2512  2.6057  1.3070
17804TIP3    H274904   0.457   3.544   2.159  0.3665  0.7116  2.2908
17805TIP3   OH274905   5.125   2.783  14.720  0.0178  0.1763  0.2868
17805TIP3    H174906   5.198   2.736  14.680 -0.0661  1.2444 -1.1578
17805TIP3    H274907   5.050   2.759  14.666 -0.6337 -0.5236  1.4721
17806TIP3   OH274908   4.865   6.144  12.478  0.1916 -0.5946  0.3993
17806TIP3    H174909   4.826   6.148  12.565  0.4290  1.0119  0.4441
17806TIP3    H274910   4.959   6.140  12.494  0.2436 -0.1159  0.2132
17807TIP3   OH274911   4.541   4.775  14.971  0.0701  0.0855 -0.2579
17807TIP3    H174912   4.506   4.860  14.997  0.0467 -0.9389  3.3572
17807TIP3    H274913   4.636   4.788  14.966  0.2560 -0.0954  2.2184
17808TIP3   OH274914   0.376   5.204  17.256 -0.1994 -0.1147  0.3885
17808TIP3    H174915   0.463   5.169  17.272 -0.3582 -1.2848 -1.2128
17808TIP3    H274916   0.390   5.274  17.191 -0.7453 -2.1143 -1.9460
17809TIP3   OH274917   1.980   6.251  12.622  0.5762  0.0719 -0.6145
17809TIP3    H174918   2.014   6.176  12.574  1.3243 -0.9217  1.4150
17809TIP3    H274919   2.045   6.320  12.610  0.7930 -0.1902 -0.9387
17810TIP3   OH274920   5.009   1.552  14.083 -0.6781  0.0268  0.1544
17810TIP3    H174921   4.948   1.574  14.154 -1.0498  0.5397 -0.3170
17810TIP3    H274922   5.002   1.457  14.074 -2.9799  0.2863 -1.2886
17811TIP3   OH274923   4.133   0.542  14.651  0.1629  0.0635  0.5436
17811TIP3    H174924   4.155   0.624  14.696  0.1711 -0.5221  1.6336
17811TIP3    H274925   4.213   0.489  14.657 -0.1151 -0.3513  0.5933
17812TIP3   OH274926   0.150   4.684   3.980  0.0986 -0.1685  0.1141
17812TIP3    H174927   0.227   4.628   3.986 -0.5752 -1.2576 -1.0325
17812TIP3    H274928   0.119   4.692   4.070 -0.2507 -2.3330  0.2155
17813TIP3   OH274929   1.092   3.788  11.906 -0.1927  0.0894  0.5008
17813TIP3    H174930   1.063   3.879  11.893 -0.0426  0.0832  0.1051
17813TIP3    H274931   1.013   3.736  11.894  0.0145  0.0587 -0.7666
17814TIP3   OH274932   6.228   3.462   0.009 -0.4175 -0.2968  1.1237
17814TIP3    H174933   6.157   3.462   0.073 -2.3969 -0.8206 -1.0282
17814TIP3    H274934   6.212   3.539  -0.045 -1.4126 -2.3208 -1.5611
17815TIP3   OH274935   0.596   6.278  12.798  0.5869 -0.1006  0.1235
17815TIP3    H174936   0.536   6.329  12.744 -0.0275  0.6065  1.4451
17815TIP3    H274937   0.592   6.320  12.884  2.1787 -0.6920  0.4980
17816TIP3   OH274938   5.565   4.724   3.389 -0.0612 -0.0052 -0.3776
17816TIP3    H174939   5.520   4.793   3.341 -1.1959 -0.8213 -0.5386
17816TIP3    H274940   5.503   4.650   3.388  0.4557 -0.4965  1.1340
17817TIP3   OH274941   6.463   3.024  14.849 -0.2044 -0.3063 -0.3249
17817TIP3    H174942   6.385   2.974  14.870 -0.7685  0.7996  0.2925
17817TIP3    H274943   6.460   3.034  14.753 -0.9237 -0.1109 -0.2862
17818TIP3   OH274944   6.815   2.796  17.219  0.0245  0.1994 -0.6462
17818TIP3    H174945   6.846   2.725  17.164 -0.8419 -1.2226  0.6597
17818TIP3    H274946   6.720   2.798  17.205 -0.0006  0.9032 -0.4298
17819TIP3   OH274947   0.830   3.109   1.893 -0.3262 -0.2226  0.1485
17819TIP3    H174948   0.906   3.151   1.852  1.0107 -0.6471  2.1191
17819TIP3    H274949   0.789   3.060   1.822  1.1247  0.1640 -1.0002
17820TIP3   OH274950   5.347   2.888   5.798  0.1910 -0.2966 -0.0005
17820TIP3    H174951   5.292   2.936   5.860 -0.1518 -0.6832 -0.0095
17820TIP3    H274952   5.322   2.922   5.712  0.1735 -0.2678  0.0158
17821TIP3   OH274953   0.228   2.082  12.188 -0.3701  0.4301 -0.1763
17821TIP3    H174954   0.216   2.172  12.219  0.2832  0.2814  0.5130
17821TIP3    H274955   0.261   2.034  12.264 -2.9033 -0.9173  0.1250
17822TIP3   OH274956   5.454   6.351  16.065  0.5021 -0.6268  0.1136
17822TIP3    H174957   5.412   6.376  15.983 -0.5271 -3.7739 -0.3737
17822TIP3    H274958   5.433   6.422  16.126 -2.6545 -0.4812 -1.0831
17823TIP3   OH274959   1.124   2.570   0.950 -0.0799 -0.5554  0.6737
17823TIP3    H174960   1.177   2.500   0.989  1.0275 -0.9609 -1.4825
17823TIP3    H274961   1.105   2.538   0.862 -2.9351  0.1210  1.0106
17824TIP3   OH274962   2.174   4.127  12.107 -0.3188  0.2394  0.0424
17824TIP3    H174963   2.254   4.093  12.145 -0.4136  2.1836  2.0828
17824TIP3    H274964   2.185   4.222  12.109 -3.9091  0.7247  3.3047
17825TIP3   OH274965   1.580   2.974   4.730  0.1372 -0.0641 -0.3811
17825TIP3    H174966   1.501   3.019   4.761  1.2904 -0.3056  3.0358
17825TIP3    H274967   1.559   2.881   4.736 -0.0644 -0.1130 -1.6051
17826TIP3   OH274968   6.125   2.027  16.827 -0.0540  0.7145 -0.2209
17826TIP3    H174969   6.183   2.035  16.902 -1.6970  0.4212  1.1241
17826TIP3    H274970   6.165   1.960  16.772  0.9272  0.5980  0.6308
17827TIP3   OH274971   5.357   1.569  12.612  0.2327  0.1588 -0.1516
17827TIP3    H174972   5.375   1.659  12.584 -1.0190  0.2485 -0.7034
17827TIP3    H274973   5.271   1.573  12.653  1.0406 -0.4234  1.6395
17828TIP3   OH274974   1.808   4.580  11.849  0.0821 -0.3035 -0.2195
17828TIP3    H174975   1.791   4.617  11.936 -1.4984 -0.6042 -0.3776
17828TIP3    H274976   1.737   4.614  11.795  0.2194 -1.3001 -1.0417
17829TIP3   OH274977   4.986   0.156  12.576  0.2037 -0.3798  0.8061
17829TIP3    H174978   5.035   0.195  12.504  0.6481 -0.0118  1.3016
17829TIP3    H274979   4.997   0.217  12.649 -1.4580 -0.0236  0.7650
17830TIP3   OH274980   5.773   2.930   2.620  0.1051 -0.2514  0.0649
17830TIP3    H174981   5.860   2.892   2.618 -0.2548 -1.0710  0.0781
17830TIP3    H274982   5.769   2.986   2.542  0.0956 -1.4004 -0.7588
17831TIP3   OH274983   1.153   2.679  11.797 -0.4658 -0.2655  0.1623
17831TIP3    H174984   1.197   2.595  11.786 -1.9975 -0.8019 -2.3470
17831TIP3    H274985   1.200   2.739  11.739 -1.5100 -0.2344 -0.6542
17832TIP3   OH274986   4.395   2.657   5.131  0.1703 -0.5844 -0.2582
17832TIP3    H174987   4.446   2.576   5.139  2.5766  0.8859 -0.0767
17832TIP3    H274988   4.454   2.725   5.164 -2.7740  0.9190  2.1028
17833TIP3   OH274989   3.036   1.829  13.022  0.2145 -0.2941  0.2804
17833TIP3    H174990   2.965   1.784  13.067 -1.8795  2.5872  0.0166
17833TIP3    H274991   3.048   1.780  12.940 -0.7470 -1.3973  0.7936
17834TIP3   OH274992   2.289   2.504   1.158 -0.0877 -0.0657  0.0232
17834TIP3    H174993   2.329   2.417   1.168  1.0663  0.3686 -0.7803
17834TIP3    H274994   2.322   2.554   1.232 -0.3436 -0.1455  0.1945
17835TIP3   OH274995   4.036   3.393   0.473  0.4363 -0.0123 -0.0636
17835TIP3    H174996   4.129   3.418   0.468  0.6999 -1.2600 -1.7981
17835TIP3    H274997   4.030   3.339   0.552  1.0215  0.7249  0.4912
17836TIP3   OH274998   0.080   2.457  14.493 -0.1435 -0.2156  0.3452
17836TIP3    H174999   0.108   2.374  14.453 -0.7411 -0.0591 -0.4136
17836TIP3    H275000   0.134   2.523  14.449 -0.4648 -0.0903  0.1414
17837TIP3   OH275001   0.762   5.538  12.378 -0.5181  0.2742 -0.0583
17837TIP3    H175002   0.759   5.628  12.346 -1.2061  0.9619  1.8600
17837TIP3    H275003   0.843   5.532  12.427 -0.1115 -0.3809 -0.8020
17838TIP3   OH275004   0.985   2.283   1.964  0.2429 -0.5408  0.4456
17838TIP3    H175005   0.992   2.337   2.043 -2.0132 -0.9401  0.9391
17838TIP3    H275006   1.055   2.218   1.973  1.0588  0.4546  1.2965
17839TIP3   OH275007   6.214   0.134   1.493 -0.1826 -0.1122 -0.1292
17839TIP3    H175008   6.174   0.113   1.577  0.6917 -0.5867  0.1676
17839TIP3    H275009   6.161   0.206   1.459  0.5884  1.3670  1.7013
17840TIP3   OH275010   6.781   1.366   0.048 -0.1280  0.0145  0.3134
17840TIP3    H175011   6.719   1.357   0.121 -1.0240 -1.6021 -0.6160
17840TIP3    H275012   6.826   1.282   0.045 -1.0991 -0.4572 -1.8768
17841TIP3   OH275013   4.191   0.911  16.799  0.2007  0.6698 -0.0711
17841TIP3    H175014   4.260   0.851  16.769 -0.4435  0.3336 -0.9106
17841TIP3    H275015   4.228   0.953  16.877  0.2477 -1.6790  1.2386
17842TIP3   OH275016   4.783   6.761   1.440 -0.5471 -0.5057 -0.2375
17842TIP3    H175017   4.834   6.719   1.370  0.8240 -0.2917  0.6112
17842TIP3    H275018   4.692   6.754   1.411  0.1037  1.0387 -2.8497
17843TIP3   OH275019   2.959   3.947   5.576 -0.0198  0.6705 -0.0784
17843TIP3    H175020   3.054   3.959   5.574 -0.0500  1.0275  0.7862
17843TIP3    H275021   2.945   3.861   5.535  0.5695  1.2225 -1.4562
17844TIP3   OH275022   0.024   6.543  13.571 -0.6099  0.4738 -0.0048
17844TIP3    H175023   0.119   6.554  13.565 -0.5168  1.1739  2.3092
17844TIP3    H275024  -0.008   6.626  13.609 -2.2346  0.5307 -1.4137
17845TIP3   OH275025   2.615   4.576   0.806 -0.0575 -0.1970  0.6860
17845TIP3    H175026   2.660   4.655   0.774  2.5925 -0.2010  4.1128
17845TIP3    H275027   2.674   4.505   0.782 -0.9438 -0.8286  0.3606
17846TIP3   OH275028   6.782   0.324  12.282  0.3382  0.2306  0.3279
17846TIP3    H175029   6.852   0.386  12.264  2.2084 -1.5668  1.1941
17846TIP3    H275030   6.757   0.342  12.372 -0.2765  0.8257  0.0409
17847TIP3   OH275031   5.073   4.908   0.594  0.0434  0.1041 -0.2723
17847TIP3    H175032   5.165   4.882   0.595  0.1559  0.5215  1.1877
17847TIP3    H275033   5.046   4.899   0.503  1.1897 -1.2213 -0.4897
17848TIP3   OH275034   4.378   6.091   1.867  0.2345 -0.2439 -0.0365
17848TIP3    H175035   4.402   6.115   1.777  4.8243  0.5104  1.2592
17848TIP3    H275036   4.367   5.996   1.864  2.4899 -0.5096 -1.0205
17849TIP3   OH275037   3.314   0.491  10.897 -0.2614 -0.0754 -0.3721
17849TIP3    H175038   3.352   0.416  10.851 -1.0846 -0.5032 -0.3681
17849TIP3    H275039   3.223   0.466  10.912 -0.5754  0.9870 -0.4870
17850TIP3   OH275040   0.650   0.686  15.403  0.5317  0.1119 -0.8388
17850TIP3    H175041   0.606   0.608  15.439  0.4150 -0.4347 -2.1317
17850TIP3    H275042   0.638   0.753  15.470  0.6606 -0.9905  0.3233
17851TIP3   OH275043   5.406   2.931   1.717  0.1446  0.0329 -0.3494
17851TIP3    H175044   5.335   2.911   1.777  0.0966 -1.8032 -0.9926
17851TIP3    H275045   5.393   3.023   1.693 -1.5472 -0.0727  0.1407
17852TIP3   OH275046   3.702   3.637   4.093  0.7994 -0.5547  0.2083
17852TIP3    H175047   3.691   3.701   4.023 -1.3380 -0.4402  0.6120
17852TIP3    H275048   3.631   3.656   4.155  2.2022 -1.1316  2.0380
17853TIP3   OH275049   0.987   0.326   0.940 -0.0127 -0.2088 -0.1994
17853TIP3    H175050   1.066   0.299   0.893  0.4750 -1.1869  1.1716
17853TIP3    H275051   1.009   0.412   0.976  0.0851 -0.0592 -0.6116
17854TIP3   OH275052   1.947   3.674   3.529  0.2551  0.0518  0.2294
17854TIP3    H175053   1.902   3.641   3.607 -0.5989  0.8628  0.0881
17854TIP3    H275054   1.888   3.740   3.493 -0.1654 -1.5328 -2.0938
17855TIP3   OH275055   5.223   2.259  13.611 -0.2167 -0.2559 -0.3762
17855TIP3    H175056   5.181   2.306  13.539 -0.5051  0.4719  0.2654
17855TIP3    H275057   5.153   2.246  13.675  0.7446  1.8797  1.1566
17856TIP3   OH275058   6.263   5.426  17.006  0.5842  0.0578 -0.0820
17856TIP3    H175059   6.202   5.357  16.980  0.9789 -1.1976  2.2004
17856TIP3    H275060   6.310   5.448  16.926 -1.4486 -0.3877 -1.4230
17857TIP3   OH275061   3.954   6.652   5.400  0.1309 -1.2726 -0.3309
17857TIP3    H175062   4.003   6.602   5.334  0.3835 -2.1280  0.4806
17857TIP3    H275063   3.999   6.736   5.405  0.3857 -1.3719 -0.9288
17858TIP3   OH275064   4.184   6.285  12.384  0.3181 -0.9628 -0.1977
17858TIP3    H175065   4.243   6.327  12.447 -0.6940  1.9066 -1.0572
17858TIP3    H275066   4.211   6.193  12.383  1.8557 -0.5997  2.6721
17859TIP3   OH275067   5.980   3.032   3.789  0.2492  0.6869  0.1537
17859TIP3    H175068   6.049   2.986   3.835  0.6344  2.1131  1.0198
17859TIP3    H275069   5.938   3.086   3.855 -1.8703 -0.3413 -0.3005
17860TIP3   OH275070   1.183   4.776  12.198 -0.0780 -0.5616  0.4859
17860TIP3    H175071   1.184   4.699  12.255 -1.1880 -0.7995  0.2094
17860TIP3    H275072   1.104   4.764  12.144 -1.3360  1.7149  1.7518
17861TIP3   OH275073   4.351   1.740   4.744  0.0702  0.4588  0.3870
17861TIP3    H175074   4.327   1.799   4.673 -2.5356 -0.1237  0.7475
17861TIP3    H275075   4.446   1.747   4.749  0.2125  1.2983 -2.4557
17862TIP3   OH275076   4.952   6.124  11.884 -0.0982 -0.3002  0.6094
17862TIP3    H175077   4.968   6.076  11.966  0.0413 -2.0954 -0.4426
17862TIP3    H275078   4.858   6.113  11.868 -0.2343  0.5248  0.8036
17863TIP3   OH275079   3.208   4.513   0.983  0.2359  0.0185 -0.4328
17863TIP3    H175080   3.261   4.544   1.057  1.2587 -1.2581 -0.6172
17863TIP3    H275081   3.119   4.540   1.005  0.8854  1.8893  0.0564
17864TIP3   OH275082   1.683   1.267  16.896 -0.5234 -0.1440 -0.4324
17864TIP3    H175083   1.650   1.357  16.901 -1.7124 -0.6176  0.4513
17864TIP3    H275084   1.607   1.215  16.871  0.1350 -0.9324 -0.8369
17865TIP3   OH275085   1.972   6.794   5.441  0.1528 -0.2910  0.3871
17865TIP3    H175086   1.949   6.702   5.432  0.7688 -0.3008 -1.2589
17865TIP3    H275087   2.025   6.814   5.364  0.8087  1.2032  1.1926
17866TIP3   OH275088   0.196   1.694  13.439  0.0695 -0.4702  0.1127
17866TIP3    H175089   0.290   1.673  13.447  0.1577  0.4692  1.8004
17866TIP3    H275090   0.152   1.612  13.462  0.4762 -0.2902  1.6396
17867TIP3   OH275091   3.154   6.182  17.200 -0.4523 -0.2811  0.5019
17867TIP3    H175092   3.191   6.125  17.133 -0.1688  1.5700 -0.9638
17867TIP3    H275093   3.067   6.147  17.217 -0.5514 -0.7537 -0.8907
17868TIP3   OH275094   5.214   3.064  16.638 -0.3092  0.7102 -0.0460
17868TIP3    H175095   5.188   3.141  16.588 -1.8941  0.6967  0.7174
17868TIP3    H275096   5.229   2.996  16.572  1.8546  1.8509 -0.7724
17869TIP3   OH275097   0.396   2.411   1.692  0.9276  0.1765  0.6731
17869TIP3    H175098   0.459   2.385   1.759  2.9956  2.0408 -0.4708
17869TIP3    H275099   0.448   2.418   1.612 -1.3535 -1.2721 -1.0093
17870TIP3   OH275100   0.181   3.020  11.159 -0.8237 -0.2857  0.0370
17870TIP3    H175101   0.165   2.951  11.094 -3.1705 -0.0323  0.3013
17870TIP3    H275102   0.094   3.050  11.184  0.1291  1.8673  0.9172
17871TIP3   OH275103   0.744   4.437   4.677 -0.0092  0.0562 -0.3035
17871TIP3    H175104   0.760   4.421   4.584 -0.7149 -0.4767 -0.3390
17871TIP3    H275105   0.808   4.382   4.722  1.1298  1.2314 -0.4864
17872TIP3   OH275106   1.646   4.860  13.233  0.0808  0.0710 -0.2397
17872TIP3    H175107   1.601   4.917  13.171 -1.9185 -0.9852  0.2057
17872TIP3    H275108   1.639   4.906  13.317 -0.1680 -0.0964 -0.1693
17873TIP3   OH275109   4.967   3.645  13.471  0.3395  0.1635  0.2582
17873TIP3    H175110   4.907   3.674  13.402  1.3998  1.8650  0.0225
17873TIP3    H275111   4.966   3.717  13.535  2.2674  0.2920  0.1614
17874TIP3   OH275112   2.499   2.170  16.324 -0.6644 -0.2060 -0.0317
17874TIP3    H175113   2.424   2.118  16.297 -0.4676 -1.2765  1.4140
17874TIP3    H275114   2.569   2.107  16.336 -0.5365  0.3047  2.1466
17875TIP3   OH275115   3.651   0.829  12.655  0.2030  0.3286 -0.3807
17875TIP3    H175116   3.601   0.751  12.677 -0.9070  0.9477 -0.6938
17875TIP3    H275117   3.587   0.900  12.652  0.8623  0.9017 -2.0954
17876TIP3   OH275118   2.560   5.344  15.462  0.2807  0.7966  0.4275
17876TIP3    H175119   2.489   5.311  15.517  0.0676  1.0480  0.3063
17876TIP3    H275120   2.560   5.287  15.385  0.1961  0.8110  0.4163
17877TIP3   OH275121   0.538   0.034  12.829  0.3484  0.5622  0.4005
17877TIP3    H175122   0.565  -0.047  12.873 -1.0745  0.3123  0.8475
17877TIP3    H275123   0.620   0.079  12.810  1.0061  0.7946  3.5177
17878TIP3   OH275124   5.929   3.119   2.971 -0.5720  0.4569  0.0020
17878TIP3    H175125   5.942   3.024   2.977  1.5945  0.8230  1.7477
17878TIP3    H275126   5.834   3.130   2.965 -0.9326 -1.7600  1.1375
17879TIP3   OH275127   2.990   2.009   0.613  0.1868 -0.0657 -0.5852
17879TIP3    H175128   3.012   2.072   0.681 -0.2422 -1.8534  1.2739
17879TIP3    H275129   3.070   2.000   0.561  0.8515  0.5337  0.3314
17880TIP3   OH275130   2.419   3.308   4.184  0.2364  0.5467  0.5441
17880TIP3    H175131   2.361   3.234   4.165  1.4599 -0.4023  0.4816
17880TIP3    H275132   2.475   3.315   4.106 -0.4685  2.1215  0.1528
17881TIP3   OH275133   3.922   5.525   2.061 -0.3583  0.1522 -0.0141
17881TIP3    H175134   3.915   5.435   2.092 -1.2018  0.6806  1.4037
17881TIP3    H275135   4.005   5.527   2.012 -0.6122 -1.5136 -0.5471
17882TIP3   OH275136   2.695   0.923  12.082  0.0270 -0.1615  0.2372
17882TIP3    H175137   2.617   0.921  12.138  0.7241 -0.9292  1.2075
17882TIP3    H275138   2.768   0.924  12.144  0.7969 -0.2551 -0.6667
17883TIP3   OH275139   1.399   0.757   3.066  0.0805  0.3604 -0.4485
17883TIP3    H175140   1.433   0.792   2.983  0.2052  1.6613  0.1380
17883TIP3    H275141   1.317   0.714   3.042  0.7702 -0.4209 -1.4535
17884TIP3   OH275142   2.624   3.456   6.176 -0.0690 -0.3050 -0.1352
17884TIP3    H175143   2.619   3.452   6.081  2.2692 -0.5313 -0.2741
17884TIP3    H275144   2.672   3.537   6.194  1.4073 -1.3562  0.7537
17885TIP3   OH275145   2.763   4.723  11.983  0.4339  0.0306 -0.1941
17885TIP3    H175146   2.763   4.633  12.014 -1.2206  0.2992  0.6740
17885TIP3    H275147   2.709   4.721  11.904 -1.8127  0.6803  1.2669
17886TIP3   OH275148   4.116   3.975   5.434  0.1497 -0.3298  0.6736
17886TIP3    H175149   4.075   4.051   5.474  1.8236 -0.0282  1.8897
17886TIP3    H275150   4.170   4.012   5.364 -0.2399 -0.5518  0.2550
17887TIP3   OH275151   1.676   4.584   1.241  0.3478 -0.1518  0.3193
17887TIP3    H175152   1.645   4.523   1.174 -0.2002 -1.1384  1.4497
17887TIP3    H275153   1.596   4.622   1.278  0.6223 -0.0419  0.8087
17888TIP3   OH275154   0.650   6.046  17.201 -0.5035 -0.0494 -0.1260
17888TIP3    H175155   0.730   6.085  17.236 -0.3403 -0.5790  0.0933
17888TIP3    H275156   0.612   5.998  17.275 -1.0631  0.2578 -0.2073
17889TIP3   OH275157   0.181   5.738  15.333 -0.5504 -0.3771 -0.4369
17889TIP3    H175158   0.185   5.811  15.395  0.7771  0.2142 -1.1979
17889TIP3    H275159   0.156   5.778  15.250 -2.1959 -1.1526 -0.3262
17890TIP3   OH275160   6.707   2.255   1.171 -0.0237 -0.6803  0.3685
17890TIP3    H175161   6.764   2.312   1.120 -1.6776 -0.9888 -1.8659
17890TIP3    H275162   6.629   2.308   1.189 -0.9667 -1.7524 -0.4995
17891TIP3   OH275163   1.937   2.141  11.235  0.2831 -0.4599 -0.3045
17891TIP3    H175164   1.868   2.206  11.221  0.3241 -0.1553  0.9036
17891TIP3    H275165   2.004   2.163  11.171  0.7716  1.3451  0.7951
17892TIP3   OH275166   2.041   3.848  11.637 -0.2308  0.2773 -0.2299
17892TIP3    H175167   2.022   3.763  11.676 -1.5799  0.7050  0.0651
17892TIP3    H275168   2.057   3.906  11.712  0.9269  0.2421 -0.4334
17893TIP3   OH275169   1.382   2.774  16.845 -0.0359  0.3258  0.0209
17893TIP3    H175170   1.355   2.865  16.849 -2.0197 -0.2083 -0.4853
17893TIP3    H275171   1.365   2.747  16.755  1.0656 -0.3826  0.0197
17894TIP3   OH275172   3.201   3.092   1.623  0.0695  0.1973  0.4388
17894TIP3    H175173   3.264   3.164   1.613  2.0573 -1.2830  1.8692
17894TIP3    H275174   3.255   3.015   1.637 -2.1015 -1.1309  1.7537
17895TIP3   OH275175   2.935   3.128   1.690 -0.1146 -0.3214 -0.4456
17895TIP3    H175176   2.917   3.221   1.674  0.4696  0.2018  1.7698
17895TIP3    H275177   3.029   3.119   1.674  0.2064 -0.0856  1.1741
17896TIP3   OH275178   1.512   2.884  13.540 -0.1475  0.1909 -0.3709
17896TIP3    H175179   1.490   2.852  13.453 -0.3841  1.0167 -0.6143
17896TIP3    H275180   1.559   2.811  13.581  1.5544  0.4349 -1.8228
17897TIP3   OH275181   6.102   3.822  15.275 -0.0587 -0.2355 -0.2559
17897TIP3    H175182   6.073   3.740  15.235  1.0525 -1.4144  1.3193
17897TIP3    H275183   6.194   3.831  15.249 -0.2299  0.6422 -0.5955
17898TIP3   OH275184   5.976   2.441   2.832 -0.4837  0.3177  0.2180
17898TIP3    H175185   5.907   2.490   2.787  0.2201  2.5351  1.4635
17898TIP3    H275186   5.928   2.382   2.891 -1.3582 -1.2293 -1.9847
17899TIP3   OH275187   5.644   3.396   1.324 -0.2832 -0.5532  0.3007
17899TIP3    H175188   5.574   3.448   1.286  0.5347  0.6204  0.3876
17899TIP3    H275189   5.722   3.449   1.314  0.7451 -2.1627 -0.4715
17900TIP3   OH275190   5.667   1.145   6.196 -0.1931  0.2612  0.4771
17900TIP3    H175191   5.710   1.060   6.211  0.5715  0.5563  0.0111
17900TIP3    H275192   5.583   1.123   6.156 -0.1621 -0.2918  0.7093
17901TIP3   OH275193   2.838   4.418   3.182  0.1387 -0.2405  0.1950
17901TIP3    H175194   2.810   4.369   3.259  1.3652 -1.7663 -0.3023
17901TIP3    H275195   2.934   4.412   3.183  0.3640  2.6917  0.4474
17902TIP3   OH275196   5.300   3.648  16.139 -0.0821  0.4120 -0.3144
17902TIP3    H175197   5.338   3.571  16.097  0.6046  0.8896 -0.5616
17902TIP3    H275198   5.344   3.723  16.099 -2.4043  1.0654 -1.7795
17903TIP3   OH275199   1.172   6.714   5.253 -0.0797 -0.0962  0.1555
17903TIP3    H175200   1.120   6.712   5.173 -2.0244  2.4350  1.3084
17903TIP3    H275201   1.256   6.752   5.226 -0.2286 -0.4995 -0.9109
17904TIP3   OH275202   1.842   4.356   3.255 -0.8754 -0.0821 -0.3659
17904TIP3    H175203   1.843   4.440   3.300 -2.4862  0.3420 -1.1125
17904TIP3    H275204   1.852   4.377   3.163  0.2277 -0.8173 -0.4256
17905TIP3   OH275205   3.568   5.099  15.879 -0.1886  0.1695 -0.0106
17905TIP3    H175206   3.576   5.078  15.786  0.7634 -1.1171  0.3542
17905TIP3    H275207   3.642   5.055  15.920  0.6217  2.5022  1.0881
17906TIP3   OH275208   4.072   5.288  12.846 -0.1777 -0.3885  0.1925
17906TIP3    H175209   4.099   5.379  12.841  1.4029 -0.8393  0.3505
17906TIP3    H275210   4.009   5.278  12.775  1.1693  0.3117 -1.1217
17907TIP3   OH275211   4.305   1.473   0.802  0.3721  0.6544  0.1309
17907TIP3    H175212   4.209   1.478   0.807  0.3036  1.5026 -1.7269
17907TIP3    H275213   4.335   1.557   0.836  0.4148  0.8629 -0.4233
17908TIP3   OH275214   5.559   5.164   1.350 -0.2593 -0.0306 -0.3507
17908TIP3    H175215   5.586   5.118   1.430 -0.3828  1.3389  0.4836
17908TIP3    H275216   5.508   5.099   1.302  1.5743 -1.5605 -0.3177
17909TIP3   OH275217   2.988   6.815   4.081  0.2935 -0.3721 -0.6140
17909TIP3    H175218   2.997   6.849   4.170  0.4220 -1.9944  0.0111
17909TIP3    H275219   3.067   6.763   4.068  0.2327 -0.2075 -1.6532
17910TIP3   OH275220   4.367   4.967  15.130 -0.4527  0.5621  0.2747
17910TIP3    H175221   4.383   4.961  15.224  0.9639  1.3615  0.0823
17910TIP3    H275222   4.333   5.055  15.116 -0.1929  0.6165 -0.0322
17911TIP3   OH275223   2.270   3.473   5.726  0.2485 -0.1657  0.1906
17911TIP3    H175224   2.274   3.465   5.821 -0.5997  1.1402  0.3545
17911TIP3    H275225   2.279   3.384   5.694  1.1571 -0.5460  1.4718
17912TIP3   OH275226   2.903   4.223   0.446  0.3278 -0.0130  0.9576
17912TIP3    H175227   2.819   4.189   0.414  1.5770 -4.5806  2.0535
17912TIP3    H275228   2.905   4.197   0.538  2.1934  1.6030  1.4021
17913TIP3   OH275229   0.582   1.425  13.807 -0.0857  0.0819  0.6794
17913TIP3    H175230   0.619   1.508  13.838  1.2333  0.5607 -2.0238
17913TIP3    H275231   0.503   1.413  13.859  0.8342  1.9709  2.5802
17914TIP3   OH275232   3.848   6.184   4.607 -0.3610 -0.0439 -0.0467
17914TIP3    H175233   3.814   6.248   4.670 -0.8952 -0.6373  0.2657
17914TIP3    H275234   3.936   6.216   4.587  1.0870 -1.5565  3.4341
17915TIP3   OH275235   0.661   3.672  15.010 -0.9940 -0.1048 -0.1369
17915TIP3    H175236   0.580   3.719  15.026 -0.6999  0.8934 -1.4587
17915TIP3    H275237   0.730   3.730  15.042 -0.6939 -0.1276 -0.7223
17916TIP3   OH275238   1.863   1.909  12.208  0.4750  0.8049  0.4935
17916TIP3    H175239   1.790   1.967  12.187 -0.0505  0.4387  1.2830
17916TIP3    H275240   1.837   1.866  12.290  1.0434 -0.2229  0.1410
17917TIP3   OH275241   4.184   5.682  11.808  0.5107 -0.0856  0.1380
17917TIP3    H175242   4.105   5.668  11.756  0.8435 -0.6689 -0.2081
17917TIP3    H275243   4.177   5.619  11.879  0.9831 -0.5769 -0.2524
17918TIP3   OH275244   4.448   1.490  11.832  0.1013 -0.4002  0.1065
17918TIP3    H175245   4.526   1.543  11.814 -1.2679  1.7995  0.4582
17918TIP3    H275246   4.456   1.468  11.925  0.8891 -1.2077 -0.1427
17919TIP3   OH275247   0.523   5.451  14.812 -0.3540 -0.4358 -0.1623
17919TIP3    H175248   0.528   5.485  14.902  0.0581 -0.3295 -0.2261
17919TIP3    H275249   0.462   5.510  14.768  1.4829  1.1455 -0.6789
17920TIP3   OH275250   1.410   5.091   2.666  0.0224 -0.4145 -0.7479
17920TIP3    H175251   1.497   5.100   2.627  0.1996 -0.2009 -0.3022
17920TIP3    H275252   1.350   5.104   2.593  0.3462  0.5269 -0.8514
17921TIP3   OH275253   2.579   4.962  13.150  0.4607  0.1164  0.3191
17921TIP3    H175254   2.617   5.050  13.158  0.7964 -0.0089  0.1046
17921TIP3    H275255   2.605   4.933  13.063  0.0794 -0.0697  0.2686
17922TIP3   OH275256   5.418   2.259   2.472  0.3661 -0.3399  0.0557
17922TIP3    H175257   5.479   2.241   2.400 -0.4804 -1.4045 -0.4122
17922TIP3    H275258   5.352   2.190   2.465 -0.6102  0.4979  0.8697
17923TIP3   OH275259   6.524   4.679   3.065 -0.4111 -0.4822 -0.2079
17923TIP3    H175260   6.606   4.709   3.103 -0.1713 -0.1813 -0.9402
17923TIP3    H275261   6.552   4.619   2.995 -0.8564 -1.6457  0.5934
17924TIP3   OH275262   3.164   0.555  12.030  0.1961  0.3147  0.3314
17924TIP3    H175263   3.076   0.579  12.003  0.4032  1.6465  0.7730
17924TIP3    H275264   3.154   0.522  12.120  0.0324 -0.3513  0.0673
17925TIP3   OH275265   1.790   1.933   1.753  0.5896 -0.7278 -0.1988
17925TIP3    H175266   1.883   1.952   1.760  0.2209  0.6694  1.2992
17925TIP3    H275267   1.775   1.860   1.813  0.6748 -0.7824 -0.2444
17926TIP3   OH275268   2.740   2.972  15.621  0.5097 -0.2815 -0.3881
17926TIP3    H175269   2.692   2.891  15.603  3.3217 -1.9603 -0.5893
17926TIP3    H275270   2.770   3.001  15.536  1.9512 -0.6131 -0.0030
17927TIP3   OH275271   2.957   5.861  14.938 -0.0721  0.1408 -0.3412
17927TIP3    H175272   2.904   5.782  14.944 -0.6561  0.5920  0.6613
17927TIP3    H275273   2.906   5.921  14.885 -1.7654  1.4670  2.6361
17928TIP3   OH275274   4.727   1.709   0.920 -0.3212 -0.1452  0.0675
17928TIP3    H175275   4.752   1.735   1.009 -0.9472 -1.4308  0.6361
17928TIP3    H275276   4.747   1.616   0.916  1.5152  0.3044 -1.8020
17929TIP3   OH275277   3.268   4.865   0.205 -0.0125  0.3722  0.0057
17929TIP3    H175278   3.271   4.896   0.295  1.0291  0.1740  0.0382
17929TIP3    H275279   3.181   4.826   0.197 -1.2271  2.9660  0.0603
17930TIP3   OH275280   1.247   1.896   1.327  1.3109 -0.1783  0.3322
17930TIP3    H175281   1.208   1.960   1.267  1.4041 -0.4615 -0.0360
17930TIP3    H275282   1.321   1.941   1.366  1.2851 -0.0101  0.1882
17931TIP3   OH275283   0.106   1.292   6.618 -0.1575 -0.2709  0.2659
17931TIP3    H175284   0.082   1.363   6.677  1.6577  1.0568 -0.5449
17931TIP3    H275285   0.165   1.237   6.669  0.4832  0.2367  0.0828
17932TIP3   OH275286   6.001   5.969  16.678 -0.6192  0.0163 -0.2094
17932TIP3    H175287   5.921   6.014  16.650 -0.7474  1.0550  1.7429
17932TIP3    H275288   5.984   5.876  16.659 -1.6607  0.4181 -1.2601
17933TIP3   OH275289   2.064   4.442  15.172 -0.3618 -0.1583 -0.5577
17933TIP3    H175290   1.983   4.490  15.154 -0.1658  0.4706  0.2281
17933TIP3    H275291   2.113   4.444  15.090 -0.0065  1.6469 -0.3070
17934TIP3   OH275292   1.087   3.230  14.997 -0.1128  0.0821  0.3547
17934TIP3    H175293   1.120   3.211  14.909  1.0292 -0.0517  0.8152
17934TIP3    H275294   1.086   3.325  15.003  1.7734  0.0831  0.9277
17935TIP3   OH275295   3.696   5.452  15.896 -0.2434  0.3850  1.0791
17935TIP3    H175296   3.776   5.420  15.939 -0.0442 -0.7556 -0.1323
17935TIP3    H275297   3.647   5.495  15.967  0.8696  0.0216  2.0916
17936TIP3   OH275298   2.033   1.481   4.817  0.2173 -0.2877  0.1328
17936TIP3    H175299   2.075   1.486   4.903 -0.8611 -0.5627  0.6850
17936TIP3    H275300   1.962   1.418   4.829 -1.2085  1.1862 -0.4264
17937TIP3   OH275301   0.178   2.598   5.915  0.1024  0.4834 -0.3334
17937TIP3    H175302   0.137   2.522   5.874 -1.0105 -0.4530  2.3746
17937TIP3    H275303   0.261   2.565   5.950 -0.2842  0.5615  0.6668
17938TIP3   OH275304   4.605   5.868  16.693 -0.1225  0.1095 -0.3228
17938TIP3    H175305   4.596   5.957  16.658 -2.5685 -0.2039 -0.5553
17938TIP3    H275306   4.564   5.873  16.780 -0.1634 -0.7626 -0.2930
17939TIP3   OH275307   2.433   2.144  12.560  0.4683  0.0966 -0.7342
17939TIP3    H175308   2.372   2.123  12.631  3.9889  0.7547  2.6382
17939TIP3    H275309   2.398   2.224  12.522 -2.3156 -1.0814 -0.8355
17940TIP3   OH275310   1.170   2.006   0.196  0.8618  0.1298 -0.1975
17940TIP3    H175311   1.235   1.946   0.159 -0.0319 -1.5826  0.9382
17940TIP3    H275312   1.177   1.995   0.290 -1.1397 -0.1764 -0.0530
17941TIP3   OH275313   3.300   1.495  14.639  0.5920  0.4097 -1.0112
17941TIP3    H175314   3.243   1.422  14.663  1.5069  0.3902  1.2022
17941TIP3    H275315   3.243   1.555  14.591 -0.0623 -1.9495 -3.2793
17942TIP3   OH275316   6.792   2.955  14.564  0.3262  0.6833  0.7392
17942TIP3    H175317   6.882   2.922  14.561  0.1366  0.2332 -0.0379
17942TIP3    H275318   6.802   3.048  14.584  1.0309  0.8819 -0.4663
17943TIP3   OH275319   1.755   5.925  17.009 -0.2077 -0.8231  0.4616
17943TIP3    H175320   1.774   6.015  17.037 -0.2557 -0.5361 -0.4085
17943TIP3    H275321   1.667   5.930  16.972 -1.6550 -1.9461  3.5681
17944TIP3   OH275322   2.305   3.812  13.244  0.2063 -0.2434  0.2285
17944TIP3    H175323   2.230   3.813  13.184 -1.4082 -1.1270  2.1713
17944TIP3    H275324   2.306   3.901  13.281 -1.0679 -0.7636  1.5783
17945TIP3   OH275325   0.847   3.446   5.771  0.6871 -0.1512  0.4846
17945TIP3    H175326   0.931   3.467   5.812  0.1546 -2.4315  2.8824
17945TIP3    H275327   0.862   3.362   5.728  0.1080  0.2694 -0.5430
17946TIP3   OH275328   3.336   6.042   1.718 -0.0474  0.3747  0.9854
17946TIP3    H175329   3.349   6.020   1.626 -1.2556  0.1632  0.8572
17946TIP3    H275330   3.243   6.027   1.734  0.1212  0.5299  2.2113
17947TIP3   OH275331   2.003   3.534  13.934 -0.1584 -0.2698  0.7317
17947TIP3    H175332   2.012   3.602  13.867  0.3787 -0.0391  1.0354
17947TIP3    H275333   1.923   3.557  13.980  0.5685  0.7635  1.5042
17948TIP3   OH275334   1.568   5.458   1.954  0.3531  0.6724  0.3611
17948TIP3    H175335   1.608   5.372   1.962 -3.1168 -1.2126 -1.4176
17948TIP3    H275336   1.565   5.475   1.860  0.4166  2.4355  0.6581
17949TIP3   OH275337   3.668   6.567   6.011 -0.4147 -0.9341  0.1963
17949TIP3    H175338   3.741   6.506   6.012 -2.1337 -3.1856 -3.1868
17949TIP3    H275339   3.696   6.638   5.953 -0.1492 -0.7360  0.5607
17950TIP3   OH275340   5.310   1.710  16.191 -0.0521  0.1487  0.2259
17950TIP3    H175341   5.273   1.796  16.168  1.7103  0.2475 -2.4615
17950TIP3    H275342   5.325   1.715  16.285 -1.4679  2.1871  0.3842
17951TIP3   OH275343   4.522   0.122  12.304  0.1813  0.0763 -0.4253
17951TIP3    H175344   4.593   0.065  12.275 -0.2289 -0.7930  0.2683
17951TIP3    H275345   4.528   0.199  12.247  1.1119 -0.3898 -0.9615
17952TIP3   OH275346   3.478   5.868   5.249 -0.3275 -0.3616  0.4342
17952TIP3    H175347   3.398   5.878   5.198 -0.7087  0.1583  1.1221
17952TIP3    H275348   3.545   5.847   5.185 -0.5757  1.3973 -0.4244
17953TIP3   OH275349   0.250   4.280   4.012  0.2213  0.1947 -0.2522
17953TIP3    H175350   0.259   4.357   3.956 -1.0579  0.1182 -0.5784
17953TIP3    H275351   0.264   4.312   4.101 -2.6976  1.2879 -0.1396
17954TIP3   OH275352   4.445   6.747   0.203  0.1980 -0.2897  0.7071
17954TIP3    H175353   4.501   6.810   0.247 -0.7999  1.4475 -0.4319
17954TIP3    H275354   4.411   6.691   0.273 -1.9066  2.8137  2.2774
17955TIP3   OH275355   5.023   4.605   1.301  0.1922  0.3118  0.4167
17955TIP3    H175356   5.045   4.586   1.211  3.1510 -1.3920  1.4420
17955TIP3    H275357   5.031   4.522   1.347 -2.6997  0.8302  2.0363
17956TIP3   OH275358   6.523   5.863   5.023 -0.2802 -0.0540  0.2425
17956TIP3    H175359   6.560   5.949   5.005 -3.9107  1.4117 -0.6410
17956TIP3    H275360   6.517   5.859   5.119 -1.4472  1.3396  0.2517
17957TIP3   OH275361   1.541   0.295   2.295 -0.2167 -0.3429 -0.0349
17957TIP3    H175362   1.594   0.373   2.277  2.6235 -1.7453  1.9114
17957TIP3    H275363   1.529   0.254   2.209  1.8104  0.0401 -0.5269
17958TIP3   OH275364   5.583   2.148   0.160  0.2095 -0.1248 -0.1328
17958TIP3    H175365   5.522   2.086   0.119 -1.7568  1.8164 -0.2640
17958TIP3    H275366   5.568   2.138   0.254  1.7937 -1.6843 -0.0219
17959TIP3   OH275367   4.820   1.752  13.083  0.1577 -0.6614 -0.1192
17959TIP3    H175368   4.727   1.738  13.067 -0.0353  0.8306 -0.4222
17959TIP3    H275369   4.850   1.802  13.007  0.9242 -0.0365  0.5807
17960TIP3   OH275370   3.217   0.251   1.446  0.1465  0.0937 -0.3019
17960TIP3    H175371   3.207   0.324   1.508 -1.0823  1.4760 -2.0745
17960TIP3    H275372   3.287   0.198   1.483  0.5008  1.7252  1.4627
17961TIP3   OH275373   6.293   0.242   4.376 -0.1439  0.1012  0.1368
17961TIP3    H175374   6.316   0.330   4.345  1.4934 -0.9737 -1.8187
17961TIP3    H275375   6.306   0.246   4.470  1.0200  1.6452 -0.0696
17962TIP3   OH275376   3.826   1.875  12.924 -0.6067 -0.3731  0.5328
17962TIP3    H175377   3.914   1.841  12.910 -1.3845 -1.8872 -0.6952
17962TIP3    H275378   3.832   1.920  13.009  2.0853  2.0885 -0.8387
17963TIP3   OH275379   4.182   0.126  11.124 -0.9888 -0.1060 -0.3107
17963TIP3    H175380   4.261   0.085  11.088  0.3217  2.5019 -0.4977
17963TIP3    H275381   4.120   0.125  11.051 -1.0150 -1.7619 -0.2971
17964TIP3   OH275382   2.968   0.170  13.890 -0.4848  0.1050  0.0597
17964TIP3    H175383   3.025   0.159  13.966  2.1821  0.9731 -1.7100
17964TIP3    H275384   2.920   0.251  13.907  1.8654  1.6221 -0.1596
17965TIP3   OH275385   2.571   2.063  13.951  0.5334 -0.0262 -0.8160
17965TIP3    H175386   2.507   1.992  13.960 -1.1180  1.4649 -0.4839
17965TIP3    H275387   2.589   2.068  13.858 -0.4583  0.0426 -1.0174
17966TIP3   OH275388   2.010   4.835   0.252 -0.2547 -0.5297 -0.3126
17966TIP3    H175389   1.976   4.807   0.337 -1.9320  0.8905 -0.5009
17966TIP3    H275390   2.075   4.902   0.273 -1.0900  0.2394 -0.1726
17967TIP3   OH275391   1.399   4.950   1.508  0.0876 -0.5469 -0.1490
17967TIP3    H175392   1.361   4.921   1.425 -0.4033 -0.0108 -0.1127
17967TIP3    H275393   1.479   4.898   1.517 -0.1251 -0.9778 -0.7039
17968TIP3   OH275394   2.359   4.312  13.598 -0.5366 -0.0348  0.6366
17968TIP3    H175395   2.345   4.386  13.657  1.2684  2.5216 -1.9975
17968TIP3    H275396   2.421   4.256  13.644  0.6798  1.8072  1.2806
17969TIP3   OH275397   6.144   0.525   6.749  0.0489 -0.1428  0.0496
17969TIP3    H175398   6.159   0.564   6.663  0.5010 -0.3754  0.0217
17969TIP3    H275399   6.228   0.486   6.773 -0.7614 -2.3560 -0.5513
17970TIP3   OH275400   2.991   6.802   4.732 -0.2869  0.0098 -0.2146
17970TIP3    H175401   3.058   6.775   4.669 -0.5783  0.6276 -0.7969
17970TIP3    H275402   3.033   6.795   4.817  0.8507  1.3982 -0.6557
17971TIP3   OH275403   3.214   3.159  12.323  0.0439 -0.0149 -0.3473
17971TIP3    H175404   3.197   3.097  12.395 -1.5562  0.4282 -0.3300
17971TIP3    H275405   3.262   3.108  12.258  0.6298 -0.6909  0.6083
17972TIP3   OH275406   2.806   3.833  13.898 -0.1623  0.5416  0.2911
17972TIP3    H175407   2.767   3.918  13.875 -1.6155 -0.2480 -0.2303
17972TIP3    H275408   2.848   3.803  13.818 -1.2681 -0.0909 -0.0577
17973TIP3   OH275409   0.823   3.978  13.614 -0.5860 -0.1992 -0.3627
17973TIP3    H175410   0.855   3.971  13.704 -1.2466 -0.5810 -0.1586
17973TIP3    H275411   0.824   3.888  13.582  0.7667  0.0666 -1.1312
17974TIP3   OH275412   1.759   3.643  16.489 -0.0044  0.7600 -0.6579
17974TIP3    H175413   1.667   3.618  16.481 -0.2062  1.1074  0.5421
17974TIP3    H275414   1.765   3.727  16.443 -0.7309  1.7438  1.0040
17975TIP3   OH275415   4.650   1.719   4.066  0.3034  0.4017 -0.4856
17975TIP3    H175416   4.736   1.744   4.032  1.5280 -1.6331  0.9451
17975TIP3    H275417   4.598   1.799   4.064  2.1165  1.5740 -1.7370
17976TIP3   OH275418   2.277   2.895  12.163  0.2672 -0.0089 -0.0265
17976TIP3    H175419   2.277   2.800  12.160 -0.2252 -0.0713  1.4635
17976TIP3    H275420   2.186   2.918  12.183  0.1036  0.8308 -1.6208
17977TIP3   OH275421   6.439   5.276  11.560  0.0117 -0.4064  0.1611
17977TIP3    H175422   6.469   5.309  11.645  0.5169 -2.5551  0.8476
17977TIP3    H275423   6.492   5.198  11.545 -0.6971 -0.5366 -1.7260
17978TIP3   OH275424   3.099   5.778   2.517  0.4256  0.1534  0.2001
17978TIP3    H175425   3.192   5.769   2.500  0.4568  0.7455  0.0267
17978TIP3    H275426   3.093   5.840   2.590  0.1871 -0.2331  0.5108
17979TIP3   OH275427   4.071   5.939   1.975 -0.1502  0.1647  0.1684
17979TIP3    H175428   4.059   5.852   1.934 -0.1723  0.5739 -0.7140
17979TIP3    H275429   4.139   5.925   2.040  0.2803 -0.4001 -0.3893
17980TIP3   OH275430   6.056   0.271  12.792 -0.3219 -0.0657  0.1287
17980TIP3    H175431   6.113   0.299  12.863  1.7190  2.0249 -2.2407
17980TIP3    H275432   5.970   0.308  12.813  0.4510  1.1838  1.1199
17981TIP3   OH275433   5.111   0.343  16.306  0.1976 -0.3843 -0.0185
17981TIP3    H175434   5.143   0.272  16.363  1.3223  0.3767  0.3137
17981TIP3    H275435   5.131   0.314  16.218 -0.4379 -1.0250  0.0480
17982TIP3   OH275436   3.532   4.086  11.494 -0.1139 -0.0463 -0.7633
17982TIP3    H175437   3.498   4.171  11.522  0.2319  0.2021 -1.0964
17982TIP3    H275438   3.541   4.093  11.399  0.6147 -0.2002 -0.7077
17983TIP3   OH275439   2.996   5.936  11.734  0.1218  0.2427  0.2554
17983TIP3    H175440   3.020   5.848  11.764  0.6489  0.2455 -0.1469
17983TIP3    H275441   2.902   5.933  11.723 -0.0956  0.2301  1.9052
17984TIP3   OH275442   2.589   2.834  15.874 -0.2235  0.2575  0.0120
17984TIP3    H175443   2.589   2.811  15.781 -1.1808 -1.7107  0.4802
17984TIP3    H275444   2.584   2.750  15.919 -1.6086  1.2978  1.8205
17985TIP3   OH275445   5.580   2.579   0.633  0.0052  0.3784  0.1555
17985TIP3    H175446   5.667   2.611   0.608  0.0648  0.8377  0.9224
17985TIP3    H275447   5.580   2.585   0.729 -0.2438 -1.2629  0.2727
17986TIP3   OH275448   3.360   2.589  13.200  0.6119  0.7639 -0.2177
17986TIP3    H175449   3.303   2.573  13.124  0.5318 -1.2459  0.2211
17986TIP3    H275450   3.445   2.554  13.172  0.5785  0.0149  0.5976
17987TIP3   OH275451   3.158   1.982   2.124 -0.4074 -0.9067  0.1798
17987TIP3    H175452   3.252   1.964   2.126 -0.4198 -0.9299  0.6226
17987TIP3    H275453   3.134   1.975   2.032  0.4888  1.4794 -0.2674
17988TIP3   OH275454   1.905   6.420  14.048 -0.2833  0.2488 -0.0239
17988TIP3    H175455   1.912   6.388  14.138  0.9172  1.5395  0.3567
17988TIP3    H275456   1.822   6.384  14.016 -0.5932 -0.4335  1.5013
17989TIP3   OH275457   5.618   3.090  16.255  0.2639 -0.5510  0.4160
17989TIP3    H175458   5.633   3.184  16.258  0.0678 -0.4724 -0.9017
17989TIP3    H275459   5.704   3.051  16.271  0.4593 -0.1438  0.3556
17990TIP3   OH275460   4.413   6.659  11.621  0.3221 -0.0391  0.0472
17990TIP3    H175461   4.352   6.673  11.693 -0.5524 -0.3514 -0.6092
17990TIP3    H275462   4.495   6.634  11.662 -0.8355 -2.6646  0.8721
17991TIP3   OH275463   1.411   6.781   2.132  0.0771 -0.1278  0.3352
17991TIP3    H175464   1.342   6.731   2.088 -1.4648  1.3261  1.0395
17991TIP3    H275465   1.373   6.804   2.217  2.2599 -1.1561  1.6238
17992TIP3   OH275466   1.504   0.787  13.899  0.2994  0.0572  0.5806
17992TIP3    H175467   1.548   0.708  13.931  0.6314 -0.0716 -0.1799
17992TIP3    H275468   1.434   0.753  13.842 -0.2203  0.2837  1.0838
17993TIP3   OH275469   3.016   1.341   4.740  0.0788  0.3144 -0.2128
17993TIP3    H175470   3.038   1.322   4.648  0.0295 -0.1167 -0.1384
17993TIP3    H275471   2.920   1.344   4.741 -0.0802 -3.3035  0.5078
17994TIP3   OH275472   3.374   3.363  16.077 -0.1188  0.1362 -0.3720
17994TIP3    H175473   3.445   3.300  16.090  0.7419  0.3300 -3.5144
17994TIP3    H275474   3.328   3.331  15.999 -2.1933  1.1654  0.4102
17995TIP3   OH275475   0.142   5.194  12.716  0.9801 -0.2075 -0.1948
17995TIP3    H175476   0.050   5.177  12.695  1.5010 -2.4485 -0.8331
17995TIP3    H275477   0.142   5.205  12.811 -0.1560  1.3177 -0.3527
17996TIP3   OH275478   6.485   1.175   1.414 -0.2040  0.0661  0.1966
17996TIP3    H175479   6.511   1.102   1.470 -1.8700  0.6815  1.8344
17996TIP3    H275480   6.493   1.252   1.470 -1.8377  0.7005 -0.4067
17997TIP3   OH275481   1.417   2.032   0.949  0.1422  0.2437  0.0326
17997TIP3    H175482   1.409   1.959   1.010 -0.0912 -0.4898 -0.8715
17997TIP3    H275483   1.511   2.039   0.933  0.3109  1.1708  1.3498
17998TIP3   OH275484   4.597   6.005   1.165  0.3620  0.5105 -0.1653
17998TIP3    H175485   4.686   6.039   1.173  0.4893  0.7776 -2.3633
17998TIP3    H275486   4.609   5.911   1.148  0.1972  0.3927  0.3691
17999TIP3   OH275487   0.682   2.787  11.438  0.7279 -0.4093  0.3408
17999TIP3    H175488   0.657   2.879  11.432  1.5115  0.0213  3.2307
17999TIP3    H275489   0.763   2.781  11.387 -1.3646 -0.4142 -3.2338
18000TIP3   OH275490   3.589   6.089  14.271 -0.4172 -0.0901 -0.0838
18000TIP3    H175491   3.583   6.134  14.356  2.9959 -1.0443  0.7411
18000TIP3    H275492   3.590   5.996  14.294  1.7942 -0.3292 -1.0455
18001TIP3   OH275493   0.039   4.682   4.238 -0.5081 -0.1844  0.4191
18001TIP3    H175494   0.090   4.706   4.315  2.0920 -1.7728 -0.7404
18001TIP3    H275495   0.012   4.591   4.254  0.9865 -0.8924 -1.0114
18002TIP3   OH275496   5.964   0.681   1.121 -0.4439  0.4900 -0.1085
18002TIP3    H175497   5.973   0.631   1.040 -1.4504  2.3814 -1.4383
18002TIP3    H275498   5.889   0.642   1.165  0.6578 -1.1282  0.3619
18003TIP3   OH275499   4.116   4.596  15.585  0.3050 -0.6228  0.5409
18003TIP3    H175500   4.197   4.547  15.567  0.6713  0.3290 -0.4605
18003TIP3    H275501   4.133   4.684  15.551 -0.4821  0.1089  2.0108
18004TIP3   OH275502   4.761   5.432   0.790  0.5986  0.2197 -0.0207
18004TIP3    H175503   4.712   5.501   0.745 -0.1885 -0.7363 -0.6493
18004TIP3    H275504   4.836   5.477   0.829 -0.7953  1.6909  0.9828
18005TIP3   OH275505   1.502   4.021  10.934  0.3347  0.5706  0.3177
18005TIP3    H175506   1.469   3.974  10.858  2.8528  0.7130 -0.9349
18005TIP3    H275507   1.490   4.113  10.912  0.2234  0.5940  0.4784
18006TIP3   OH275508   2.460   2.400   1.945 -0.1087 -0.0417  0.1934
18006TIP3    H175509   2.389   2.423   1.885 -1.3767 -1.8321  0.9586
18006TIP3    H275510   2.512   2.337   1.896  0.4140  0.5325 -0.0010
18007TIP3   OH275511   1.786   3.172   3.237  0.0493  0.1900 -0.0622
18007TIP3    H175512   1.716   3.190   3.173 -0.4308  0.1043  0.4357
18007TIP3    H275513   1.864   3.211   3.198 -0.2839  0.3282 -0.6071
18008TIP3   OH275514   3.507   2.332  13.285 -0.2896 -0.3106  1.1409
18008TIP3    H175515   3.450   2.289  13.221  0.2114  0.6037  0.0611
18008TIP3    H275516   3.557   2.395  13.233 -0.2263  0.7899  2.5203
18009TIP3   OH275517   1.966   2.123   3.476  0.0285  0.0881  0.0205
18009TIP3    H175518   1.926   2.197   3.429  2.6288  0.9741 -0.8642
18009TIP3    H275519   2.051   2.110   3.434  0.6655 -1.8210  1.7888
18010TIP3   OH275520   3.656   5.815   5.570  0.4607 -0.4276  0.3229
18010TIP3    H175521   3.660   5.725   5.603 -0.4682 -0.4209  0.4503
18010TIP3    H275522   3.564   5.830   5.552  0.6845  0.3172 -0.2267
18011TIP3   OH275523   5.920   0.721   6.578 -0.6466 -0.3644  0.3018
18011TIP3    H175524   5.856   0.744   6.645 -1.1453 -1.1417  0.0865
18011TIP3    H275525   5.869   0.702   6.500 -0.0323  1.1500 -0.4920
18012TIP3   OH275526   5.530   5.415  14.223 -0.6684  0.6661  0.1946
18012TIP3    H175527   5.531   5.510  14.213 -2.8456  0.5559 -1.5475
18012TIP3    H275528   5.464   5.400  14.291 -0.3914  0.4156  0.4034
18013TIP3   OH275529   1.232   4.046   4.236  0.1832 -0.1269  0.5083
18013TIP3    H175530   1.258   4.120   4.291 -1.4506 -0.3325  1.6014
18013TIP3    H275531   1.242   3.969   4.292  0.6934 -0.6134 -0.2301
18014TIP3   OH275532   3.874   6.703   2.755 -0.0384 -0.5419  0.7935
18014TIP3    H175533   3.926   6.712   2.676  1.0405 -0.4958  1.4938
18014TIP3    H275534   3.905   6.622   2.795 -0.7913 -0.7252  1.0166
18015TIP3   OH275535   0.064   0.296  15.062  0.2247 -0.2124 -0.0033
18015TIP3    H175536   0.107   0.244  15.129  1.0096  0.0681 -0.2885
18015TIP3    H275537   0.065   0.240  14.984 -1.3619 -0.8404  0.4078
18016TIP3   OH275538   1.058   3.816   4.551  0.6598  0.8657  0.1372
18016TIP3    H175539   0.979   3.829   4.498  0.5653 -1.0134 -0.2041
18016TIP3    H275540   1.127   3.795   4.487  0.7133 -0.6414  0.6595
18017TIP3   OH275541   0.312   6.534   3.758 -0.4282  0.4221  0.0212
18017TIP3    H175542   0.342   6.526   3.849 -0.4087  0.3843  0.0116
18017TIP3    H275543   0.333   6.450   3.718  3.5317  1.8486 -1.1743
18018TIP3   OH275544   6.112   5.001   0.617 -0.0767 -0.3481  0.2669
18018TIP3    H175545   6.100   5.070   0.552 -0.1223  0.6749  1.3553
18018TIP3    H275546   6.204   5.005   0.640  0.0823 -1.1393 -0.1884
18019TIP3   OH275547   1.289   0.372  14.793  0.5418  0.3422 -0.1378
18019TIP3    H175548   1.339   0.368  14.711  0.0791 -0.3344 -0.3904
18019TIP3    H275549   1.356   0.366  14.861  0.7940 -1.0185 -0.4755
18020TIP3   OH275550   1.553   1.657  16.590 -0.1004 -0.1688  0.3902
18020TIP3    H175551   1.477   1.697  16.549  0.0690 -0.2869 -0.0342
18020TIP3    H275552   1.572   1.580  16.538 -0.5034 -0.8870  1.2913
18021TIP3   OH275553   6.057   0.017   6.325  0.1667 -0.2568  0.8511
18021TIP3    H175554   5.972   0.049   6.354  0.6339  1.0134  0.8667
18021TIP3    H275555   6.120   0.076   6.367  1.0310 -0.9146  0.4927
18022TIP3   OH275556   1.400   6.563   3.300 -0.0426 -0.6800  0.1454
18022TIP3    H175557   1.463   6.556   3.228  0.1516 -0.2160  0.2659
18022TIP3    H275558   1.395   6.475   3.337 -1.0428 -1.1805 -1.1876
18023TIP3   OH275559   2.911   0.963   2.355  0.0056  0.0904  0.1938
18023TIP3    H175560   2.969   0.887   2.362  0.8297  0.7069  0.1608
18023TIP3    H275561   2.948   1.016   2.285 -1.5073 -0.2712 -0.8999
18024TIP3   OH275562   1.049   2.940   2.519 -0.0839 -0.1414 -0.3411
18024TIP3    H175563   1.135   2.971   2.490 -0.1004  0.5210  0.2752
18024TIP3    H275564   1.019   3.008   2.580 -0.8009 -0.6409 -0.1291
18025TIP3   OH275565   2.709   5.547   2.832  0.2081 -0.3656  0.5826
18025TIP3    H175566   2.775   5.594   2.782  0.1275 -0.4491  0.3986
18025TIP3    H275567   2.670   5.614   2.888  1.4504 -0.6014  1.7527
18026TIP3   OH275568   5.488   0.586  11.601  0.4518  0.0656  1.4070
18026TIP3    H175569   5.572   0.604  11.643  1.4234 -1.2110  0.0855
18026TIP3    H275570   5.484   0.491  11.596 -0.5627  0.1535  0.4403
18027TIP3   OH275571   0.030   0.326  15.368  0.4289  0.2588 -0.3987
18027TIP3    H175572   0.014   0.329  15.274 -0.1772 -0.7253 -0.3299
18027TIP3    H275573   0.109   0.273  15.378  0.5673  0.4714 -0.3610
18028TIP3   OH275574   1.530   0.361  15.593 -0.6393  0.0025 -0.2445
18028TIP3    H175575   1.559   0.297  15.657 -1.4010  1.6279  1.7758
18028TIP3    H275576   1.601   0.424  15.587 -0.2907 -0.4937 -1.5156
18029TIP3   OH275577   6.356   6.300  10.851 -0.1107 -0.4221 -0.4150
18029TIP3    H175578   6.271   6.311  10.894 -1.5745  0.9505 -3.4935
18029TIP3    H275579   6.339   6.320  10.759  3.9477  1.7036 -0.7977
18030TIP3   OH275580   6.454   4.806  16.359  0.1404 -0.6530 -0.2405
18030TIP3    H175581   6.523   4.825  16.423  0.5808 -0.4421 -0.7716
18030TIP3    H275582   6.385   4.869  16.378 -0.2397 -1.3819  0.8013
18031TIP3   OH275583   1.139   2.617   2.255 -0.4756 -0.2721  0.0995
18031TIP3    H175584   1.137   2.528   2.290 -1.5886 -0.4489 -0.3852
18031TIP3    H275585   1.055   2.655   2.279 -0.3734  0.3431 -0.4856
18032TIP3   OH275586   4.807   6.786   5.423  0.5342  0.3338 -0.3658
18032TIP3    H175587   4.839   6.852   5.361  1.0399 -0.7229 -1.2654
18032TIP3    H275588   4.855   6.803   5.503  0.6395  1.0801 -0.5861
18033TIP3   OH275589   4.395   6.691  12.319  0.1681  0.3215  0.6025
18033TIP3    H175590   4.420   6.777  12.352 -1.3832  0.9648  0.1392
18033TIP3    H275591   4.302   6.699  12.299  1.1757  0.2550 -4.7693
18034TIP3   OH275592   5.012   5.063   5.838  0.2844  0.3355 -0.1680
18034TIP3    H175593   5.043   5.106   5.917 -1.7376  0.7738  0.4307
18034TIP3    H275594   4.961   4.988   5.870  2.4150 -1.6143 -1.1565
18035TIP3   OH275595   6.109   2.499   1.785  0.9717  0.4434 -0.6681
18035TIP3    H175596   6.094   2.408   1.760  0.8313  0.5713 -1.0545
18035TIP3    H275597   6.191   2.498   1.834  0.0315 -0.1830  0.9638
18036TIP3   OH275598   0.721   4.729  13.498  0.0015 -0.0877  0.0540
18036TIP3    H175599   0.711   4.807  13.443 -1.2780 -1.0603 -1.1350
18036TIP3    H275600   0.674   4.661  13.450  1.1991 -1.6101  1.0302
18037TIP3   OH275601   0.163   5.513   6.446  1.1344 -0.6889  0.2442
18037TIP3    H175602   0.128   5.569   6.515 -2.3796 -2.6820  0.1803
18037TIP3    H275603   0.220   5.451   6.492  2.0659  0.5261  0.7720
18038TIP3   OH275604   6.113   6.164   3.641  0.5043 -0.3263  0.0871
18038TIP3    H175605   6.100   6.168   3.546  0.5823 -1.1795  0.0324
18038TIP3    H275606   6.203   6.134   3.651  0.4805 -0.2790  0.4267
18039TIP3   OH275607   6.768   5.023  13.976  0.0866  0.1147  0.0462
18039TIP3    H175608   6.721   5.084  14.032 -0.5164  2.1456 -2.5908
18039TIP3    H275609   6.859   5.030  14.004 -0.2443  0.8977  0.9500
18040TIP3   OH275610   2.392   0.194  14.078  0.5053  0.1561  0.4245
18040TIP3    H175611   2.356   0.157  13.998 -0.3594 -0.3645  1.0391
18040TIP3    H275612   2.419   0.283  14.055  1.1364 -0.3108 -0.6660
18041TIP3   OH275613   0.747   2.069   3.668  0.2395 -0.5950 -0.1509
18041TIP3    H175614   0.672   2.126   3.687  1.5630  1.2633 -0.3156
18041TIP3    H275615   0.788   2.055   3.754  0.3208 -0.7336 -0.2122
18042TIP3   OH275616   2.822   1.067   1.278 -0.9899  0.1468  0.4527
18042TIP3    H175617   2.805   1.054   1.185  0.4379 -0.4732  0.2749
18042TIP3    H275618   2.912   1.098   1.282 -0.8826 -0.3033  1.6665
18043TIP3   OH275619   1.079   5.379  13.940 -0.1902  0.1726  0.8743
18043TIP3    H175620   1.000   5.378  13.993  0.2487  0.7795  1.5393
18043TIP3    H275621   1.150   5.358  14.001  0.4401  1.8137  0.7244
18044TIP3   OH275622   3.173   2.136   1.275 -0.3260  0.1953 -0.0862
18044TIP3    H175623   3.198   2.187   1.198 -1.8702 -1.1735 -1.5427
18044TIP3    H275624   3.083   2.163   1.294 -0.2217 -0.0427  0.7492
18045TIP3   OH275625   1.503   4.180  16.638  0.6317 -0.1974 -0.3827
18045TIP3    H175626   1.591   4.143  16.643  0.6139 -0.0206  1.9692
18045TIP3    H275627   1.446   4.109  16.667  0.1002  0.0515 -0.8192
18046TIP3   OH275628   6.356   1.307   2.804 -0.5700  0.4736 -0.1780
18046TIP3    H175629   6.404   1.359   2.739 -0.8370 -0.4528 -1.1315
18046TIP3    H275630   6.422   1.253   2.846 -0.3161  1.4599  0.6989
18047TIP3   OH275631   2.187   6.585   5.065  0.1527 -0.8156 -0.1878
18047TIP3    H175632   2.222   6.659   5.016  1.7228 -1.8132 -0.6050
18047TIP3    H275633   2.108   6.619   5.107  1.1127  1.2431  0.0206
18048TIP3   OH275634   6.089   6.098   1.023  0.0214  0.0567  0.5968
18048TIP3    H175635   6.118   6.112   0.933 -0.8581 -0.1914  0.2735
18048TIP3    H275636   6.053   6.183   1.050 -1.6067 -0.4337  0.0078
18049TIP3   OH275637   3.731   5.807  14.094  0.6242  0.0235  0.3414
18049TIP3    H175638   3.694   5.823  14.181  1.5092 -0.4400  0.8013
18049TIP3    H275639   3.654   5.796  14.038  0.0450  0.6869  0.9913
18050TIP3   OH275640   4.813   1.811  11.330 -1.0081 -0.1585 -0.3624
18050TIP3    H175641   4.830   1.777  11.243  0.0146  0.6565 -0.4877
18050TIP3    H275642   4.845   1.743  11.389  1.7043  0.8365 -0.6023
18051TIP3   OH275643   2.169   6.364  11.654 -0.0400  0.0428  0.0808
18051TIP3    H175644   2.125   6.423  11.593 -0.9417 -0.2304  0.4591
18051TIP3    H275645   2.116   6.368  11.734  1.7237  1.1998  1.2162
18052TIP3   OH275646   1.618   1.669   2.728 -0.7632  0.2143 -0.1500
18052TIP3    H175647   1.664   1.698   2.806 -1.1257 -0.7045  0.4134
18052TIP3    H275648   1.637   1.736   2.662  0.7269  0.2406  0.2986
18053TIP3   OH275649   3.270   4.056  12.976 -0.4029  0.1973 -0.4117
18053TIP3    H175650   3.251   3.964  12.993 -0.7683  0.2140 -0.7154
18053TIP3    H275651   3.184   4.096  12.963 -0.1845  0.3141 -1.5805
18054TIP3   OH275652   3.059   1.008   3.520 -0.5895 -0.0203  0.3480
18054TIP3    H175653   3.076   1.066   3.446 -2.7023 -0.5269 -0.5448
18054TIP3    H275654   3.043   1.067   3.594 -1.1011  0.4968 -0.1840
18055TIP3   OH275655   6.620   1.518  11.877  0.2999  0.9243 -0.2572
18055TIP3    H175656   6.684   1.568  11.827 -0.1457  0.3819 -1.3957
18055TIP3    H275657   6.551   1.497  11.814  0.0571 -0.3658  0.4186
18056TIP3   OH275658   0.159   2.959   3.284  0.1854  0.0637 -0.0045
18056TIP3    H175659   0.082   2.973   3.340 -0.8307 -2.7279 -0.6042
18056TIP3    H275660   0.179   3.045   3.248 -2.3114  0.9607  0.6609
18057TIP3   OH275661   6.781   0.751  13.979 -0.3889 -0.0812 -0.0295
18057TIP3    H175662   6.698   0.744  14.027  0.6513 -0.0727  1.7675
18057TIP3    H275663   6.766   0.823  13.917 -1.1626  1.0328  1.4230
18058TIP3   OH275664   0.846   6.258   2.722 -0.3332  0.8607 -0.5868
18058TIP3    H175665   0.856   6.224   2.633 -0.5022  1.0682 -0.6855
18058TIP3    H275666   0.851   6.180   2.778  1.9542  0.9542 -0.6066
18059TIP3   OH275667   2.384   3.613  17.119 -0.1051 -0.0577  0.5298
18059TIP3    H175668   2.370   3.541  17.179 -0.2304  0.3395  0.9794
18059TIP3    H275669   2.362   3.691  17.169  0.2192  0.3061  0.1117
18060TIP3   OH275670   0.956   2.839  14.778 -0.1214  0.5786  0.1795
18060TIP3    H175671   0.991   2.869  14.694  0.5106 -1.7718 -0.4611
18060TIP3    H275672   1.004   2.758  14.796 -1.5452  0.0796  1.9078
18061TIP3   OH275673   2.278   4.960   2.899  0.9021 -0.1841 -0.6235
18061TIP3    H175674   2.238   5.023   2.839  1.1205 -0.0341 -0.6154
18061TIP3    H275675   2.372   4.974   2.888  0.9375  0.2801  0.2134
18062TIP3   OH275676   1.217   5.590   6.344 -0.5855  0.2046 -0.1510
18062TIP3    H175677   1.295   5.605   6.397 -1.2440 -0.4704  1.0237
18062TIP3    H275678   1.145   5.626   6.396 -1.4477 -1.8929  0.1748
18063TIP3   OH275679   5.426   5.323  12.099 -0.1678  0.3508 -0.9956
18063TIP3    H175680   5.436   5.228  12.090  1.8193  0.3895  0.4249
18063TIP3    H275681   5.438   5.357  12.010  2.4587 -0.4951 -1.0166
18064TIP3   OH275682   0.425   5.449  12.780 -0.2159  0.0020  0.3854
18064TIP3    H175683   0.514   5.468  12.749 -0.5268  0.4752 -0.2293
18064TIP3    H275684   0.437   5.382  12.846  0.6752  0.5704  0.8138
18065TIP3   OH275685   1.241   3.086  10.672 -0.6910 -0.1750  0.6637
18065TIP3    H175686   1.208   3.155  10.614  1.4322  0.5574  0.2901
18065TIP3    H275687   1.176   3.082  10.743 -2.1623  0.4368 -0.6178
18066TIP3   OH275688   3.559   6.393   0.677  0.0975 -0.2259  0.0989
18066TIP3    H175689   3.584   6.324   0.614 -2.3498 -0.8109 -0.2844
18066TIP3    H275690   3.467   6.411   0.657 -0.2892  0.6476  2.5618
18067TIP3   OH275691   6.297   2.074   0.556 -0.2200  0.2930 -0.8731
18067TIP3    H175692   6.301   2.169   0.564  1.3299  0.0929  1.0216
18067TIP3    H275693   6.333   2.056   0.469 -0.2907  1.4167 -1.1395
18068TIP3   OH275694   6.088   4.484   1.531 -0.3121 -1.0342 -0.3249
18068TIP3    H175695   6.145   4.425   1.481 -0.7837 -1.5325 -0.2828
18068TIP3    H275696   6.084   4.446   1.619  0.2077 -0.3707 -0.0141
18069TIP3   OH275697   4.555   6.558  16.853 -0.0159  0.0360  0.1740
18069TIP3    H175698   4.562   6.578  16.946 -0.3907  0.8358  0.0369
18069TIP3    H275699   4.637   6.590  16.815  0.2469 -0.5185  0.2624
18070TIP3   OH275700   4.338   1.896  16.734 -0.2915 -0.4710  0.5004
18070TIP3    H175701   4.414   1.911  16.789 -0.9550 -0.8276  1.5315
18070TIP3    H275702   4.367   1.916  16.645  1.1077 -0.9534  0.8423
18071TIP3   OH275703   6.239   0.564   4.140 -0.3442  0.1293  0.2468
18071TIP3    H175704   6.152   0.530   4.161 -0.1511 -0.7199 -0.3269
18071TIP3    H275705   6.287   0.556   4.222 -0.5252 -0.2691  0.3162
18072TIP3   OH275706   1.490   4.598   4.863  0.0374 -0.6894 -0.0395
18072TIP3    H175707   1.467   4.601   4.956 -0.2130 -0.3701 -0.1095
18072TIP3    H275708   1.472   4.507   4.837  0.8824 -0.9924  0.4143
18073TIP3   OH275709   2.373   3.244  13.400  0.2264  0.3708  0.1866
18073TIP3    H175710   2.321   3.173  13.437 -0.0523  0.2717 -0.3912
18073TIP3    H275711   2.309   3.304  13.361  0.3458  1.7416  2.0133
18074TIP3   OH275712   6.529   0.803   3.944  0.2398 -0.3410  0.6828
18074TIP3    H175713   6.448   0.761   3.916 -1.5117  3.5087 -0.2369
18074TIP3    H275714   6.514   0.825   4.036  0.7255 -0.6613  0.8440
18075TIP3   OH275715   0.584   3.963   0.493 -0.2867 -0.4887 -0.2246
18075TIP3    H175716   0.490   3.970   0.513  0.6665  0.2157  4.6557
18075TIP3    H275717   0.612   4.053   0.474 -0.0524 -0.2551  1.2019
18076TIP3   OH275718   0.727   3.667   4.197  0.3826 -0.4394 -0.4722
18076TIP3    H175719   0.776   3.715   4.130  0.9468  1.2097  1.1068
18076TIP3    H275720   0.718   3.579   4.160  1.9974  0.0227 -2.0733
18077TIP3   OH275721   6.358   2.331   4.101 -0.0205 -0.4722  0.2278
18077TIP3    H175722   6.342   2.237   4.099  1.2809 -0.6829 -1.3090
18077TIP3    H275723   6.447   2.340   4.135 -0.4095  0.2550  1.0846
18078TIP3   OH275724   2.980   2.498  13.237  0.2847 -0.1466 -0.6206
18078TIP3    H175725   3.041   2.424  13.246  1.6034  1.0776  0.6527
18078TIP3    H275726   2.936   2.503  13.322  1.2242  1.4167 -0.2168
18079TIP3   OH275727   6.425   2.126  12.409 -0.1471 -0.4877 -0.1687
18079TIP3    H175728   6.473   2.209  12.419 -0.7957 -0.1331  0.0143
18079TIP3    H275729   6.478   2.061  12.455  1.0365 -0.4265 -1.4060
18080TIP3   OH275730   3.487   6.608   4.964 -0.1375  0.1926 -0.1723
18080TIP3    H175731   3.555   6.661   4.922 -0.8419  1.0916 -0.2112
18080TIP3    H275732   3.463   6.658   5.043 -0.2759 -0.4492  0.1971
18081TIP3   OH275733   0.545   0.135  11.327 -0.4832  0.5852  0.0634
18081TIP3    H175734   0.598   0.086  11.264 -1.6004  2.2374 -2.2231
18081TIP3    H275735   0.595   0.131  11.408  1.9223 -0.0080 -1.3993
18082TIP3   OH275736   0.551   6.336   3.585 -0.6706 -0.5384 -0.0569
18082TIP3    H175737   0.623   6.346   3.647 -0.3629  0.0823 -0.5147
18082TIP3    H275738   0.588   6.285   3.513 -0.6977 -0.2496 -0.2747
18083TIP3   OH275739   1.678   6.537  14.719  0.1116  0.0405 -0.3335
18083TIP3    H175740   1.651   6.600  14.787 -1.6438 -0.9711 -0.0682
18083TIP3    H275741   1.762   6.503  14.750  0.0974  0.7727  0.5364
18084TIP3   OH275742   6.055   1.341   3.037  0.7523  0.0275 -0.3606
18084TIP3    H175743   6.098   1.260   3.064 -1.1031 -0.6650  0.5971
18084TIP3    H275744   6.055   1.337   2.941 -0.7492 -1.9191 -0.3229
18085TIP3   OH275745   1.051   3.980  13.331 -0.0231 -0.0426  0.0927
18085TIP3    H175746   1.009   3.894  13.323  0.4659 -0.3599  0.8576
18085TIP3    H275747   1.137   3.968  13.292 -0.1353  0.2284 -0.2339
18086TIP3   OH275748   5.140   6.602   4.350 -0.0027  0.1808 -0.0058
18086TIP3    H175749   5.069   6.665   4.361 -1.6491 -1.4793 -0.9217
18086TIP3    H275750   5.171   6.615   4.260  0.9503  0.9629  0.4184
18087TIP3   OH275751   2.594   2.529  17.014 -0.2411  0.0691 -0.3558
18087TIP3    H175752   2.579   2.584  16.937 -0.3993  1.8754  0.9343
18087TIP3    H275753   2.525   2.555  17.076  0.3466 -0.8090  0.6845
18088TIP3   OH275754   5.329   0.838  16.022  0.2266  0.2796 -0.0914
18088TIP3    H175755   5.423   0.840  16.039 -0.2111 -2.4983  3.3052
18088TIP3    H275756   5.314   0.757  15.974 -0.4832  0.4529 -0.1780
18089TIP3   OH275757   1.543   1.335  10.722  0.3572 -0.0431 -0.7271
18089TIP3    H175758   1.599   1.285  10.662  1.7522  1.4617 -0.6961
18089TIP3    H275759   1.455   1.302  10.705  0.9297 -0.6932 -2.5382
18090TIP3   OH275760   6.237   6.012  13.926  0.1160 -0.2265 -0.0286
18090TIP3    H175761   6.169   6.069  13.964 -1.2912 -0.8018 -1.6361
18090TIP3    H275762   6.308   6.014  13.990 -1.6369 -0.0477  1.9541
18091TIP3   OH275763   1.107   5.147  16.601  0.1703  0.2977 -0.4471
18091TIP3    H175764   1.093   5.079  16.536 -1.3798 -0.2903  0.4821
18091TIP3    H275765   1.025   5.197  16.602  0.4417  0.7401  0.5482
18092TIP3   OH275766   3.246   5.246   3.918  0.5567 -0.4283  0.1294
18092TIP3    H175767   3.300   5.278   3.990  0.8682 -1.4902  0.3770
18092TIP3    H275768   3.281   5.289   3.840  0.8349 -0.0259  0.4726
18093TIP3   OH275769   6.536   0.410   6.109 -0.4184  0.2618  0.3691
18093TIP3    H175770   6.588   0.377   6.036 -1.0224  0.5807 -0.2156
18093TIP3    H275771   6.455   0.360   6.105 -1.0799  1.3629 -0.1375
18094TIP3   OH275772   4.521   4.226  14.072 -0.5212  0.1777 -0.6010
18094TIP3    H175773   4.531   4.154  14.135 -0.3549  0.1626 -0.6446
18094TIP3    H275774   4.433   4.260  14.088  0.0288  1.0885  0.5889
18095TIP3   OH275775   5.745   4.266  16.666  0.2741  0.2116 -0.0900
18095TIP3    H175776   5.764   4.239  16.576 -0.9064  0.3549 -0.3896
18095TIP3    H275777   5.814   4.329  16.688  1.7199 -1.2918 -0.1911
18096TIP3   OH275778   6.701   5.509  16.488  0.0120 -0.1531  0.0440
18096TIP3    H175779   6.716   5.530  16.396  1.4902 -0.8902  0.1049
18096TIP3    H275780   6.761   5.567  16.535 -2.4144  1.9313  0.6999
18097TIP3   OH275781   4.209   6.333   0.686  0.3949  0.5629 -0.4345
18097TIP3    H175782   4.129   6.362   0.730  0.5827 -0.9627  0.9396
18097TIP3    H275783   4.269   6.407   0.695  0.3478  0.3747  1.6891
18098TIP3   OH275784   0.879   3.817   5.547 -0.4624  0.3984  0.3586
18098TIP3    H175785   0.805   3.757   5.545 -1.3823  1.3255  3.4671
18098TIP3    H275786   0.953   3.764   5.574 -0.6270  0.0811  0.1910
18099TIP3   OH275787   0.793   0.778  15.756  0.5471 -0.4109 -0.2661
18099TIP3    H175788   0.731   0.713  15.725  0.9044 -0.7126 -0.3521
18099TIP3    H275789   0.773   0.789  15.849  1.3619 -1.6376  0.0609
18100TIP3   OH275790   0.902   1.215   0.092 -0.1479  0.1775  0.8329
18100TIP3    H175791   0.815   1.248   0.117  0.1054  1.7644 -0.3207
18100TIP3    H275792   0.935   1.279   0.029  1.2789 -1.1716  0.1803
18101TIP3   OH275793   4.178   2.874  11.782 -0.0135 -0.9088 -0.1343
18101TIP3    H175794   4.165   2.950  11.840 -0.7978 -0.2442 -1.1531
18101TIP3    H275795   4.212   2.806  11.839  1.6565  0.5096  0.6383
18102TIP3   OH275796   1.945   0.977  17.152  0.2089  0.3777  0.5025
18102TIP3    H175797   1.948   0.883  17.172  0.1748  0.1665 -0.4335
18102TIP3    H275798   2.025   1.013  17.190  0.5815 -0.1662  0.2407
18103TIP3   OH275799   1.685   4.810  11.136  0.1733  0.1227 -0.1982
18103TIP3    H175800   1.610   4.864  11.111 -2.2671 -1.7607  2.7611
18103TIP3    H275801   1.708   4.764  11.055 -3.9834 -1.7081 -0.4900
18104TIP3   OH275802   3.263   1.724   1.894  0.0046  0.2988  0.1612
18104TIP3    H175803   3.304   1.802   1.932  0.4874 -0.7832  1.9217
18104TIP3    H275804   3.330   1.656   1.899 -0.8930 -0.6190 -0.0015
18105TIP3   OH275805   0.660   1.175  14.961 -0.2449 -0.8485 -0.3614
18105TIP3    H175806   0.661   1.099  15.019  0.0027  1.6912  3.0778
18105TIP3    H275807   0.571   1.210  14.967  0.4388  0.8137  0.3740
18106TIP3   OH275808   6.103   2.861   1.156 -0.3650  0.7049  0.0580
18106TIP3    H175809   6.171   2.922   1.127  1.2845 -1.2070 -0.2863
18106TIP3    H275810   6.021   2.903   1.133  0.7776  1.5610 -2.6804
18107TIP3   OH275811   0.391   4.129   4.707 -0.6393 -0.0634  0.1830
18107TIP3    H175812   0.419   4.044   4.673  0.7507  0.8078 -0.9212
18107TIP3    H275813   0.298   4.117   4.727 -0.5264 -1.7587 -0.1927
18108TIP3   OH275814   5.583   6.234  12.620 -0.5053  0.2054  0.0089
18108TIP3    H175815   5.645   6.165  12.597 -1.2480 -0.5945  0.3784
18108TIP3    H275816   5.527   6.243  12.543  0.4072  1.3143 -0.5332
18109TIP3   OH275817   5.583   5.137  10.410 -0.2505  0.2778  0.2129
18109TIP3    H175818   5.488   5.143  10.422 -0.2263  0.8303  0.1384
18109TIP3    H275819   5.618   5.210  10.461 -0.1652  2.9457 -3.4199
18110TIP3   OH275820   4.719   3.221   3.402 -0.3091 -0.0317  0.5466
18110TIP3    H175821   4.714   3.167   3.323 -2.7330 -0.2921  0.8392
18110TIP3    H275822   4.700   3.310   3.371  0.8737  0.2059  0.5030
18111TIP3   OH275823   0.901   4.053  11.391  0.5676  0.3808 -0.4396
18111TIP3    H175824   0.846   4.131  11.390  0.1726  0.1855  2.1974
18111TIP3    H275825   0.916   4.035  11.484  1.6204 -2.0096 -1.0225
18112TIP3   OH275826   3.929   2.663   4.280 -0.3263 -0.4074  0.0967
18112TIP3    H175827   3.890   2.577   4.297 -0.8732 -0.3814 -0.9207
18112TIP3    H275828   3.856   2.715   4.246 -0.0622  0.5490  0.9740
18113TIP3   OH275829   5.255   0.216   2.932  0.0037 -0.8314  0.4336
18113TIP3    H175830   5.350   0.212   2.922  0.0032  0.0351  0.0035
18113TIP3    H275831   5.242   0.234   3.025  0.1727 -3.5505  1.0114
18114TIP3   OH275832   5.082   2.471   1.188  0.2094  0.2206 -0.1470
18114TIP3    H175833   5.110   2.549   1.140 -0.2005  1.2872  1.3072
18114TIP3    H275834   5.160   2.415   1.190  0.2358  0.1450 -2.0256
18115TIP3   OH275835   6.015   4.152  14.521  0.0249  0.1908  0.0916
18115TIP3    H175836   5.930   4.117  14.549 -0.3515  1.1583  0.1533
18115TIP3    H275837   5.996   4.240  14.490  0.6201 -0.4257 -2.1667
18116TIP3   OH275838   0.904   0.527  17.111 -0.1511 -0.6768 -0.6736
18116TIP3    H175839   0.929   0.540  17.202 -0.2794 -1.1886 -0.5657
18116TIP3    H275840   0.891   0.616  17.077  2.9275 -0.3130 -1.0509
18117TIP3   OH275841   2.869   2.816   5.557 -0.4267 -0.7152 -0.4803
18117TIP3    H175842   2.834   2.787   5.641 -1.6507  3.6812  0.6094
18117TIP3    H275843   2.955   2.853   5.578  0.4053 -1.9423 -1.6030
18118TIP3   OH275844   6.173   5.105   3.965  0.1503 -0.0605 -0.0584
18118TIP3    H175845   6.165   5.183   4.020 -0.5648 -0.8932  1.0339
18118TIP3    H275846   6.246   5.057   4.002  1.0729  0.4276 -1.1891
18119TIP3   OH275847   4.037   3.580  16.468  0.4772  0.9202  0.2666
18119TIP3    H175848   4.016   3.663  16.425  1.8331  0.2580 -1.7206
18119TIP3    H275849   4.013   3.513  16.405  1.8121 -0.0984  0.8239
18120TIP3   OH275850   1.075   0.439  10.369  0.2463 -0.3721  0.4874
18120TIP3    H175851   1.132   0.509  10.335  0.8073 -1.2975 -0.4867
18120TIP3    H275852   1.030   0.405  10.292 -2.1550  0.7742  1.3196
18121TIP3   OH275853   6.392   1.562   1.109 -0.2042 -0.2414 -0.0737
18121TIP3    H175854   6.402   1.656   1.123 -0.0387 -0.1253 -0.9234
18121TIP3    H275855   6.470   1.537   1.060  0.3978 -1.0756  1.3052
18122TIP3   OH275856   0.114   3.681   0.588  0.3003 -0.1526 -0.1346
18122TIP3    H175857   0.185   3.629   0.549 -0.6595 -1.1689 -0.5405
18122TIP3    H275858   0.081   3.734   0.515  0.2263 -0.1282 -0.0825
18123TIP3   OH275859   1.956   3.124  12.110  0.0283  0.1117 -0.3109
18123TIP3    H175860   2.021   3.190  12.133 -0.0860  0.2042 -0.2477
18123TIP3    H275861   1.873   3.161  12.139  0.0104 -0.2341  0.0912
18124TIP3   OH275862   3.390   5.841   3.131  0.1504 -0.0834  0.0666
18124TIP3    H175863   3.473   5.861   3.174 -0.3709 -2.1532  2.1289
18124TIP3    H275864   3.324   5.850   3.200 -0.8834 -2.0024 -0.6250
18125TIP3   OH275865   0.261   5.412  13.439  0.5979  0.0904 -0.2902
18125TIP3    H175866   0.193   5.427  13.373 -2.9075 -2.0976  2.7023
18125TIP3    H275867   0.252   5.486  13.500  0.1918 -0.7639  0.6891
18126TIP3   OH275868   3.921   1.188   0.865 -0.2645  0.3485  0.1431
18126TIP3    H175869   3.923   1.257   0.799  2.2920  1.1312  0.9829
18126TIP3    H275870   3.860   1.220   0.932 -0.7333  0.8124 -0.5038
18127TIP3   OH275871   6.755   2.154   6.458 -0.6335 -0.2114 -0.3297
18127TIP3    H175872   6.800   2.078   6.421 -0.5674 -0.1611 -0.3538
18127TIP3    H275873   6.792   2.229   6.410  0.7311  0.0243  1.0457
18128TIP3   OH275874   3.069   2.539   4.134  0.3216  0.2672  0.2851
18128TIP3    H175875   3.018   2.601   4.081  1.0377 -1.0792 -2.0653
18128TIP3    H275876   3.143   2.590   4.166 -1.4075  1.7221  2.0388
18129TIP3   OH275877   4.868   2.463  13.448 -0.6549  0.4000 -0.5229
18129TIP3    H175878   4.809   2.513  13.504 -0.5142  0.8039 -0.7352
18129TIP3    H275879   4.849   2.372  13.469 -1.4577  0.5259 -0.7002
18130TIP3   OH275880   2.159   0.782  16.209  0.1968  0.3121 -0.4099
18130TIP3    H175881   2.132   0.840  16.137  2.3898  1.2941 -0.5008
18130TIP3    H275882   2.253   0.800  16.219  0.6802 -2.4643  0.2867
18131TIP3   OH275883   6.089   0.912  17.264 -0.2657  0.0776 -0.6839
18131TIP3    H175884   6.054   1.000  17.276 -1.7144 -0.2976 -1.9977
18131TIP3    H275885   6.017   0.854  17.288  1.0884 -0.8048  1.4305
18132TIP3   OH275886   5.595   5.957  10.977 -0.4457  0.1357 -0.6288
18132TIP3    H175887   5.567   6.032  10.925 -0.1154 -0.4578 -1.6745
18132TIP3    H275888   5.590   5.883  10.918  1.0058 -0.3723 -0.1561
18133TIP3   OH275889   5.191   2.738   3.904  0.0630  0.0825 -0.5985
18133TIP3    H175890   5.153   2.669   3.850  0.0993 -0.6344  0.2851
18133TIP3    H275891   5.284   2.740   3.879  0.1669 -0.5274 -0.2678
18134TIP3   OH275892   0.411   4.498  16.763 -0.2975 -0.2083 -0.3969
18134TIP3    H175893   0.397   4.414  16.721  1.7338 -1.5247  1.4807
18134TIP3    H275894   0.502   4.497  16.791 -0.3419  2.4482  0.0555
18135TIP3   OH275895   3.020   1.607   5.086  0.2813 -0.5870  0.4644
18135TIP3    H175896   3.020   1.514   5.062 -0.8402 -0.9479  1.7655
18135TIP3    H275897   3.055   1.609   5.175 -2.7895 -0.1644  1.7202
18136TIP3   OH275898   2.009   0.865   4.535  0.4457 -0.0734 -0.2522
18136TIP3    H175899   1.938   0.905   4.585 -0.8367  0.2933 -2.3027
18136TIP3    H275900   2.081   0.857   4.597 -1.9125 -2.0137  2.3342
18137TIP3   OH275901   1.022   2.224  14.649  0.4231  0.2979 -0.3240
18137TIP3    H175902   1.079   2.243  14.723  0.7694  2.2691 -1.0799
18137TIP3    H275903   1.065   2.151  14.604  1.6639  0.8934 -0.1352
18138TIP3   OH275904   1.772   0.924  16.446  0.3364  0.5902 -0.4015
18138TIP3    H175905   1.803   0.844  16.489 -0.8048 -0.5565 -1.6483
18138TIP3    H275906   1.797   0.995  16.505  1.9570 -0.6311  0.4131
18139TIP3   OH275907   2.872   6.596   5.607 -0.6576  0.8014  1.1028
18139TIP3    H175908   2.806   6.648   5.653 -1.0971  0.0891  1.2824
18139TIP3    H275909   2.821   6.533   5.556 -0.1080 -0.6596  2.3101
18140TIP3   OH275910   2.105   4.847   6.537 -0.0525  0.1587 -0.4058
18140TIP3    H175911   2.191   4.887   6.542  0.2706 -0.1431 -3.0773
18140TIP3    H275912   2.079   4.836   6.629  3.1822 -0.7541  0.4681
18141TIP3   OH275913   1.858   5.603  16.266  0.1964  0.0412  0.4924
18141TIP3    H175914   1.884   5.673  16.205  1.2024 -0.3016  0.5221
18141TIP3    H275915   1.835   5.530  16.209 -2.9091  1.0635  0.3815
18142TIP3   OH275916   3.884   4.698   1.847 -0.0809 -0.0400  0.1999
18142TIP3    H175917   3.977   4.686   1.830 -0.1546 -1.2135  0.5368
18142TIP3    H275918   3.873   4.672   1.939 -0.5561  1.1140  0.4689
18143TIP3   OH275919   5.108   1.740   6.263  0.3590 -0.0774  0.1516
18143TIP3    H175920   5.027   1.776   6.299  1.7789  1.1617  2.2158
18143TIP3    H275921   5.086   1.650   6.240 -1.1744 -0.2772  2.2638
18144TIP3   OH275922   2.626   0.113  14.149 -0.3716  0.2296  0.1488
18144TIP3    H175923   2.542   0.157  14.132  0.5928  1.6097 -1.1493
18144TIP3    H275924   2.603   0.020  14.151 -1.7158  0.4631 -1.7795
18145TIP3   OH275925   0.013   5.571   2.692 -0.3237 -0.2652  0.0428
18145TIP3    H175926  -0.080   5.552   2.677 -0.8330  1.1769  1.3382
18145TIP3    H275927   0.016   5.606   2.780  1.1920  1.5807 -0.7212
18146TIP3   OH275928   0.938   0.501   6.266  0.4112 -0.3720 -0.4425
18146TIP3    H175929   0.922   0.456   6.183  0.8615  0.2245 -0.8574
18146TIP3    H275930   0.976   0.585   6.241 -0.5832  0.3235  0.3181
18147TIP3   OH275931   2.771   6.502   3.500 -0.4917  0.2826  0.1299
18147TIP3    H175932   2.696   6.542   3.456 -1.6458 -0.9040  0.9691
18147TIP3    H275933   2.793   6.426   3.445 -0.6636 -0.0379  0.4939
18148TIP3   OH275934   1.623   3.598  17.059 -0.0412 -0.0490  0.3408
18148TIP3    H175935   1.668   3.572  16.978 -1.1427 -0.4156 -0.1582
18148TIP3    H275936   1.691   3.591  17.126  0.5252 -1.1274 -0.3125
18149TIP3   OH275937   2.348   3.107   4.725  0.2494 -0.4257  0.5189
18149TIP3    H175938   2.324   3.018   4.751  1.1351 -0.8023  0.0466
18149TIP3    H275939   2.407   3.137   4.794 -1.2653  0.3784  1.5009
18150TIP3   OH275940   5.797   5.905  15.135  0.2119 -0.5328  0.4026
18150TIP3    H175941   5.783   5.811  15.122 -3.0022  0.0848 -1.1200
18150TIP3    H275942   5.714   5.937  15.171  1.2312  1.7379  0.8121
18151TIP3   OH275943   0.760   4.970   3.550  0.0003 -0.0005  1.0476
18151TIP3    H175944   0.850   4.998   3.535  0.2140 -1.1065  0.1668
18151TIP3    H275945   0.752   4.888   3.502 -1.2213 -0.3670  1.8331
18152TIP3   OH275946   5.519   5.177  13.050  0.3776  0.2656  0.0706
18152TIP3    H175947   5.459   5.243  13.017 -1.8856 -0.3357  2.8362
18152TIP3    H275948   5.565   5.220  13.123  1.1805 -0.2119 -0.1467
18153TIP3   OH275949   6.069   0.037   4.286  0.0765  0.1070 -0.2544
18153TIP3    H175950   6.153   0.082   4.303  1.0817 -1.6299 -0.5517
18153TIP3    H275951   6.088  -0.055   4.301 -2.0276 -0.2128  0.5151
18154TIP3   OH275952   4.692   1.894  16.195 -0.1862 -0.0003  0.1025
18154TIP3    H175953   4.741   1.846  16.130  0.8793  1.0172  0.1397
18154TIP3    H275954   4.665   1.828  16.259 -2.0988 -1.1784 -1.8372
18155TIP3   OH275955   6.262   6.128  16.152 -0.4661 -0.3702  0.0155
18155TIP3    H175956   6.200   6.195  16.181  0.4884  0.0485  1.1507
18155TIP3    H275957   6.278   6.147  16.060 -0.9019  0.3998  0.0961
18156TIP3   OH275958   4.564   2.549  14.229 -0.0436  0.2669  0.6241
18156TIP3    H175959   4.524   2.537  14.315  0.5473 -2.3197  0.6058
18156TIP3    H275960   4.500   2.512  14.168 -0.0009  1.1117  0.0732
18157TIP3   OH275961   4.915   2.209   3.927 -0.0375 -0.1730 -0.4903
18157TIP3    H175962   4.891   2.236   4.016 -1.4601 -2.1353 -0.2504
18157TIP3    H275963   4.856   2.258   3.870  0.7858  0.9861 -0.3763
18158TIP3   OH275964   6.339   0.195  15.978  0.2277 -0.1643  0.2309
18158TIP3    H175965   6.379   0.278  15.951  0.1195 -0.1511  0.1079
18158TIP3    H275966   6.413   0.139  16.000  0.2392  0.6533  2.3890
18159TIP3   OH275967   6.417   1.898  14.422  0.3819 -0.3679 -0.2975
18159TIP3    H175968   6.344   1.845  14.454  0.6194 -0.2918  0.3742
18159TIP3    H275969   6.494   1.843  14.436  0.7160  0.4183  1.0490
18160TIP3   OH275970   1.216   6.447   5.209 -0.1244  0.5815 -0.1462
18160TIP3    H175971   1.257   6.435   5.123 -1.5703 -0.2068 -0.7414
18160TIP3    H275972   1.246   6.533   5.238  1.3262  0.3504 -0.9059
18161TIP3   OH275973   2.471   6.015   1.964 -0.3658 -0.5096 -0.4287
18161TIP3    H175974   2.392   6.057   1.996 -1.1266 -2.0709 -0.2326
18161TIP3    H275975   2.514   6.082   1.911 -1.4166  0.5947  0.1028
18162TIP3   OH275976   5.296   3.469  15.064 -0.4755 -0.1733  0.4306
18162TIP3    H175977   5.252   3.554  15.067 -1.3346 -0.6357  1.2331
18162TIP3    H275978   5.232   3.407  15.101  1.5324 -0.5301  3.5238
18163TIP3   OH275979   2.219   3.720  16.048  0.3172  0.3259  0.6432
18163TIP3    H175980   2.175   3.703  16.131 -2.8435  1.3491 -0.7647
18163TIP3    H275981   2.203   3.813  16.031  1.4182  0.2682 -0.8403
18164TIP3   OH275982   4.687   5.898  15.832 -0.0534  0.1710  0.8527
18164TIP3    H175983   4.627   5.860  15.896 -1.1011  1.2378  0.5249
18164TIP3    H275984   4.634   5.907  15.753  1.1145 -0.7677 -0.0522
18165TIP3   OH275985   2.719   0.565  12.082 -0.1364 -0.5614  0.6984
18165TIP3    H175986   2.635   0.606  12.104 -0.5307  0.3165 -2.2126
18165TIP3    H275987   2.697   0.474  12.061 -0.5847 -0.0449 -1.1876
18166TIP3   OH275988   0.532   0.120  11.002 -0.5671 -0.0637 -0.3546
18166TIP3    H175989   0.606   0.083  11.050 -0.2416  0.8736 -0.1203
18166TIP3    H275990   0.554   0.108  10.910  0.7659  1.8782 -0.3241
18167TIP3   OH275991   5.141   6.066  13.840 -0.2332 -0.5904  0.2156
18167TIP3    H175992   5.072   6.021  13.890 -0.7209 -0.9100 -0.7235
18167TIP3    H275993   5.220   6.056  13.893 -0.2815 -2.7983 -0.0663
18168TIP3   OH275994   4.329   0.918  14.603  0.3299 -0.0406 -0.6507
18168TIP3    H175995   4.388   0.990  14.582  1.0498 -0.9602 -1.8330
18168TIP3    H275996   4.387   0.843  14.618 -0.4154 -0.4117  0.4577
18169TIP3   OH275997   1.831   3.008  13.331 -0.5938 -0.5642  0.2404
18169TIP3    H175998   1.820   2.918  13.301 -0.6837  0.0530 -1.6869
18169TIP3    H275999   1.838   3.059  13.250  1.1405  0.9616  1.3094
18170TIP3   OH276000   6.292   3.542   2.958  0.3530  0.0535 -0.0451
18170TIP3    H176001   6.369   3.570   2.907 -0.5672 -0.1914 -1.6052
18170TIP3    H276002   6.323   3.539   3.048  1.6147  2.0004 -0.3751
18171TIP3   OH276003   2.033   5.275  14.613 -0.6732  0.7383 -0.1923
18171TIP3    H176004   1.960   5.328  14.581 -0.7294  0.1791 -1.0146
18171TIP3    H276005   2.006   5.184  14.597 -0.6423  0.4560  1.3463
18172TIP3   OH276006   0.393   3.367   4.156 -0.3892  0.4833  0.2173
18172TIP3    H176007   0.424   3.291   4.204 -1.0251  0.6699  0.9259
18172TIP3    H276008   0.298   3.368   4.170 -0.5613  0.6512 -0.8712
18173TIP3   OH276009   3.697   5.369  16.719  0.0514  0.1708  0.0447
18173TIP3    H176010   3.768   5.326  16.672  0.5916  2.8919 -1.7205
18173TIP3    H276011   3.726   5.370  16.810  1.7221  0.2083 -0.4766
18174TIP3   OH276012   1.265   3.982  16.921  0.0333 -0.1117 -0.2650
18174TIP3    H176013   1.335   3.940  16.971  0.2509  1.0011  0.3584
18174TIP3    H276014   1.240   4.058  16.973 -0.3784  0.5352 -1.3891
18175TIP3   OH276015   6.086   2.581  16.461  0.2567  0.4524 -0.2220
18175TIP3    H176016   6.167   2.544  16.498  0.6060  0.0210 -1.4054
18175TIP3    H276017   6.034   2.604  16.538  0.3928 -1.6976  0.5478
18176TIP3   OH276018   5.255   0.231   0.886  0.1783  0.6190  0.3742
18176TIP3    H176019   5.250   0.324   0.905  0.3207  0.3550  1.8362
18176TIP3    H276020   5.237   0.189   0.970 -1.0884 -0.6936 -0.5373
18177TIP3   OH276021   3.698   3.287   0.173 -0.4681 -0.7043  0.0664
18177TIP3    H176022   3.624   3.280   0.112  0.0790  0.3269 -0.7211
18177TIP3    H276023   3.773   3.309   0.117  0.0867 -0.0104  1.0828
18178TIP3   OH276024   1.302   4.688   0.359  0.4791  0.3073  0.1670
18178TIP3    H176025   1.358   4.761   0.335  0.8442  0.8661  2.5553
18178TIP3    H276026   1.274   4.708   0.449 -1.0440 -1.4786  0.1217
18179TIP3   OH276027   3.165   3.888   6.199  0.5611 -0.1973 -1.0489
18179TIP3    H176028   3.240   3.944   6.217 -0.1483  0.7921 -1.1727
18179TIP3    H276029   3.153   3.837   6.279  0.8745  0.2040 -0.7470
18180TIP3   OH276030   2.654   4.739   4.833 -0.2050 -0.2134  0.0328
18180TIP3    H176031   2.655   4.644   4.850 -0.1919 -0.4022 -0.9965
18180TIP3    H276032   2.733   4.755   4.782  0.3461  0.5354  1.1184
18181TIP3   OH276033   5.106   1.910  11.514 -0.2028 -0.3580 -0.0260
18181TIP3    H176034   5.063   1.824  11.513  0.2981 -0.6448  1.4020
18181TIP3    H276035   5.200   1.890  11.508 -0.1606  0.1677 -1.1879
18182TIP3   OH276036   1.523   5.686  14.681 -0.0494 -0.3397 -0.3388
18182TIP3    H176037   1.548   5.634  14.758 -1.1316  2.5515  2.0785
18182TIP3    H276038   1.448   5.640  14.644 -2.3087  0.4425  2.9840
18183TIP3   OH276039   3.647   3.245  12.218 -0.3057  0.2652  0.3656
18183TIP3    H176040   3.574   3.306  12.229  0.5185  1.7676 -2.0108
18183TIP3    H276041   3.618   3.184  12.151  0.4175  0.5759 -0.2418
18184TIP3   OH276042   1.523   0.265  12.809  0.1653 -0.3698 -0.1601
18184TIP3    H176043   1.582   0.311  12.750 -0.3037  1.3930  0.7160
18184TIP3    H276044   1.580   0.228  12.876  0.1663  3.0362  1.8255
18185TIP3   OH276045   0.425   4.148  12.794  0.0948  0.0165 -0.0292
18185TIP3    H176046   0.386   4.131  12.708  2.6293  0.1023 -1.2274
18185TIP3    H276047   0.432   4.062  12.835  1.0619 -0.3091 -0.8741
18186TIP3   OH276048   5.687   2.604  15.196 -0.0628  0.7570 -0.1634
18186TIP3    H176049   5.744   2.680  15.185 -0.0975  0.9373  0.8286
18186TIP3    H276050   5.723   2.559  15.273 -0.0852 -0.1863 -0.6961
18187TIP3   OH276051   2.110   6.109   6.484  0.5428 -0.6601 -0.3138
18187TIP3    H176052   2.150   6.196   6.474  0.5060 -0.7215 -1.0447
18187TIP3    H276053   2.018   6.127   6.501  0.1783 -0.5730 -2.2466
18188TIP3   OH276054   3.529   2.753  13.409  0.3017 -0.4080  0.0264
18188TIP3    H176055   3.491   2.734  13.323  0.3640 -3.2944  0.5855
18188TIP3    H276056   3.606   2.806  13.391 -0.9028  0.8265 -1.5330
18189TIP3   OH276057   2.573   4.691  11.777  0.2538  0.1716  0.1404
18189TIP3    H176058   2.556   4.751  11.704  0.4187 -0.8679 -0.7787
18189TIP3    H276059   2.564   4.603  11.738  2.2775 -0.4103  0.8778
18190TIP3   OH276060   2.394   3.416  16.921  0.1022 -0.6721 -0.1578
18190TIP3    H176061   2.359   3.332  16.950  2.5611 -1.1338  1.6373
18190TIP3    H276062   2.390   3.472  16.998  1.4491 -0.1603 -0.4377
18191TIP3   OH276063   5.076   5.272  14.715 -0.0899 -1.0659 -0.3793
18191TIP3    H176064   5.131   5.196  14.699  0.5862 -0.2510 -2.0924
18191TIP3    H276065   5.104   5.336  14.649  1.5930  1.8781  3.0228
18192TIP3   OH276066   5.362   3.724   1.773  0.0229 -0.1254  0.2432
18192TIP3    H176067   5.275   3.710   1.735  0.1941  1.5867 -0.8752
18192TIP3    H276068   5.399   3.796   1.721  2.0758 -0.7791  0.7597
18193TIP3   OH276069   5.597   1.550  13.709 -0.2072  0.8212  0.2968
18193TIP3    H176070   5.636   1.637  13.707  0.2757  0.6048 -2.1346
18193TIP3    H276071   5.659   1.495  13.661 -1.1985 -0.5541  0.5435
18194TIP3   OH276072   2.891   2.213   0.061  0.1661 -0.2975 -0.9553
18194TIP3    H176073   2.803   2.249   0.073 -0.4082 -1.2922 -2.0648
18194TIP3    H276074   2.884   2.123   0.094  1.1494  0.0689  0.2818
18195TIP3   OH276075   5.896   0.764  16.958 -0.3907  0.1678  0.3335
18195TIP3    H176076   5.981   0.770  16.913  0.4052 -0.6248  1.7132
18195TIP3    H276077   5.833   0.749  16.887  1.1198 -3.3475 -0.3387
18196TIP3   OH276078   5.775   0.304  11.309 -0.3185  0.0539  0.2145
18196TIP3    H176079   5.833   0.288  11.383 -0.5372 -0.2484  0.3201
18196TIP3    H276080   5.812   0.381  11.266  1.0771 -1.0353 -0.6135
18197TIP3   OH276081   5.100   5.505   2.375  0.2012  0.5949  0.1058
18197TIP3    H176082   5.194   5.511   2.390  0.0966  0.0013  1.0977
18197TIP3    H276083   5.091   5.457   2.293  0.7691  0.9825 -0.1817
18198TIP3   OH276084   4.620   0.987  13.197  0.2712  0.5542 -0.4775
18198TIP3    H176085   4.543   1.044  13.191 -0.2509 -0.1161 -0.2456
18198TIP3    H276086   4.679   1.020  13.130 -0.9783 -0.0859 -1.9170
18199TIP3   OH276087   2.056   3.471   0.943 -0.2749 -0.0018 -0.0356
18199TIP3    H176088   1.976   3.523   0.954 -0.1252 -0.1354  1.8432
18199TIP3    H276089   2.089   3.496   0.856 -2.0248  0.4971 -0.5784
18200TIP3   OH276090   3.525   1.502  12.754  0.8445 -0.3109  0.5677
18200TIP3    H176091   3.518   1.589  12.792  1.3553 -0.9421  2.1656
18200TIP3    H276092   3.457   1.451  12.799  0.4540 -0.7057 -0.4537
18201TIP3   OH276093   2.848   6.276  16.023  0.3558 -0.1892 -0.5110
18201TIP3    H176094   2.944   6.269  16.031  0.4537 -0.5973 -1.8829
18201TIP3    H276095   2.834   6.307  15.933 -0.9086 -2.9112 -1.3100
18202TIP3   OH276096   4.842   4.067   4.125  0.3511  0.0619  0.3811
18202TIP3    H176097   4.885   4.139   4.081 -1.5797  1.0136 -0.0246
18202TIP3    H276098   4.827   4.099   4.214 -0.8245  0.3123  0.1014
18203TIP3   OH276099   5.198   6.440  13.778  0.5481 -0.0073 -0.2094
18203TIP3    H176100   5.290   6.438  13.754  0.8015 -0.5387  0.7581
18203TIP3    H276101   5.198   6.446  13.874 -0.4149 -0.5293 -0.1629
18204TIP3   OH276102   3.746   3.713   5.533  0.5234  0.1203  0.2934
18204TIP3    H176103   3.736   3.785   5.470  0.5901  0.4450  0.6511
18204TIP3    H276104   3.802   3.749   5.601  2.4792 -1.0414 -0.6902
18205TIP3   OH276105   4.474   0.185   1.420  0.0201 -0.1157  0.0906
18205TIP3    H176106   4.387   0.210   1.389 -0.7992 -2.4413  0.4122
18205TIP3    H276107   4.522   0.164   1.340  0.0598  0.4982 -0.0457
18206TIP3   OH276108   5.729   2.722   2.330 -0.0676 -0.8738 -0.0974
18206TIP3    H176109   5.660   2.678   2.379 -0.2451  0.2197  0.6385
18206TIP3    H276110   5.736   2.671   2.249 -1.1115 -1.5274  0.2065
18207TIP3   OH276111   4.232   6.185  16.660  0.2715 -0.1536  0.8381
18207TIP3    H176112   4.282   6.112  16.696  0.8945  0.8893  2.1181
18207TIP3    H276113   4.165   6.203  16.726 -0.0323  0.2786  0.4156
18208TIP3   OH276114   1.478   6.090  12.857  0.2356  0.6106  0.3320
18208TIP3    H176115   1.546   6.100  12.923  1.7987 -2.0268 -0.8344
18208TIP3    H276116   1.490   6.165  12.799  0.4377  1.5826  1.5982
18209TIP3   OH276117   6.375   4.610   5.898 -0.2524 -0.0725 -0.1224
18209TIP3    H176118   6.446   4.565   5.943 -1.9348  0.1448  2.9035
18209TIP3    H276119   6.300   4.552   5.907 -0.6162 -0.1095 -2.9030
18210TIP3   OH276120   1.071   3.165   3.241 -0.5746 -0.1007 -0.3334
18210TIP3    H176121   1.131   3.238   3.255 -1.9317  0.9712  0.0436
18210TIP3    H276122   1.127   3.091   3.217  0.9544  0.6308  0.9495
18211TIP3   OH276123   2.992   5.237  11.557 -0.0427  0.1626 -1.1227
18211TIP3    H176124   3.070   5.217  11.505  2.0149 -1.2191  2.2351
18211TIP3    H276125   3.015   5.317  11.605 -0.5074 -0.4321  0.1330
18212TIP3   OH276126   5.262   0.711  16.823 -0.0677  0.5295  0.0925
18212TIP3    H176127   5.264   0.628  16.869  0.5709  0.6613  0.3123
18212TIP3    H276128   5.354   0.729  16.802 -0.1242  1.5114  0.6626
18213TIP3   OH276129   1.263   3.411   1.276  0.1454 -0.0491  0.1733
18213TIP3    H176130   1.270   3.504   1.296 -0.6163  0.2001 -0.6775
18213TIP3    H276131   1.203   3.407   1.201  1.9715 -1.0458 -1.2692
18214TIP3   OH276132   2.985   2.534  14.425  0.1720 -0.5204  0.9572
18214TIP3    H176133   2.959   2.446  14.452  1.3009 -0.9166  0.7835
18214TIP3    H276134   2.989   2.530  14.329  1.1349 -0.5486  0.9940
18215TIP3   OH276135   0.278   3.283  15.754  0.1016  0.5413 -0.1353
18215TIP3    H176136   0.254   3.191  15.740 -0.8039  0.1025  3.7766
18215TIP3    H276137   0.349   3.280  15.817 -0.6457  2.5696  0.8478
18216TIP3   OH276138   6.063   4.110   0.334  0.2436 -0.2069 -0.1683
18216TIP3    H176139   6.074   4.175   0.404  0.2218  1.3041 -1.5388
18216TIP3    H276140   5.982   4.136   0.289  0.1425 -1.2931 -0.6381
18217TIP3   OH276141   2.058   0.088   5.818  0.1975  0.3968  0.6069
18217TIP3    H176142   2.063   0.003   5.773 -1.4087  0.3997  0.4108
18217TIP3    H276143   2.059   0.153   5.747 -2.6583  0.3920  0.5084
18218TIP3   OH276144   0.689   0.199  11.546 -0.5724 -0.3756  0.0449
18218TIP3    H176145   0.680   0.213  11.640  0.2353  1.6761 -0.1782
18218TIP3    H276146   0.779   0.169  11.534 -0.4188  0.1668 -0.1669
18219TIP3   OH276147   3.783   2.402  16.538 -0.3986  0.0699  0.4784
18219TIP3    H176148   3.833   2.398  16.619  3.0248  2.5173 -1.3918
18219TIP3    H276149   3.798   2.318  16.495 -0.6298 -0.4632  1.4260
18220TIP3   OH276150   0.414   4.618  11.899 -0.1763  0.1609 -0.3769
18220TIP3    H176151   0.485   4.585  11.955 -0.6888  1.9924  1.4105
18220TIP3    H276152   0.380   4.540  11.856  0.3150 -1.3210  1.8007
18221TIP3   OH276153   5.927   0.614   3.589 -0.6713 -0.2862 -0.5401
18221TIP3    H176154   5.852   0.664   3.619 -0.2419 -0.8795  1.5989
18221TIP3    H276155   5.998   0.678   3.584 -0.0710 -0.6534  2.3951
18222TIP3   OH276156   6.590   0.136  17.176  0.5354  0.3818  0.2186
18222TIP3    H176157   6.526   0.101  17.114  0.9495 -0.3207  0.1750
18222TIP3    H276158   6.593   0.230  17.158  0.8982  0.1345 -1.0655
18223TIP3   OH276159   3.324   3.885   2.880 -0.4800  0.4177 -0.0503
18223TIP3    H176160   3.340   3.872   2.786  0.4548 -1.7019  0.3843
18223TIP3    H276161   3.399   3.935   2.911 -1.3659  2.1670 -0.6307
18224TIP3   OH276162   2.628   3.883   2.163  0.0617  0.3609  0.0857
18224TIP3    H176163   2.636   3.859   2.071 -0.1882  2.6368 -0.5548
18224TIP3    H276164   2.635   3.800   2.210  0.5738 -0.7833 -1.9533
18225TIP3   OH276165   4.348   1.871   1.266  0.2278  0.8502  0.3154
18225TIP3    H176166   4.380   1.844   1.180  0.2321  1.9733 -0.0549
18225TIP3    H276167   4.410   1.939   1.293  0.6163  0.0211  1.5084
18226TIP3   OH276168   5.785   5.483   5.709 -0.4684  0.3105 -0.2256
18226TIP3    H176169   5.770   5.412   5.646 -0.3120  0.0602  0.0213
18226TIP3    H276170   5.809   5.439   5.790 -1.5394  0.6089  0.2563
18227TIP3   OH276171   1.558   3.291   4.405 -0.1935 -0.4107  0.2094
18227TIP3    H176172   1.619   3.323   4.338 -1.4303 -0.1254 -0.8027
18227TIP3    H276173   1.559   3.195   4.395 -0.2811 -0.3756 -0.1407
18228TIP3   OH276174   0.586   2.964   6.689 -0.2711 -0.0787  0.0822
18228TIP3    H176175   0.493   2.953   6.672 -0.7034  0.8726  1.6581
18228TIP3    H276176   0.602   3.058   6.675  0.6691 -0.4231 -1.1927
18229TIP3   OH276177   4.490   2.606   1.608 -0.0417 -0.2633 -0.3651
18229TIP3    H176178   4.503   2.682   1.664  0.2770 -0.9219  0.4683
18229TIP3    H276179   4.578   2.584   1.576  0.0671 -1.1060  0.4949
18230TIP3   OH276180   5.372   3.035   1.111 -1.0248 -0.4262 -0.2882
18230TIP3    H176181   5.339   3.025   1.022 -1.5138 -2.5045  0.0941
18230TIP3    H276182   5.336   3.118   1.142 -0.2698  0.6695 -2.2597
18231TIP3   OH276183   0.497   6.307   1.114  0.5787  0.8368  0.4746
18231TIP3    H176184   0.518   6.343   1.200 -1.0339  2.2093  0.3154
18231TIP3    H276185   0.574   6.328   1.061  0.9232  1.3836  1.1741
18232TIP3   OH276186   6.004   1.627   0.669 -0.6290 -0.5704 -0.2889
18232TIP3    H176187   6.066   1.693   0.640 -2.1303  0.7177 -0.6100
18232TIP3    H276188   5.938   1.623   0.599 -1.1541 -1.5954  0.2484
18233TIP3   OH276189   6.755   2.862   0.571 -0.4911  0.3942  0.6582
18233TIP3    H176190   6.781   2.864   0.478 -0.8220  1.8535  0.5842
18233TIP3    H276191   6.776   2.950   0.603 -1.1614  0.1583  1.7599
18234TIP3   OH276192   5.561   6.767  16.316 -0.0393 -0.3842  0.3341
18234TIP3    H176193   5.527   6.849  16.278  1.5727  0.2364  0.2172
18234TIP3    H276194   5.498   6.701  16.287 -2.1022  0.9934  1.5101
18235TIP3   OH276195   5.608   5.526  11.459 -0.2644 -0.3281 -0.0095
18235TIP3    H176196   5.581   5.540  11.368 -1.2447  0.6279  0.4190
18235TIP3    H276197   5.562   5.594  11.508  1.6994  0.3514  0.9579
18236TIP3   OH276198   3.504   1.335   3.189 -0.2414 -0.2283  0.1457
18236TIP3    H176199   3.443   1.278   3.235  0.7203 -0.9211  0.5764
18236TIP3    H276200   3.467   1.343   3.101 -2.0017  0.9913  0.9866
18237TIP3   OH276201   3.761   0.262   1.547 -0.7123 -0.1486 -0.2563
18237TIP3    H176202   3.669   0.282   1.564 -0.7590 -1.2214  0.8244
18237TIP3    H276203   3.767   0.250   1.453 -1.0965  2.8251 -0.7245
18238TIP3   OH276204   3.209   0.397  11.373 -0.2139 -0.2814  0.0227
18238TIP3    H176205   3.275   0.386  11.304 -0.1858 -3.2717  0.4750
18238TIP3    H276206   3.131   0.353  11.339 -0.2667 -1.6008  1.7913
18239TIP3   OH276207   0.793   2.193   5.608  0.0240 -0.0039  0.1363
18239TIP3    H176208   0.703   2.210   5.637  0.3544 -0.3232  1.3545
18239TIP3    H276209   0.844   2.187   5.689  1.4470  1.8500 -0.5743
18240TIP3   OH276210   0.044   1.846   4.441  0.0672  0.3786  0.0384
18240TIP3    H176211   0.077   1.759   4.461  0.6596  0.1293 -1.9673
18240TIP3    H276212  -0.042   1.849   4.483  1.5869  0.2195  3.3764
18241TIP3   OH276213   2.207   1.626   2.267  0.4281 -0.0937  0.1195
18241TIP3    H176214   2.260   1.706   2.267  0.7146 -0.2796 -1.1733
18241TIP3    H276215   2.251   1.569   2.330  1.3045  0.0704 -0.3307
18242TIP3   OH276216   3.062   1.295  16.485 -0.6173 -0.1291  0.3351
18242TIP3    H176217   3.004   1.335  16.550 -0.3478  0.1413  0.4105
18242TIP3    H276218   3.053   1.201  16.499 -2.3087 -0.1451 -0.7555
18243TIP3   OH276219   1.445   4.381   5.956  0.4983 -0.8262  0.2375
18243TIP3    H176220   1.510   4.451   5.956  1.7912 -1.9922 -0.9465
18243TIP3    H276221   1.361   4.426   5.951  1.3332  0.6354 -1.0593
18244TIP3   OH276222   4.169   4.871   3.137  0.1319  0.4769 -0.3608
18244TIP3    H176223   4.218   4.891   3.217  0.9319 -0.4023 -0.6142
18244TIP3    H276224   4.201   4.933   3.073 -1.4922  2.0849  0.3469
18245TIP3   OH276225   4.197   5.481  15.798  0.3154  0.1887  0.1290
18245TIP3    H176226   4.167   5.428  15.724 -0.4924  2.2482 -1.0731
18245TIP3    H276227   4.173   5.431  15.876 -0.9732 -0.9189 -0.9643
18246TIP3   OH276228   3.558   4.916  13.617  0.5525 -0.1814  0.4219
18246TIP3    H176229   3.538   4.924  13.710 -1.7477  0.5388 -0.1160
18246TIP3    H276230   3.480   4.877  13.578  0.9233  0.8316 -1.4239
18247TIP3   OH276231   6.559   5.020   4.887  0.3085 -0.2110  0.0885
18247TIP3    H176232   6.475   4.986   4.855  0.8373  0.2015 -1.7904
18247TIP3    H276233   6.564   4.990   4.978 -1.5623 -0.8093  0.0128
18248TIP3   OH276234   5.226   3.465   5.698  0.0190 -0.2166 -0.7005
18248TIP3    H176235   5.210   3.441   5.789 -0.7908  2.5708 -0.0630
18248TIP3    H276236   5.141   3.493   5.665  0.6290  0.3622 -1.8007
18249TIP3   OH276237   3.960   1.734   4.696  0.2266  0.4334  0.0786
18249TIP3    H176238   4.020   1.719   4.769  1.7795  0.6595 -1.1324
18249TIP3    H276239   3.909   1.653   4.690 -0.3075  0.6267  1.7538
18250TIP3   OH276240   0.601   2.652  11.672 -0.3934  0.0308 -0.3645
18250TIP3    H176241   0.612   2.693  11.586 -1.9332 -1.0176 -1.0696
18250TIP3    H276242   0.689   2.619  11.694 -0.1296 -0.2865 -1.8351
18251TIP3   OH276243   2.108   4.387  12.208  0.3250 -0.2426  0.2252
18251TIP3    H176244   2.103   4.402  12.113 -2.2517  2.3029  0.6929
18251TIP3    H276245   2.186   4.437  12.236  0.7073 -0.4529 -0.4449
18252TIP3   OH276246   3.367   2.376   3.295 -0.4875  0.4530  0.7806
18252TIP3    H176247   3.452   2.333   3.298 -0.9939 -0.5160  1.2612
18252TIP3    H276248   3.387   2.468   3.315  0.8176  0.8409 -2.0443
18253TIP3   OH276249   1.270   0.933   2.316 -0.4580  0.0472  0.3832
18253TIP3    H176250   1.252   0.943   2.410 -1.1306 -0.5176  0.3210
18253TIP3    H276251   1.188   0.902   2.279 -0.3554  0.8044 -0.4913
18254TIP3   OH276252   0.682   4.058   5.920  0.8179 -0.4536  0.1018
18254TIP3    H176253   0.696   4.135   5.976  0.9700 -1.0135  0.8473
18254TIP3    H276254   0.599   4.021   5.950 -0.4973  0.8070 -1.9081
18255TIP3   OH276255   4.504   3.724  17.214 -0.0360 -0.4876  0.0864
18255TIP3    H176256   4.505   3.647  17.157  0.4169  0.3718 -1.0873
18255TIP3    H276257   4.412   3.740  17.232 -0.1278 -1.3773  0.4494
18256TIP3   OH276258   6.642   1.726  17.089 -0.2973 -0.0097 -0.6237
18256TIP3    H176259   6.622   1.794  17.153  0.1692  1.6430 -2.1911
18256TIP3    H276260   6.729   1.748  17.057 -0.8859 -0.2905 -2.4746
18257TIP3   OH276261   2.129   6.213  16.859  0.1641  0.1504 -0.1419
18257TIP3    H176262   2.150   6.184  16.770 -2.7064  0.6098 -1.0035
18257TIP3    H276263   2.089   6.299  16.847 -1.2958 -0.2901  1.5039
18258TIP3   OH276264   0.830   2.637   5.467 -0.4415 -0.3681  0.1712
18258TIP3    H176265   0.844   2.724   5.431 -1.1096 -0.9920 -1.6589
18258TIP3    H276266   0.809   2.652   5.559 -1.1042  1.4419 -0.2493
18259TIP3   OH276267   2.997   2.615  16.273  0.3254  0.2019  0.8003
18259TIP3    H176268   2.958   2.560  16.206  3.3351 -0.5608 -0.3940
18259TIP3    H276269   2.936   2.689  16.282 -0.9483 -0.5211 -1.5624
18260TIP3   OH276270   2.447   5.928  14.764  0.1235 -0.3038 -0.7444
18260TIP3    H176271   2.362   5.885  14.768 -0.2794  0.5731  0.4020
18260TIP3    H276272   2.475   5.919  14.673 -1.7629  0.4887 -1.4161
18261TIP3   OH276273   3.686   5.937  11.242  0.2488  0.1306 -0.3342
18261TIP3    H176274   3.741   5.859  11.230 -1.2594 -1.1015  0.5698
18261TIP3    H276275   3.615   5.907  11.299 -0.9276  1.9150 -0.8428
18262TIP3   OH276276   4.786   1.482  13.218 -0.4662 -0.2209  0.2112
18262TIP3    H176277   4.718   1.468  13.283  0.2410 -0.6524  0.8609
18262TIP3    H276278   4.765   1.422  13.147 -0.9588 -0.1011  0.2563
18263TIP3   OH276279   5.188   1.754   2.174  0.7535 -0.0864  0.6893
18263TIP3    H176280   5.270   1.724   2.134  0.1716 -0.5893 -0.1465
18263TIP3    H276281   5.214   1.827   2.229  1.6810  0.1689 -0.0688
18264TIP3   OH276282   3.243   2.263   1.992 -0.2998 -0.6810 -0.1666
18264TIP3    H176283   3.153   2.260   2.025  0.4832  1.3250  2.3101
18264TIP3    H276284   3.244   2.336   1.930 -0.4417 -0.8498 -0.3662
18265TIP3   OH276285   2.831   0.536   0.302 -0.3310  0.3033 -0.5081
18265TIP3    H176286   2.839   0.629   0.280 -2.3869  0.3448 -1.1927
18265TIP3    H276287   2.825   0.535   0.398 -2.7445  1.1205 -0.6157
18266TIP3   OH276288   5.011   3.951   1.848 -0.0209 -0.8246  0.0636
18266TIP3    H176289   5.034   4.044   1.848  0.4176 -0.9188 -1.2293
18266TIP3    H276290   5.020   3.923   1.939 -0.2391  0.4156  0.4702
18267TIP3   OH276291   5.022   3.075   3.622 -0.8434  0.2895  0.7707
18267TIP3    H176292   5.068   3.089   3.704 -1.0501 -0.1791  0.9657
18267TIP3    H276293   4.937   3.039   3.648 -0.6157 -0.5874  0.3105
18268TIP3   OH276294   1.510   3.249  12.364 -0.3812 -0.4716  0.1020
18268TIP3    H176295   1.566   3.182  12.324 -1.4050 -0.9671 -0.5329
18268TIP3    H276296   1.562   3.329  12.362  0.7426 -1.1828  0.5933
18269TIP3   OH276297   5.375   4.731   4.369  0.5302 -0.0873  0.0185
18269TIP3    H176298   5.456   4.684   4.350  0.1885 -1.0747  0.9742
18269TIP3    H276299   5.399   4.823   4.359  0.9375 -0.4796 -2.8879
18270TIP3   OH276300   4.763   4.526  12.849 -0.0132 -0.0992  0.2688
18270TIP3    H176301   4.719   4.479  12.778  0.1928 -0.9535  0.6946
18270TIP3    H276302   4.694   4.576  12.891  0.1852  1.9123 -1.6902
18271TIP3   OH276303   3.693   1.046  16.443  0.1225 -0.5687 -0.0184
18271TIP3    H176304   3.729   0.961  16.469  0.3222 -1.0483 -1.8233
18271TIP3    H276305   3.762   1.088  16.392  0.1925  0.8890  1.2395
18272TIP3   OH276306   2.353   4.647   0.404  0.0603 -0.0588 -0.2465
18272TIP3    H176307   2.362   4.739   0.378 -0.5200 -0.0647 -0.4866
18272TIP3    H276308   2.373   4.598   0.324  1.6290 -0.1901  0.2022
18273TIP3   OH276309   4.852   0.425   2.034  0.5752  0.1673  0.2409
18273TIP3    H176310   4.933   0.374   2.030  2.4036  2.7152  2.4952
18273TIP3    H276311   4.815   0.405   2.120 -0.0838  0.6099  0.0687
18274TIP3   OH276312   4.755   1.266   1.841  0.1374  0.4049 -0.8470
18274TIP3    H176313   4.698   1.242   1.768 -1.0396 -0.8017  0.4398
18274TIP3    H276314   4.729   1.355   1.863 -1.5586 -0.2651 -0.0311
18275TIP3   OH276315   6.539   0.559  11.055 -0.1441 -0.4972 -0.1606
18275TIP3    H176316   6.497   0.632  11.008 -0.0265  0.2898  0.9376
18275TIP3    H276317   6.628   0.557  11.020 -0.6538 -1.2584 -1.4692
18276TIP3   OH276318   0.051   5.293  15.527  0.0103 -0.1668  0.0040
18276TIP3    H176319   0.029   5.240  15.451 -0.6439  2.1447 -1.4727
18276TIP3    H276320  -0.023   5.353  15.538 -0.0547 -0.6678  2.6727
18277TIP3   OH276321   5.444   2.323  12.600  0.2879 -0.2707  0.2263
18277TIP3    H176322   5.483   2.288  12.520  0.9687  0.8406  0.0604
18277TIP3    H276323   5.518   2.356  12.650 -0.2141 -0.3013  0.9943
18278TIP3   OH276324   3.390   5.973  16.429  0.0676  0.8235 -0.6326
18278TIP3    H176325   3.382   5.980  16.334 -0.8458 -0.1272 -0.6318
18278TIP3    H276326   3.304   5.946  16.459  0.1220  1.9389  0.5570
18279TIP3   OH276327   5.554   1.943  11.776  0.1952 -0.3219  0.1528
18279TIP3    H176328   5.526   1.901  11.857 -0.1277  0.5892  0.5122
18279TIP3    H276329   5.479   1.995  11.748  0.1257 -1.0083 -1.0002
18280TIP3   OH276330   0.553   6.131   2.002  0.6533  0.1880  0.5119
18280TIP3    H176331   0.558   6.099   1.912 -1.9235  0.5978  0.1751
18280TIP3    H276332   0.592   6.218   1.999  0.1373  0.3959 -0.3194
18281TIP3   OH276333   0.314   5.751  16.093  0.0394 -0.4634 -0.2045
18281TIP3    H176334   0.233   5.779  16.135 -1.2173  0.7386 -3.3053
18281TIP3    H276335   0.380   5.812  16.125 -1.0612  0.9364 -0.5869
18282TIP3   OH276336   5.341   5.262   6.373 -0.5129 -0.1306  0.2951
18282TIP3    H176337   5.433   5.286   6.384 -1.1902  2.3023  1.1899
18282TIP3    H276338   5.295   5.346   6.371 -2.6591 -1.2938 -0.7174
18283TIP3   OH276339   3.955   4.002   1.585  0.3182  0.0476 -0.2034
18283TIP3    H176340   3.890   4.062   1.551  0.3899 -0.0974 -0.5994
18283TIP3    H276341   3.959   3.931   1.521 -1.3059 -1.4715  1.3118
18284TIP3   OH276342   4.237   1.388  11.704  0.3585  0.4413 -0.3051
18284TIP3    H176343   4.162   1.432  11.744  0.2237  0.8380 -0.9829
18284TIP3    H276344   4.313   1.436  11.737  0.4253 -1.0036  1.6982
18285TIP3   OH276345   0.276   2.253  15.793 -0.5248 -0.9130 -0.3779
18285TIP3    H176346   0.239   2.184  15.738 -1.9590 -0.0219 -0.5727
18285TIP3    H276347   0.209   2.270  15.859 -0.3113  0.4854 -0.5039
18286TIP3   OH276348   3.294   0.264  13.882  0.4762 -0.2045  0.3535
18286TIP3    H176349   3.234   0.336  13.903 -1.6319 -2.0944  1.0098
18286TIP3    H276350   3.274   0.242  13.791  1.7445  0.5898 -0.1338
18287TIP3   OH276351   3.715   0.047  12.470  0.5961 -0.2426  0.6720
18287TIP3    H176352   3.664   0.120  12.435  1.6555 -0.5252 -1.6072
18287TIP3    H276353   3.733   0.071  12.561 -2.2080  0.5819  1.0331
18288TIP3   OH276354   5.115   0.794  16.584  0.4560  0.3894  0.1536
18288TIP3    H176355   5.179   0.747  16.636  1.4757  1.7423  0.1438
18288TIP3    H276356   5.119   0.884  16.615  1.7779  1.4475 -2.8699
18289TIP3   OH276357   2.055   4.514   5.846 -0.3615  0.4989 -0.1677
18289TIP3    H176358   2.133   4.460   5.829  0.7778  2.2583 -0.6684
18289TIP3    H276359   2.090   4.599   5.873 -2.1053  1.5755 -1.1994
18290TIP3   OH276360   5.769   6.463   6.300  0.6121  0.0781  0.2327
18290TIP3    H176361   5.840   6.440   6.241 -0.1543 -0.8497 -0.3309
18290TIP3    H276362   5.724   6.535   6.256 -1.5341 -2.3085 -1.5856
18291TIP3   OH276363   1.187   1.929  11.472 -0.6736 -0.2132  0.2604
18291TIP3    H176364   1.165   1.839  11.447  1.7592 -0.1659 -2.3572
18291TIP3    H276365   1.105   1.977  11.460 -1.0868 -1.3851 -2.0862
18292TIP3   OH276366   4.339   4.244   5.548 -0.3603 -0.1406  0.3163
18292TIP3    H176367   4.303   4.283   5.468 -1.8204  0.2919  1.1632
18292TIP3    H276368   4.401   4.309   5.581  1.3848 -0.9735 -1.2604
18293TIP3   OH276369   0.680   3.640  15.892  0.6698  0.3159  0.0095
18293TIP3    H176370   0.627   3.719  15.898  0.1239 -0.1282  1.4304
18293TIP3    H276371   0.644   3.592  15.817 -0.4828  0.3582  0.5277
18294TIP3   OH276372   1.237   2.584   2.823 -0.3660 -0.0914 -0.2405
18294TIP3    H176373   1.176   2.522   2.864 -0.1827  0.1968  0.4636
18294TIP3    H276374   1.191   2.613   2.744 -0.6484 -0.7738 -0.3315
18295TIP3   OH276375   0.284   1.496   0.026 -0.0403  0.8095 -0.3660
18295TIP3    H176376   0.343   1.542   0.086  2.1772  0.4082 -2.1534
18295TIP3    H276377   0.216   1.560   0.006 -0.1596  1.3387  1.6376
18296TIP3   OH276378   6.390   0.606  17.121 -0.0136 -0.4532 -1.0067
18296TIP3    H176379   6.435   0.689  17.103 -0.3963 -0.1109 -0.4409
18296TIP3    H276380   6.352   0.619  17.208 -0.9690 -0.8370 -1.3659
18297TIP3   OH276381   1.652   1.573   1.188  0.6645  0.0061 -0.2039
18297TIP3    H176382   1.702   1.643   1.146  1.0651 -1.1036 -1.6467
18297TIP3    H276383   1.666   1.585   1.282  1.5778  1.2122 -0.4862
18298TIP3   OH276384   3.373   6.091   0.870  0.3033  0.3106 -0.4853
18298TIP3    H176385   3.468   6.100   0.882  0.2674 -1.3773  1.3408
18298TIP3    H276386   3.364   6.015   0.812  0.0060 -1.8522  2.3005
18299TIP3   OH276387   1.906   2.712  16.468 -0.1147 -0.0735  0.5919
18299TIP3    H176388   1.973   2.714  16.400  0.4839  1.3077  1.2082
18299TIP3    H276389   1.868   2.800  16.466  0.3148  0.1616  2.4480
18300TIP3   OH276390   2.463   5.160  13.574 -0.4209  0.0806 -0.1357
18300TIP3    H176391   2.502   5.109  13.503  0.5707 -0.6456  0.9231
18300TIP3    H276392   2.392   5.104  13.607 -1.4929  0.8176 -1.1577
18301TIP3   OH276393   3.493   1.170  16.035  0.2772  0.1309 -0.7638
18301TIP3    H176394   3.424   1.118  16.077 -0.4544  1.6722  0.0014
18301TIP3    H276395   3.555   1.106  16.002 -0.4668 -1.2152  0.4107
18302TIP3   OH276396   0.256   4.565   6.516  0.3027 -0.0173  0.1269
18302TIP3    H176397   0.195   4.504   6.557 -0.2281  0.0460 -0.5731
18302TIP3    H276398   0.337   4.515   6.508  0.4323 -0.0098  1.3072
18303TIP3   OH276399   4.769   0.335   1.717 -0.0714 -0.3180 -0.3537
18303TIP3    H176400   4.778   0.245   1.686 -0.7976 -0.6771  0.4817
18303TIP3    H276401   4.677   0.356   1.704 -0.0122  0.1290 -0.0654
18304TIP3   OH276402   5.111   5.199   1.583  0.7923 -0.1083  0.0424
18304TIP3    H176403   5.031   5.248   1.603  0.6489  1.0191 -3.0567
18304TIP3    H276404   5.086   5.107   1.593 -1.2202  0.1884 -1.8593
18305TIP3   OH276405   2.580   3.507   1.368  0.2072  0.3822  0.0179
18305TIP3    H176406   2.660   3.531   1.321 -0.5401  1.6835 -0.6056
18305TIP3    H276407   2.522   3.583   1.358 -0.5500  0.0657  1.7295
18306TIP3   OH276408   5.884   3.075  16.305  0.0419  0.0320 -0.3712
18306TIP3    H176409   5.911   3.018  16.233  2.1113 -0.3733  0.6642
18306TIP3    H276410   5.917   3.161  16.282  0.2318  0.0146 -0.1707
18307TIP3   OH276411   0.334   0.751  12.456 -0.4637  0.2564  0.0898
18307TIP3    H176412   0.282   0.831  12.462  1.0834  1.2722  0.1455
18307TIP3    H276413   0.269   0.681  12.455 -1.8468  1.5076 -0.0858
18308TIP3   OH276414   1.965   1.782  16.332 -0.2630  0.3117  0.4202
18308TIP3    H176415   2.035   1.815  16.387 -0.9672 -0.4183  1.7699
18308TIP3    H276416   1.901   1.853  16.329 -0.4357  0.1760  0.9241
18309TIP3   OH276417   4.631   1.544  11.201 -0.3401  0.3683  0.3573
18309TIP3    H176418   4.690   1.601  11.151 -1.6508  1.3755 -0.0664
18309TIP3    H276419   4.608   1.596  11.278  0.8486 -0.7773  1.4964
18310TIP3   OH276420   4.366   1.084  13.125  0.5564  0.1348  0.6723
18310TIP3    H176421   4.281   1.106  13.087 -0.3082 -1.7667  1.4380
18310TIP3    H276422   4.351   1.087  13.220  1.2602 -0.4196  0.8051
18311TIP3   OH276423   3.049   4.117  15.610  0.0763 -0.3645 -0.2658
18311TIP3    H176424   2.995   4.111  15.531  1.9600 -0.6026 -1.5855
18311TIP3    H276425   3.074   4.209  15.615  1.8605 -0.7568 -1.3117
18312TIP3   OH276426   1.908   3.958   1.853  0.4361  0.4710 -0.2910
18312TIP3    H176427   1.816   3.943   1.828 -0.8199  4.2052  1.6775
18312TIP3    H276428   1.948   3.872   1.851 -2.7861 -1.0796 -2.4981
18313TIP3   OH276429   2.214   2.977  11.862  0.1413  0.3109  0.0710
18313TIP3    H176430   2.201   2.975  11.767  1.2839  2.6379 -0.1874
18313TIP3    H276431   2.147   3.037  11.894 -1.0463 -1.4299  0.9220
18314TIP3   OH276432   1.140   6.706   0.872 -0.3755  0.1929  0.5577
18314TIP3    H176433   1.203   6.736   0.807 -0.1355  0.0094  0.7047
18314TIP3    H276434   1.080   6.779   0.883  0.3598  0.7255  1.1065
18315TIP3   OH276435   4.680   3.040   5.692  0.2345 -0.0651 -0.2186
18315TIP3    H176436   4.723   2.954   5.699 -0.1932 -0.1587  1.5663
18315TIP3    H276437   4.617   3.029   5.621  0.9979 -0.8754 -0.7845
18316TIP3   OH276438   5.622   0.159  17.250  0.3029 -0.2778 -0.2029
18316TIP3    H176439   5.679   0.168  17.174 -0.4304  0.7411 -0.6434
18316TIP3    H276440   5.551   0.221  17.235  1.3978  1.6941  2.4568
18317TIP3   OH276441   0.645   4.572   4.914 -0.1606 -0.1622  0.2464
18317TIP3    H176442   0.714   4.554   4.850  0.6956 -0.1450  1.1515
18317TIP3    H276443   0.582   4.501   4.902  1.4353 -1.8136  1.3490
18318TIP3   OH276444   4.065   5.683   5.731 -0.3592 -0.3059 -0.6023
18318TIP3    H176445   4.083   5.776   5.741 -2.2444 -0.0086  0.1829
18318TIP3    H276446   4.029   5.674   5.643 -2.6477  0.1334  0.2556
18319TIP3   OH276447   0.609   5.820  11.925  0.5105 -0.0107 -0.0765
18319TIP3    H176448   0.647   5.801  11.839 -0.2900 -0.4726 -0.3336
18319TIP3    H276449   0.617   5.739  11.974  1.6848  0.4815  0.5676
18320TIP3   OH276450   4.611   2.523   5.977 -0.5634  0.1042  0.2514
18320TIP3    H176451   4.517   2.531   5.962 -0.6483 -0.6471  0.3653
18320TIP3    H276452   4.628   2.429   5.977  0.3396  0.2562 -0.6528
18321TIP3   OH276453   6.765   0.547   0.366  0.0348 -0.3719 -0.1498
18321TIP3    H176454   6.860   0.539   0.377  0.0371  1.5460  1.7216
18321TIP3    H276455   6.753   0.615   0.300 -0.0179  0.8953  1.1420
18322TIP3   OH276456   3.429   3.570   6.332  0.2622 -0.2420  0.0153
18322TIP3    H176457   3.406   3.635   6.399  0.6574 -0.6888  0.5863
18322TIP3    H276458   3.524   3.578   6.322  0.3217 -0.7710  0.1342
18323TIP3   OH276459   1.057   1.918   3.133 -0.8022  0.1244 -0.1475
18323TIP3    H176460   1.110   1.983   3.178 -0.1127 -0.5083 -0.0246
18323TIP3    H276461   1.102   1.835   3.150 -0.4158 -0.1127 -2.1196
18324TIP3   OH276462   4.635   2.044   2.120  0.1987  0.2594 -0.6609
18324TIP3    H176463   4.598   1.966   2.162  0.0565 -0.1554 -1.5409
18324TIP3    H276464   4.572   2.066   2.051  1.1488  0.0756 -1.5943
18325TIP3   OH276465   4.997   3.267  15.828 -0.3661 -0.3695  0.8443
18325TIP3    H176466   4.960   3.316  15.901  0.4843 -1.4697  2.0462
18325TIP3    H276467   4.922   3.231  15.782 -0.9569  1.2863  0.4989
18326TIP3   OH276468   4.028   6.499   2.873  0.2357 -0.5644 -0.5803
18326TIP3    H176469   3.998   6.434   2.937 -1.0828 -1.2637 -1.8917
18326TIP3    H276470   4.076   6.448   2.808  1.9329  0.2032  0.0333
18327TIP3   OH276471   5.556   5.611  12.932 -0.6515 -0.1310 -0.6589
18327TIP3    H176472   5.596   5.691  12.899 -2.8730  1.3494  0.0795
18327TIP3    H276473   5.515   5.638  13.015  1.1788 -2.7499  1.1818
18328TIP3   OH276474   6.650   6.122  14.464 -0.2180  0.1270 -0.2168
18328TIP3    H176475   6.678   6.213  14.457 -0.8513  0.4623  1.3892
18328TIP3    H276476   6.623   6.099  14.375 -0.6211  1.6996 -0.5280
18329TIP3   OH276477   4.771   3.621  10.934  0.7711  0.0992 -1.2980
18329TIP3    H176478   4.777   3.532  10.970 -2.1493 -0.1400 -1.2642
18329TIP3    H276479   4.699   3.616  10.872 -0.6951  2.9019  0.0926
18330TIP3   OH276480   2.388   0.628  16.481 -0.2198 -0.4886 -0.4631
18330TIP3    H176481   2.447   0.577  16.425 -1.1373 -0.4453 -1.4858
18330TIP3    H276482   2.369   0.707  16.430  0.5184  0.4715  0.7577
18331TIP3   OH276483   0.270   1.725  15.228  0.1724  0.0629 -0.0130
18331TIP3    H176484   0.353   1.701  15.270  0.6108  1.9117  0.2562
18331TIP3    H276485   0.289   1.722  15.134  0.1453 -0.8578  0.0091
18332TIP3   OH276486   5.763   6.134   3.904  0.5391  0.4943  0.2768
18332TIP3    H176487   5.710   6.161   3.829 -0.3280  1.1714  1.1115
18332TIP3    H276488   5.796   6.048   3.881 -0.2135  0.4469 -0.6364
18333TIP3   OH276489   4.334   4.239  11.335  0.5062  0.0281  0.4168
18333TIP3    H176490   4.324   4.276  11.248 -1.5058  0.9588  1.0118
18333TIP3    H276491   4.420   4.269  11.365  0.1159  1.8379 -0.2438
18334TIP3   OH276492   1.295   0.384   4.276 -0.5802 -0.4687  0.1139
18334TIP3    H176493   1.297   0.478   4.255 -0.8022 -0.2202  1.1986
18334TIP3    H276494   1.214   0.352   4.235 -1.0394  0.0257  0.6247
18335TIP3   OH276495   6.106   2.504  12.892 -0.2262 -0.0446 -0.0756
18335TIP3    H176496   6.152   2.518  12.809  2.4607 -1.4517  1.0865
18335TIP3    H276497   6.170   2.529  12.958 -1.1239 -2.0625  1.6172
18336TIP3   OH276498   0.730   2.784   2.017  0.1977 -0.5572 -0.6266
18336TIP3    H176499   0.824   2.795   2.003  0.1900 -1.1438 -1.1969
18336TIP3    H276500   0.700   2.737   1.939  0.1591 -4.0003  1.3627
18337TIP3   OH276501   0.386   4.408  15.817 -0.0838 -0.2708  0.1113
18337TIP3    H176502   0.294   4.387  15.833  0.1504  0.8946  3.4465
18337TIP3    H276503   0.398   4.495  15.855  1.9294  0.5025 -2.1272
18338TIP3   OH276504   1.169   0.060   3.161  0.9188 -0.0365 -0.6892
18338TIP3    H176505   1.265   0.052   3.160  0.9485 -0.0196  0.8414
18338TIP3    H276506   1.149   0.086   3.251 -0.5741 -0.6609 -0.8410
18339TIP3   OH276507   3.107   5.721   5.581 -0.4636  0.5309  0.0001
18339TIP3    H176508   3.042   5.723   5.511  0.0093 -0.1609 -0.4582
18339TIP3    H276509   3.081   5.793   5.639 -2.3440 -0.4558  0.4418
18340TIP3   OH276510   1.930   5.871  16.134  0.0301 -0.5191 -0.2039
18340TIP3    H176511   1.863   5.937  16.114 -2.1106 -2.0314  1.7128
18340TIP3    H276512   1.955   5.836  16.048 -1.6183  0.0886 -0.9505
18341TIP3   OH276513   1.772   5.014  11.423 -0.5580  0.5723 -0.1287
18341TIP3    H176514   1.701   5.043  11.365 -0.1106  1.1690 -0.3881
18341TIP3    H276515   1.834   4.971  11.366 -1.3586 -1.1824  0.3064
18342TIP3   OH276516   3.597   0.501  16.179 -0.4001  0.0202 -0.1460
18342TIP3    H176517   3.604   0.472  16.088  0.3644 -1.4055  0.3450
18342TIP3    H276518   3.503   0.503  16.197 -0.4978 -1.0861 -0.5290
18343TIP3   OH276519   1.520   2.374   2.615 -1.0274 -0.0767  0.2345
18343TIP3    H176520   1.435   2.340   2.641 -1.7157  0.2044 -1.5454
18343TIP3    H276521   1.552   2.420   2.692 -3.0974  0.9767  0.4980
18344TIP3   OH276522   3.894   3.948  13.647  0.1421 -0.2508 -0.2525
18344TIP3    H176523   3.935   4.029  13.615  0.8903 -0.8794 -0.9386
18344TIP3    H276524   3.828   3.976  13.710 -0.2051  0.9418 -1.1399
18345TIP3   OH276525   1.322   0.019  16.930 -0.3732  0.3498  0.0858
18345TIP3    H176526   1.378   0.095  16.947 -0.4339  0.1641  1.1620
18345TIP3    H276527   1.303  -0.016  17.017 -0.0818 -1.0982 -0.4365
18346TIP3   OH276528   1.304   6.070  17.269  0.4846  0.3275  0.1652
18346TIP3    H176529   1.227   6.073  17.326  2.1396 -0.7084  2.5457
18346TIP3    H276530   1.375   6.105  17.323  2.4399 -2.2477 -0.6575
18347TIP3   OH276531   4.866   0.729   0.020  0.0926 -0.1054  0.6740
18347TIP3    H176532   4.794   0.686   0.065  1.0125 -0.6286  1.6822
18347TIP3    H276533   4.938   0.728   0.083  0.8912  0.6887 -0.1930
18348TIP3   OH276534   2.688   6.621  13.288 -0.2875  0.2197 -0.0826
18348TIP3    H176535   2.682   6.666  13.372 -0.7796  1.4126 -0.7493
18348TIP3    H276536   2.599   6.592  13.269 -0.3899  0.9464 -0.7326
18349TIP3   OH276537   0.340   3.429   1.428 -0.2326  0.1878 -1.1011
18349TIP3    H176538   0.391   3.359   1.385 -1.1874 -0.5903 -0.9735
18349TIP3    H276539   0.321   3.394   1.515 -3.0582 -0.5377 -1.9783
18350TIP3   OH276540   6.106   0.848  15.024 -0.2153 -0.3581 -0.1395
18350TIP3    H176541   6.170   0.780  15.047 -0.4901 -0.4153  0.4378
18350TIP3    H276542   6.154   0.930  15.034  0.0978 -0.4585 -0.7753
18351TIP3   OH276543   4.615   1.779  12.175  0.1141 -0.4087  0.4804
18351TIP3    H176544   4.611   1.803  12.267 -1.4912 -0.4887  0.4608
18351TIP3    H276545   4.524   1.761  12.151  0.5182 -0.5070 -1.0856
18352TIP3   OH276546   1.466   4.124  16.357 -0.5112  0.0936 -0.2533
18352TIP3    H176547   1.493   4.034  16.342 -3.7954 -1.2433  1.4277
18352TIP3    H276548   1.524   4.156  16.426 -0.7199 -1.4613  0.6631
18353TIP3   OH276549   0.107   6.609  16.513 -0.9720  0.5068 -0.1917
18353TIP3    H176550   0.029   6.617  16.458 -2.7643 -1.2437  1.9733
18353TIP3    H276551   0.139   6.520  16.496 -0.6177  0.5168  0.3924
18354TIP3   OH276552   2.727   2.601  11.199 -0.0337 -0.1501  0.1454
18354TIP3    H176553   2.809   2.551  11.198 -0.3362 -0.6690 -2.9256
18354TIP3    H276554   2.744   2.674  11.258  1.5610 -2.0147  2.0531
18355TIP3   OH276555   5.108   3.820   2.451  0.0543  0.3896 -0.3133
18355TIP3    H176556   5.052   3.744   2.431 -0.4390  0.9116 -0.9677
18355TIP3    H276557   5.196   3.792   2.424 -0.1341  0.0664 -0.6138
18356TIP3   OH276558   2.113   4.412  14.911 -0.1317 -0.4122  0.5285
18356TIP3    H176559   2.171   4.390  14.839 -0.5427 -1.8870  0.6321
18356TIP3    H276560   2.059   4.484  14.878  1.2358  0.4865  0.1850
18357TIP3   OH276561   4.569   3.404   0.772  0.7976  0.1529 -0.1169
18357TIP3    H176562   4.588   3.313   0.798  0.6887  0.0626 -0.3579
18357TIP3    H276563   4.555   3.400   0.678 -1.1908  0.0790  0.1496
18358TIP3   OH276564   3.889   4.192   4.206  0.4677  0.3153  0.3195
18358TIP3    H176565   3.966   4.230   4.166 -1.1577  0.8940 -2.3719
18358TIP3    H276566   3.837   4.267   4.235 -0.9816  0.0909 -1.6060
18359TIP3   OH276567   0.271   5.377  13.857  0.0224 -0.2493  0.4582
18359TIP3    H176568   0.210   5.447  13.881 -0.7094 -0.9833  0.7732
18359TIP3    H276569   0.344   5.422  13.814 -0.1458  0.7678  1.2174
18360TIP3   OH276570   6.175   1.161   1.045 -0.3020 -0.0727  0.0374
18360TIP3    H176571   6.180   1.247   1.086 -1.4465 -0.0199  0.0849
18360TIP3    H276572   6.130   1.106   1.110 -0.7386 -0.3757 -0.5126
18361TIP3   OH276573   6.060   6.582   6.745 -0.1050 -0.2664 -0.5135
18361TIP3    H176574   6.093   6.617   6.828  1.3832  1.9975 -1.9811
18361TIP3    H276575   5.980   6.632   6.729 -1.3026 -1.8646  0.3270
18362TIP3   OH276576   2.036   4.921   3.302 -0.2926 -0.0337  0.0686
18362TIP3    H176577   1.957   4.905   3.250 -1.5544 -2.2933  2.5642
18362TIP3    H276578   2.094   4.968   3.243 -2.9814  0.4991 -2.2685
18363TIP3   OH276579   1.908   2.311  14.704 -0.6516 -0.2787  0.5128
18363TIP3    H176580   1.953   2.360  14.773  0.7363 -0.1042 -0.4949
18363TIP3    H276581   1.901   2.374  14.632 -0.4235 -1.0216 -0.1655
18364TIP3   OH276582   4.246   0.422  13.537 -0.1908  0.5574  0.5433
18364TIP3    H176583   4.333   0.460  13.523 -0.4058  0.6915 -0.4812
18364TIP3    H276584   4.188   0.477  13.485 -0.4138 -1.5900 -1.5962
18365TIP3   OH276585   5.154   3.905  16.822  0.1912 -0.0128  0.2038
18365TIP3    H176586   5.061   3.882  16.827  0.4604 -0.6866  2.8664
18365TIP3    H276587   5.179   3.882  16.733 -1.8952 -0.9886 -0.1711
18366TIP3   OH276588   6.760   2.982  11.776  0.5846  0.7596 -0.0202
18366TIP3    H176589   6.846   2.990  11.735  1.1161  0.1476  0.9605
18366TIP3    H276590   6.724   2.900  11.741 -0.1815  1.6847 -1.4668
18367TIP3   OH276591   4.157   4.546   0.257  0.1235 -0.3664  0.2072
18367TIP3    H176592   4.134   4.543   0.164 -1.4896  0.0466  0.5762
18367TIP3    H276593   4.222   4.477   0.268 -1.6837 -2.2574 -0.6957
18368TIP3   OH276594   1.342   4.603   5.573  0.4857 -0.0155  0.1924
18368TIP3    H176595   1.424   4.555   5.580  1.1677  1.2214  0.7531
18368TIP3    H276596   1.334   4.649   5.657 -1.0608 -0.5717  0.3724
18369TIP3   OH276597   0.079   6.778  15.222  0.0883 -0.3845 -0.4393
18369TIP3    H176598   0.134   6.835  15.277 -0.9902  0.8995 -0.6532
18369TIP3    H276599   0.024   6.730  15.284 -0.0725 -0.0510 -0.3229
18370TIP3   OH276600   4.635   1.233   0.726 -0.0833 -0.1450  0.1264
18370TIP3    H176601   4.591   1.243   0.641  0.1789  2.2591  0.2449
18370TIP3    H276602   4.714   1.183   0.707  1.1661  2.3801 -1.4668
18371TIP3   OH276603   6.555   5.287   1.471 -0.0660 -0.4316 -0.4550
18371TIP3    H176604   6.613   5.324   1.405  1.9150  0.0573  1.4946
18371TIP3    H276605   6.593   5.201   1.489  0.0342 -0.1219  0.8151
18372TIP3   OH276606   3.511   5.708  16.539 -0.0412  0.0710 -0.4683
18372TIP3    H176607   3.481   5.793  16.507  1.1488  0.7996  0.3355
18372TIP3    H276608   3.585   5.686  16.482 -0.1294 -0.2820 -0.4560
18373TIP3   OH276609   4.735   4.546   5.309  0.0277  0.7213  0.2762
18373TIP3    H176610   4.675   4.614   5.342 -0.2732  1.0484 -0.9293
18373TIP3    H276611   4.734   4.558   5.214  0.0893 -0.8810  0.0717
18374TIP3   OH276612   3.032   6.358   4.710 -0.6272 -0.3184 -0.1023
18374TIP3    H176613   3.091   6.375   4.636 -0.7581  2.2052  0.3208
18374TIP3    H276614   3.081   6.388   4.787 -1.7290  0.0244  0.4699
18375TIP3   OH276615   4.208   0.650  17.004 -0.2801 -0.4628  0.0393
18375TIP3    H176616   4.253   0.672  16.923  0.0752 -0.4347  0.2429
18375TIP3    H276617   4.156   0.728  17.025  1.0996  0.2663  0.8412
18376TIP3   OH276618   0.978   2.701  17.055  0.2614 -0.2262  0.2561
18376TIP3    H176619   0.930   2.683  16.974 -0.0746 -1.0613  0.6438
18376TIP3    H276620   0.964   2.795  17.070 -1.3426 -0.4715  0.4160
18377TIP3   OH276621   2.603   6.470   4.492 -0.3330 -0.3049 -0.2818
18377TIP3    H176622   2.662   6.527   4.542 -0.4156  0.6527 -1.2482
18377TIP3    H276623   2.590   6.394   4.548  3.3094 -1.4340 -0.8057
18378TIP3   OH276624   2.188   5.692   0.255 -0.2464  0.0083  0.3938
18378TIP3    H176625   2.238   5.769   0.280  0.0444 -0.6767  1.9833
18378TIP3    H276626   2.126   5.724   0.189  1.2434  1.1583 -0.4731
18379TIP3   OH276627   4.158   1.753   3.511 -0.3041 -0.0572 -0.0322
18379TIP3    H176628   4.234   1.789   3.555 -0.2948  0.8385 -0.7692
18379TIP3    H276629   4.095   1.737   3.581  0.6347 -1.0179  0.6080
18380TIP3   OH276630   1.196   6.006   1.253 -0.3885 -0.4367 -0.6110
18380TIP3    H176631   1.194   6.038   1.343 -2.1320 -0.2012 -0.7183
18380TIP3    H276632   1.175   6.084   1.200 -2.6864 -1.2888 -0.9994
18381TIP3   OH276633   6.577   5.306   6.441  0.0975  0.2237 -0.9052
18381TIP3    H176634   6.560   5.397   6.467 -0.3381  0.6427 -2.5964
18381TIP3    H276635   6.664   5.287   6.476 -0.5408  0.6881  1.0001
18382TIP3   OH276636   3.739   5.545   1.850  0.2269  0.1819 -0.3040
18382TIP3    H176637   3.803   5.543   1.922  0.3047 -0.5172 -0.3936
18382TIP3    H276638   3.655   5.556   1.894  0.4804  1.9935 -0.2292
18383TIP3   OH276639   5.430   5.866   5.715  0.3475  0.1647 -0.4030
18383TIP3    H176640   5.478   5.926   5.772 -0.0842 -0.6925  0.8925
18383TIP3    H276641   5.460   5.778   5.741  1.5117 -0.1641 -2.7703
18384TIP3   OH276642   2.663   0.162  11.581  0.3926  0.2339 -0.1382
18384TIP3    H176643   2.746   0.120  11.604 -0.6084 -1.2746  0.8361
18384TIP3    H276644   2.646   0.135  11.491  1.7820  1.9367 -0.9297
18385TIP3   OH276645   0.604   0.892  15.549 -0.3553 -0.2752  0.0627
18385TIP3    H176646   0.556   0.901  15.632  0.4867 -1.3450  0.6703
18385TIP3    H276647   0.636   0.981  15.531 -2.4334  0.4412 -0.2883
18386TIP3   OH276648   4.195   6.349   2.723 -0.4516 -0.2180  0.1198
18386TIP3    H176649   4.230   6.401   2.651  0.0235 -1.5558 -0.6349
18386TIP3    H276650   4.251   6.370   2.797  0.3288 -0.3851 -0.4199
18387TIP3   OH276651   5.617   3.695  10.852 -0.0979 -0.4324 -0.2582
18387TIP3    H176652   5.592   3.630  10.918 -0.4853  0.3500  0.3720
18387TIP3    H276653   5.535   3.714  10.805 -0.2629  0.5866  0.4371
18388TIP3   OH276654   0.018   2.213  14.685  0.0144  0.1382 -0.2663
18388TIP3    H176655  -0.021   2.266  14.615  0.0289 -0.9341 -1.0872
18388TIP3    H276656  -0.048   2.213  14.754 -1.8470 -2.3511 -1.9629
18389TIP3   OH276657   2.228   4.125   6.790 -0.4357 -0.2233  0.2046
18389TIP3    H176658   2.320   4.139   6.813  0.1849 -2.3100 -0.8939
18389TIP3    H276659   2.192   4.077   6.864 -0.6477  0.5480  0.6115
18390TIP3   OH276660   4.408   4.977  15.396 -0.0090 -0.2126 -0.3706
18390TIP3    H176661   4.499   4.959  15.421  0.0296 -0.3372 -0.5956
18390TIP3    H276662   4.391   5.065  15.429 -0.4726 -0.9772  1.5148
18391TIP3   OH276663   4.142   4.321   1.943  0.1382 -0.3488 -0.1717
18391TIP3    H176664   4.200   4.312   1.867  1.1337  0.9721  0.4156
18391TIP3    H276665   4.190   4.377   2.004 -2.0472  1.4123  0.0169
18392TIP3   OH276666   3.804   4.457   4.243 -0.0829  0.2205  0.6232
18392TIP3    H176667   3.753   4.529   4.206 -1.0025  0.0800  1.5905
18392TIP3    H276668   3.850   4.495   4.317  0.1121  0.0156  0.6092
18393TIP3   OH276669   3.257   4.888   1.056 -0.1629 -0.4323  0.1862
18393TIP3    H176670   3.164   4.901   1.038  0.2477  1.9020 -0.5280
18393TIP3    H276671   3.299   4.899   0.970  0.8526 -0.4050  0.6805
18394TIP3   OH276672   5.905   4.640   2.915  0.2491 -0.5959  0.3308
18394TIP3    H176673   5.920   4.547   2.933 -0.2505 -0.5274  1.0929
18394TIP3    H276674   5.990   4.681   2.931  0.3798 -0.8658  0.3348
18395TIP3   OH276675   1.081   6.694   3.595  0.1103  0.2000  0.3363
18395TIP3    H176676   1.058   6.602   3.608 -0.3164  0.4094  1.0820
18395TIP3    H276677   1.013   6.728   3.537  1.3448 -0.4297 -1.5283
18396TIP3   OH276678   2.560   3.043   2.486 -0.1412  0.0646  0.0514
18396TIP3    H176679   2.632   2.988   2.456  0.1365  0.6191 -0.3010
18396TIP3    H276680   2.481   2.990   2.472 -0.0140  0.2899 -1.5899
18397TIP3   OH276681   5.261   2.751   0.793  0.2917 -0.2552  0.1755
18397TIP3    H176682   5.245   2.840   0.822  0.9297 -0.5958  1.5800
18397TIP3    H276683   5.201   2.739   0.719 -0.0147  1.2212  0.1738
18398TIP3   OH276684   0.977   4.933  15.171 -0.0787  0.7297 -0.4766
18398TIP3    H176685   0.965   4.862  15.108  0.5831  1.5258 -1.5170
18398TIP3    H276686   1.064   4.918  15.208  0.2103  1.1944 -0.9604
18399TIP3   OH276687   5.490   0.205  16.265  0.1033 -0.4781  0.2036
18399TIP3    H176688   5.581   0.235  16.279 -0.1334 -0.1323  1.0403
18399TIP3    H276689   5.439   0.255  16.329 -0.3984 -2.2010  1.1656
18400TIP3   OH276690   4.618   0.688   4.092  0.1482  0.1249  0.1705
18400TIP3    H176691   4.693   0.629   4.100 -0.4784 -0.3909  2.6482
18400TIP3    H276692   4.542   0.631   4.093 -0.5182  0.9508  3.5710
18401TIP3   OH276693   5.975   2.036   1.497 -0.1984  0.2261 -0.5147
18401TIP3    H176694   5.994   1.947   1.469  0.6045  0.4716 -0.7714
18401TIP3    H276695   6.060   2.073   1.520 -0.3447  1.3697 -1.7349
18402TIP3   OH276696   2.000   2.967  16.309  0.3975  0.3508  0.0236
18402TIP3    H176697   1.999   3.050  16.357 -1.0729  0.6361 -0.4407
18402TIP3    H276698   2.070   2.916  16.349  0.9582  1.6070  0.6801
18403TIP3   OH276699   5.169   2.484  15.696 -0.4471  0.6905  0.8277
18403TIP3    H176700   5.179   2.568  15.650  1.9533 -0.0192 -0.0321
18403TIP3    H276701   5.179   2.419  15.627 -2.1364 -0.3370  1.5266
18404TIP3   OH276702   0.406   0.548   3.204  0.1438  0.4565 -0.1897
18404TIP3    H176703   0.446   0.591   3.279 -0.8167  1.3407 -0.1691
18404TIP3    H276704   0.323   0.513   3.237 -0.4291  1.1233 -0.9102
18405TIP3   OH276705   4.075   0.183  15.723  0.4298 -0.5441 -0.3682
18405TIP3    H176706   4.097   0.192  15.815  0.0898 -1.1878 -0.2242
18405TIP3    H276707   4.084   0.272  15.687 -1.4484  0.0915  0.7067
18406TIP3   OH276708   2.251   2.085  15.146  0.3135 -0.4401  0.2546
18406TIP3    H176709   2.274   2.108  15.236 -0.4378  0.0516  0.3253
18406TIP3    H276710   2.155   2.091  15.143  0.2477 -1.5906 -0.2692
18407TIP3   OH276711   4.644   4.222   0.682  0.3494  0.6026  0.2321
18407TIP3    H176712   4.610   4.312   0.684 -0.9339  0.1544 -1.0611
18407TIP3    H276713   4.612   4.182   0.763  0.8146  1.2486  0.7487
18408TIP3   OH276714   5.136   1.023  17.089 -0.2806 -0.1208 -0.1747
18408TIP3    H176715   5.051   0.989  17.061 -1.1304  0.1316  2.0185
18408TIP3    H276716   5.116   1.104  17.135  1.3219  0.8081 -1.0413
18409TIP3   OH276717   5.957   0.716  14.716 -0.5085  0.1642 -0.1880
18409TIP3    H176718   5.884   0.765  14.678 -2.1954 -1.9733  0.2136
18409TIP3    H276719   5.998   0.672  14.642 -0.8276 -0.1558 -0.1788
18410TIP3   OH276720   0.099   0.155  16.114 -0.6734  0.5060  0.0233
18410TIP3    H176721   0.133   0.115  16.194  1.5678  2.0164 -0.0975
18410TIP3    H276722   0.022   0.204  16.142 -0.9200 -0.4042  0.9382
18411TIP3   OH276723   3.020   5.380   2.977 -0.0877  0.4916  0.0496
18411TIP3    H176724   3.105   5.424   2.967  0.0871  0.5966  1.7351
18411TIP3    H276725   3.025   5.340   3.064 -1.4199 -0.3011 -0.2288
18412TIP3   OH276726   5.494   1.873  15.833  0.0692 -0.0141  0.0011
18412TIP3    H176727   5.534   1.942  15.780  1.1946  0.7804  1.8187
18412TIP3    H276728   5.531   1.886  15.921 -2.6020 -0.5851  1.2518
18413TIP3   OH276729   4.004   0.288  14.107 -0.2325  0.4542  0.9310
18413TIP3    H176730   3.987   0.349  14.179  0.1700  1.2461  0.3535
18413TIP3    H276731   3.945   0.214  14.125 -1.2271  1.3105  1.2560
18414TIP3   OH276732   4.051   6.352  15.783  0.9865  0.0111  0.2613
18414TIP3    H176733   3.983   6.397  15.733  0.4389 -1.5291 -0.4079
18414TIP3    H276734   4.127   6.410  15.776  0.7538  0.1041 -1.8909
18415TIP3   OH276735   5.853   6.309   0.013 -0.0347 -0.0919 -0.0451
18415TIP3    H176736   5.949   6.304   0.014 -0.0700 -0.9014  0.5482
18415TIP3    H276737   5.831   6.320  -0.080  0.6148 -0.3615 -0.2384
18416TIP3   OH276738   2.301   0.258   3.020  0.2604 -0.3682 -0.1885
18416TIP3    H176739   2.346   0.236   2.939  2.0112 -0.1448  0.6872
18416TIP3    H276740   2.345   0.205   3.087 -0.1212  0.6025  0.8471
18417TIP3   OH276741   1.911   4.512   3.926 -0.5535 -0.3149  0.4445
18417TIP3    H176742   1.998   4.522   3.887 -1.3950  3.2266 -0.7297
18417TIP3    H276743   1.928   4.487   4.017  1.7568  1.5036  0.5636
18418TIP3   OH276744   1.471   4.952   5.476 -0.0079 -0.4690  0.2845
18418TIP3    H176745   1.451   4.909   5.560 -0.2733 -1.8786 -0.4819
18418TIP3    H276746   1.561   4.982   5.486  0.4533 -1.9008  0.5664
18419TIP3   OH276747   2.523   5.664   0.783 -0.4053  0.6407  0.5583
18419TIP3    H176748   2.506   5.569   0.781 -0.0423  0.5649  1.1164
18419TIP3    H276749   2.442   5.703   0.748 -0.5944  0.1326  0.4163
18420TIP3   OH276750   6.176   2.208  11.282 -0.0591 -0.6742  0.1584
18420TIP3    H176751   6.216   2.169  11.204  0.2604 -0.9254  0.4477
18420TIP3    H276752   6.240   2.273  11.311 -0.1055 -0.6943  0.3062
18421TIP3   OH276753   0.637   0.962   4.898 -0.0023 -0.0889  0.5011
18421TIP3    H176754   0.551   0.953   4.859 -0.4054  1.3532  1.0218
18421TIP3    H276755   0.681   0.879   4.880  0.0699  0.7582 -3.5338
18422TIP3   OH276756   2.651   3.880  10.688  0.1749 -0.2829  0.4191
18422TIP3    H176757   2.669   3.787  10.702 -1.0109 -0.8282 -1.5114
18422TIP3    H276758   2.725   3.911  10.635 -0.7736 -0.7838 -1.2324
18423TIP3   OH276759   4.178   5.610   5.312 -0.6478 -0.0122  0.3035
18423TIP3    H176760   4.191   5.530   5.262 -0.5248  0.9915 -1.2956
18423TIP3    H276761   4.256   5.663   5.295 -1.1426  0.8357  0.6225
18424TIP3   OH276762   0.707   2.953   2.703  0.4870 -0.1463  0.3169
18424TIP3    H176763   0.695   2.892   2.631  0.1279 -0.0229  0.2714
18424TIP3    H276764   0.629   2.942   2.757  0.2075  0.6027  0.0667
18425TIP3   OH276765   4.263   5.863   3.906  0.2085 -0.5127  0.5225
18425TIP3    H176766   4.214   5.907   3.975  0.2076 -0.9489  0.8064
18425TIP3    H276767   4.229   5.899   3.825 -0.2089 -0.4270  0.7352
18426TIP3   OH276768   4.638   0.147  10.803  0.1238 -0.1777 -0.0886
18426TIP3    H176769   4.720   0.121  10.761  2.2198  2.0618  2.4450
18426TIP3    H276770   4.628   0.239  10.782 -1.8679 -0.4771 -0.5205
18427TIP3   OH276771   5.946   0.835  13.597 -0.0965 -0.0172 -0.3679
18427TIP3    H176772   5.972   0.775  13.667 -0.0125 -0.1360 -0.5011
18427TIP3    H276773   5.989   0.801  13.519  2.1437  1.7583  0.0552
18428TIP3   OH276774   6.205   4.143   5.924  0.0855 -0.4207  0.7495
18428TIP3    H176775   6.275   4.079   5.913 -0.1584 -0.6412  0.4827
18428TIP3    H276776   6.249   4.220   5.959  0.7936  0.0855 -1.1796
18429TIP3   OH276777   1.993   4.570  16.018  0.0089 -0.2270  0.5563
18429TIP3    H176778   2.086   4.574  15.999  0.0469 -1.7136  0.4073
18429TIP3    H276779   1.988   4.534  16.107 -0.3848  1.1639  1.1238
18430TIP3   OH276780   1.743   6.014   5.410  0.3391  0.0823 -0.3928
18430TIP3    H176781   1.795   6.066   5.348 -0.4861  0.3811 -0.8503
18430TIP3    H276782   1.693   5.955   5.354 -0.1629  0.1180  0.0205
18431TIP3   OH276783   4.125   4.694   2.714 -0.0552 -0.5248 -0.8099
18431TIP3    H176784   4.144   4.621   2.655 -1.1637 -1.7284  0.2954
18431TIP3    H276785   4.198   4.695   2.775  0.5541  0.0384 -1.5496
18432TIP3   OH276786   5.690   5.182  13.545  0.1342 -0.0766  0.1639
18432TIP3    H176787   5.734   5.107  13.504 -2.7134 -1.6525 -0.1683
18432TIP3    H276788   5.707   5.255  13.486  1.2232 -0.9455 -0.6168
18433TIP3   OH276789   5.258   2.873  13.515  0.1974  0.4489 -0.2777
18433TIP3    H176790   5.314   2.873  13.593  1.8928 -0.4682 -1.4591
18433TIP3    H276791   5.172   2.898  13.548  1.2844  1.9505  1.5915
18434TIP3   OH276792   1.638   6.737  12.429 -0.4157 -0.4769 -0.0969
18434TIP3    H176793   1.680   6.803  12.374  0.8434 -0.7805  0.4771
18434TIP3    H276794   1.585   6.788  12.491  1.3686  0.0982  1.0253
18435TIP3   OH276795   2.262   4.617   6.096  0.3561 -0.1487  0.2755
18435TIP3    H176796   2.282   4.671   6.172 -1.6460 -1.8288  2.0712
18435TIP3    H276797   2.325   4.545   6.100  0.6667  0.1026 -0.0380
18436TIP3   OH276798   3.731   5.599  12.120  0.2263  0.3946  0.1628
18436TIP3    H176799   3.782   5.676  12.144 -0.4063  1.4308 -1.6904
18436TIP3    H276800   3.641   5.631  12.109 -0.4027 -0.9558  1.0963
18437TIP3   OH276801   1.865   5.914  14.052  0.1020 -0.2015 -0.0675
18437TIP3    H176802   1.887   5.823  14.035  0.3919 -0.1911  0.2587
18437TIP3    H276803   1.795   5.910  14.117  1.0102 -0.1551  0.9188
18438TIP3   OH276804   1.047   3.030   4.797 -0.3010  0.7082 -0.5201
18438TIP3    H176805   1.017   2.959   4.741 -0.9365  0.1969  0.4629
18438TIP3    H276806   0.990   3.104   4.776 -0.8909  0.3568 -0.1646
18439TIP3   OH276807   5.546   0.132   0.395  0.0874 -0.9689 -0.1878
18439TIP3    H176808   5.632   0.093   0.407  0.0494 -0.2436  2.9448
18439TIP3    H276809   5.484   0.062   0.419 -0.0720 -0.4485  0.9948
18440TIP3   OH276810   1.839   6.627   1.548 -0.4710 -0.3571 -0.1167
18440TIP3    H176811   1.800   6.539   1.547 -1.3168 -0.0219  1.3066
18440TIP3    H276812   1.918   6.618   1.602 -0.1169 -0.4199 -0.6453
18441TIP3   OH276813   6.049   4.054   3.557 -0.1177 -0.4548  0.0166
18441TIP3    H176814   5.998   3.979   3.525 -0.3947  0.1475 -0.9808
18441TIP3    H276815   6.021   4.127   3.502  1.0697  0.1137  0.1577
18442TIP3   OH276816   4.815   5.852   3.663 -0.7733 -0.6111 -0.1419
18442TIP3    H176817   4.730   5.811   3.648 -0.6204 -0.4872 -1.4619
18442TIP3    H276818   4.864   5.789   3.716 -2.5230  0.3873  2.7239
18443TIP3   OH276819   2.847   3.318  14.739 -0.6728 -0.7142  0.9483
18443TIP3    H176820   2.867   3.254  14.807  1.6283  1.2408  2.2059
18443TIP3    H276821   2.904   3.393  14.759 -0.6637  0.3105 -2.5416
18444TIP3   OH276822   2.384   4.227   5.210  0.0360 -0.1520 -0.2669
18444TIP3    H176823   2.377   4.260   5.120  0.2132 -1.0556 -0.6193
18444TIP3    H276824   2.478   4.231   5.229 -0.1929  1.7469  0.5392
18445TIP3   OH276825   6.433   1.666  11.039 -0.2224 -0.1839 -0.2747
18445TIP3    H176826   6.380   1.620  11.104  0.4518  0.6477  0.8848
18445TIP3    H276827   6.504   1.605  11.019 -0.6191 -0.5782 -0.4846
18446TIP3   OH276828   1.585   1.189   4.225 -1.0611  0.5436 -0.1962
18446TIP3    H176829   1.621   1.107   4.191 -1.3397  0.3038  0.0919
18446TIP3    H276830   1.609   1.254   4.159  0.0099  0.4125  0.0449
18447TIP3   OH276831   1.618   3.512   2.517  0.6348 -0.0103  0.0220
18447TIP3    H176832   1.570   3.593   2.499 -0.2309 -0.6311 -0.5116
18447TIP3    H276833   1.594   3.488   2.606  0.6934  0.1809  0.0893
18448TIP3   OH276834   0.979   6.177   3.803 -0.0340 -0.1906  0.5022
18448TIP3    H176835   1.005   6.116   3.734  0.7447 -0.4767  1.0330
18448TIP3    H276836   0.970   6.122   3.881 -2.8715 -0.1994  0.2088
18449TIP3   OH276837   3.258   1.372   0.772  0.4503 -0.0832  0.3004
18449TIP3    H176838   3.182   1.418   0.805  0.6101  1.3698 -1.2925
18449TIP3    H276839   3.239   1.279   0.787 -0.5202  0.4057  2.1488
18450TIP3   OH276840   6.268   3.348  16.459  0.6581  0.2198  0.1882
18450TIP3    H176841   6.333   3.319  16.523  1.2057  0.3425 -0.3046
18450TIP3    H276842   6.312   3.417  16.409 -0.0045  0.6143  0.1412
18451TIP3   OH276843   2.663   4.854   5.713 -0.3945  0.4603 -0.4294
18451TIP3    H176844   2.758   4.845   5.722 -0.2289  3.6435  1.8678
18451TIP3    H276845   2.641   4.800   5.637  2.9751 -1.7608  0.0827
18452TIP3   OH276846   0.632   5.064   6.754  0.2156  0.4946  0.3522
18452TIP3    H176847   0.646   4.990   6.695  0.8144  0.2196  0.8353
18452TIP3    H276848   0.720   5.094   6.776  0.1037 -0.8284  2.8947
18453TIP3   OH276849   5.541   2.318   5.357  0.0460  0.2404  0.3486
18453TIP3    H176850   5.579   2.305   5.443  1.2478 -0.0417 -0.2142
18453TIP3    H276851   5.502   2.233   5.335 -2.3578  0.9897  1.6083
18454TIP3   OH276852   5.319   6.463  15.362  0.2773  0.3619  0.3590
18454TIP3    H176853   5.407   6.498  15.345  0.2385 -0.1290 -0.9449
18454TIP3    H276854   5.268   6.488  15.285 -0.3595 -0.5626  0.4735
18455TIP3   OH276855   0.328   3.899  14.804 -0.2078 -0.0443 -0.2406
18455TIP3    H176856   0.259   3.931  14.746 -1.1836 -0.7183  0.5338
18455TIP3    H276857   0.370   3.828  14.755 -0.4435 -0.0255 -0.4700
18456TIP3   OH276858   2.587   4.323  13.260  0.5298 -1.0455 -0.6091
18456TIP3    H176859   2.620   4.384  13.326  0.7774 -2.3865  0.5228
18456TIP3    H276860   2.666   4.294  13.213  0.3133  0.2314 -1.8084
18457TIP3   OH276861   5.297   1.220  12.993 -0.0669 -0.3416  0.6001
18457TIP3    H176862   5.210   1.258  12.991 -0.6455 -1.7374 -1.2601
18457TIP3    H276863   5.283   1.126  13.001  1.2245 -0.7289 -1.4694
18458TIP3   OH276864   2.868   0.735  16.210  0.3029  0.3501 -0.2462
18458TIP3    H176865   2.820   0.817  16.207 -1.9598 -0.8938  0.9747
18458TIP3    H276866   2.923   0.742  16.288 -3.1954 -1.0182  2.4689
18459TIP3   OH276867   1.534   0.351  13.612 -0.5144 -0.3169 -0.3695
18459TIP3    H176868   1.600   0.412  13.579  0.4624 -1.5720 -0.7509
18459TIP3    H276869   1.456   0.406  13.624  0.5035  1.1284 -0.1432
18460TIP3   OH276870   2.453   2.068   2.588  0.0892 -0.1138 -0.6843
18460TIP3    H176871   2.505   1.990   2.605 -0.0921  0.0439  0.6935
18460TIP3    H276872   2.363   2.036   2.579  0.3124 -0.3069 -2.3694
18461TIP3   OH276873   1.235   5.233  16.047  0.3794 -0.0113  0.6106
18461TIP3    H176874   1.151   5.272  16.025  0.2022 -0.2410  0.8789
18461TIP3    H276875   1.243   5.157  15.988  0.9096  0.6560 -0.1996
18462TIP3   OH276876   1.678   1.936   5.838 -0.1299 -0.3131 -0.0357
18462TIP3    H176877   1.701   1.987   5.916  1.6612 -2.0641  0.6181
18462TIP3    H276878   1.617   1.992   5.790  0.0193  1.4778  1.7992
18463TIP3   OH276879   6.512   3.108  16.114 -0.2544  0.5214  0.1279
18463TIP3    H176880   6.438   3.082  16.169  1.8820 -0.2023  2.7806
18463TIP3    H276881   6.529   3.032  16.059 -0.0031 -0.1700  1.1582
18464TIP3   OH276882   4.871   5.276   5.735 -0.5530  0.2217 -0.5940
18464TIP3    H176883   4.870   5.279   5.639 -0.9816  0.1319 -0.5924
18464TIP3    H276884   4.929   5.203   5.756 -1.2594 -0.4028 -0.7992
18465TIP3   OH276885   6.225   4.170  15.265 -0.2832  0.6898  0.0749
18465TIP3    H176886   6.240   4.246  15.321  2.0245  0.8519 -0.7141
18465TIP3    H276887   6.131   4.169  15.250 -0.5161  2.5205  1.3066
18466TIP3   OH276888   1.723   0.942  14.929  0.4448 -0.4280 -0.1430
18466TIP3    H176889   1.663   0.867  14.931 -0.7882  0.5751  2.0346
18466TIP3    H276890   1.784   0.926  15.001 -0.5022  1.1913  1.0368
18467TIP3   OH276891   1.944   1.629   4.138 -0.8957  0.4018 -0.4283
18467TIP3    H176892   2.019   1.570   4.142 -1.1681  0.0118 -1.1506
18467TIP3    H276893   1.880   1.592   4.199 -1.2818 -0.3465 -1.2861
18468TIP3   OH276894   3.035   5.803  12.799 -0.4068  0.3290  0.3308
18468TIP3    H176895   2.968   5.842  12.743 -0.0440 -0.3627 -0.5910
18468TIP3    H276896   3.095   5.875  12.818 -0.2439  0.4372 -0.6091
18469TIP3   OH276897   4.162   3.111  15.504 -0.5855  0.1832 -0.1703
18469TIP3    H176898   4.201   3.029  15.535  0.2777  1.0659  1.1616
18469TIP3    H276899   4.233   3.175  15.511 -1.7569  1.4297  0.5210
18470TIP3   OH276900   0.798   0.775   4.426  0.2444  0.3290 -0.6576
18470TIP3    H176901   0.858   0.842   4.394 -0.3752  1.3357  0.2307
18470TIP3    H276902   0.853   0.713   4.474  0.5953  1.1285 -0.0275
18471TIP3   OH276903   5.321   2.452   5.422  0.0090  0.6762 -0.0598
18471TIP3    H176904   5.299   2.445   5.515 -1.3567 -0.0728 -0.4211
18471TIP3    H276905   5.394   2.391   5.410 -0.6079 -0.1330  0.2799
18472TIP3   OH276906   5.704   4.342  13.556 -0.5189 -0.3794  0.4767
18472TIP3    H176907   5.687   4.305  13.470 -0.3496  0.3871  0.1081
18472TIP3    H276908   5.790   4.307  13.581  0.4656  1.1745 -0.6547
18473TIP3   OH276909   1.973   3.815  13.256 -0.3132 -0.2656 -0.4615
18473TIP3    H176910   2.010   3.855  13.178  0.6646 -0.6780 -0.2183
18473TIP3    H276911   1.933   3.888  13.304  1.1235  0.3585 -0.2061
18474TIP3   OH276912   3.271   6.394   3.906  0.2515 -0.1441  0.1812
18474TIP3    H176913   3.317   6.436   3.833 -2.1765  0.5374 -1.0415
18474TIP3    H276914   3.237   6.313   3.869 -0.1096 -0.2972  0.8449
18475TIP3   OH276915   5.931   5.510  11.618  0.2050  0.3073 -0.3061
18475TIP3    H176916   5.898   5.580  11.562 -0.2101 -0.7799 -1.4318
18475TIP3    H276917   5.935   5.433  11.561 -0.6382 -0.9196  1.2577
18476TIP3   OH276918   3.267   4.955  12.181  0.1189 -0.4877 -0.5222
18476TIP3    H176919   3.240   4.948  12.089  0.9339  2.9379 -1.0940
18476TIP3    H276920   3.361   4.943  12.179  0.3676  1.3546 -0.3959
18477TIP3   OH276921   0.278   2.223  13.977  0.2503 -0.1176  0.4131
18477TIP3    H176922   0.347   2.181  14.029 -0.4059 -0.8893  0.6659
18477TIP3    H276923   0.222   2.151  13.949  0.0997  0.3989 -0.6283
18478TIP3   OH276924   6.660   2.733   6.714  0.4705  0.2262  0.2977
18478TIP3    H176925   6.662   2.768   6.626  0.5048  1.5986  0.8327
18478TIP3    H276926   6.616   2.800   6.766 -3.2340 -2.2999  0.5867
18479TIP3   OH276927   0.482   3.430  15.860 -0.1966  0.5158 -0.2584
18479TIP3    H176928   0.428   3.484  15.918 -1.9929 -1.0819 -0.3717
18479TIP3    H276929   0.465   3.464  15.772 -0.2030  0.6868 -0.1913
18480TIP3   OH276930   3.928   0.282  14.419  0.4180 -0.2438  0.5733
18480TIP3    H176931   3.878   0.285  14.500 -2.0686  1.2923 -0.9710
18480TIP3    H276932   3.893   0.207  14.371  0.8621 -0.2634  0.2755
18481TIP3   OH276933   1.987   2.096   3.100  0.4212  0.5127 -0.9592
18481TIP3    H176934   2.056   2.147   3.058  0.7837 -0.4228 -1.5311
18481TIP3    H276935   2.031   2.051   3.172  0.8187 -1.4364 -2.3753
18482TIP3   OH276936   2.013   2.878  16.816 -0.0723 -0.6789  0.3262
18482TIP3    H176937   1.975   2.949  16.764  1.3697 -1.3775 -1.7938
18482TIP3    H276938   2.035   2.811  16.751  3.2308 -0.9521  1.6071
18483TIP3   OH276939   4.248   1.842  14.501  0.3362  0.0728  0.1184
18483TIP3    H176940   4.339   1.869  14.498  0.0870  0.8794 -0.1172
18483TIP3    H276941   4.214   1.861  14.414  0.0252 -0.5196  0.1075
18484TIP3   OH276942   4.718   4.613   5.763  0.3586  0.3103  0.1060
18484TIP3    H176943   4.684   4.694   5.725  0.4294  0.6681  0.8101
18484TIP3    H276944   4.657   4.546   5.733  0.0505  0.6903 -0.1188
18485TIP3   OH276945   4.298   5.712   6.187 -0.6848 -0.2416 -0.1289
18485TIP3    H176946   4.227   5.714   6.122  0.6610  0.9108 -1.6337
18485TIP3    H276947   4.254   5.703   6.271 -2.5695 -0.3446 -1.0961
18486TIP3   OH276948   6.181   1.821  14.579  0.1539  0.1780  0.2703
18486TIP3    H176949   6.131   1.876  14.640  0.2006 -0.1753  0.6320
18486TIP3    H276950   6.117   1.797  14.512 -0.7795 -2.0063  1.8397
18487TIP3   OH276951   6.175   0.285   1.058  0.3429 -0.2451 -0.4368
18487TIP3    H176952   6.221   0.222   1.113 -1.3684  0.0260  1.3392
18487TIP3    H276953   6.198   0.259   0.968  2.2296 -1.3929  0.3533
18488TIP3   OH276954   4.688   6.534   0.013  0.0224  0.1417  0.3949
18488TIP3    H176955   4.705   6.621   0.049 -1.2847  0.5918 -0.0593
18488TIP3    H276956   4.597   6.516   0.035  0.9539 -2.1665  2.6590
18489TIP3   OH276957   4.365   2.910   1.446  0.0516 -0.5415  0.0814
18489TIP3    H176958   4.300   2.930   1.514  0.5003  0.2374  0.2860
18489TIP3    H276959   4.445   2.954   1.476  0.5197 -1.0216 -0.4557
18490TIP3   OH276960   0.323   1.070  14.170 -0.2252 -0.7028 -0.2340
18490TIP3    H176961   0.380   1.078  14.246 -0.2669 -1.2713 -0.1403
18490TIP3    H276962   0.254   1.134  14.186  0.5440  0.1970 -0.4978
18491TIP3   OH276963   6.232   2.995  14.334  0.1626  0.0227  0.0205
18491TIP3    H176964   6.198   2.914  14.297  1.7025  0.3247 -2.1414
18491TIP3    H276965   6.287   3.033  14.265  1.1708  1.8404  1.7419
18492TIP3   OH276966   4.962   4.715  12.092  0.9137 -0.1889  0.1545
18492TIP3    H176967   4.937   4.668  12.012  2.0412 -0.4192 -0.0795
18492TIP3    H276968   4.879   4.744  12.130  0.3284 -0.6003 -0.7829
18493TIP3   OH276969   0.029   5.696  13.081 -0.2892 -0.2330 -0.4156
18493TIP3    H176970   0.085   5.626  13.115 -1.1683 -0.6951  0.1076
18493TIP3    H276971  -0.014   5.657  13.005 -0.6227 -0.1907 -0.2464
18494TIP3   OH276972   2.529   3.397  15.628  0.0032 -0.5409 -0.2636
18494TIP3    H176973   2.439   3.379  15.598 -0.7500  0.8261  1.1224
18494TIP3    H276974   2.568   3.310  15.640 -0.6269 -1.1465 -2.3006
18495TIP3   OH276975   1.217   6.587  12.610  0.4825  0.2471  0.3394
18495TIP3    H176976   1.124   6.569  12.622 -0.1942  3.0622 -0.3327
18495TIP3    H276977   1.256   6.501  12.594 -1.6408 -1.2376  2.6400
18496TIP3   OH276978   4.502   5.761  14.975  0.3993 -0.1325 -0.0488
18496TIP3    H176979   4.559   5.802  15.040  1.9417  0.8502 -1.9792
18496TIP3    H276980   4.518   5.667  14.985 -0.4021 -0.0987  1.8787
18497TIP3   OH276981   3.676   5.614  12.417 -0.3091  0.1061  0.1003
18497TIP3    H176982   3.620   5.692  12.424 -0.5974  0.0287 -1.1800
18497TIP3    H276983   3.630   5.558  12.355 -0.1228 -1.1123  1.0493
18498TIP3   OH276984   1.973   0.099   1.368 -0.2755  0.6080 -0.2097
18498TIP3    H176985   1.903   0.042   1.335 -0.1748  0.3311  0.0613
18498TIP3    H276986   1.948   0.187   1.336 -1.3683  0.7051  0.8628
18499TIP3   OH276987   0.106   2.016  15.884  0.5320  0.1270  0.4723
18499TIP3    H176988   0.190   2.041  15.923  2.1473 -0.5916 -2.4047
18499TIP3    H276989   0.096   1.923  15.905  0.3627  0.2414  0.9192
18500TIP3   OH276990   5.258   4.887  11.745  0.5438  0.0172  0.3402
18500TIP3    H176991   5.320   4.905  11.817  0.6659 -0.8459  0.4564
18500TIP3    H276992   5.296   4.811  11.701  0.1671  0.2068 -0.2974
18501TIP3   OH276993   4.935   2.790   5.721 -0.3022 -0.2907  0.0775
18501TIP3    H176994   4.980   2.790   5.806  1.2157  0.9168 -0.7117
18501TIP3    H276995   4.880   2.711   5.723  0.9670 -1.1659  1.5160
18502TIP3   OH276996   1.466   4.714  12.972 -0.3331 -0.0151 -0.2206
18502TIP3    H176997   1.516   4.641  12.935  0.6699  1.0868 -1.1214
18502TIP3    H276998   1.457   4.776  12.899  0.3943  1.5562  0.9784
18503TIP3   OH276999   4.094   5.302  15.621  0.4738 -0.4553 -0.5537
18503TIP3    H177000   4.062   5.216  15.651 -1.4925  0.7159  0.8075
18503TIP3    H277001   4.062   5.309  15.531  0.3126 -0.9933 -0.5435
18504TIP3   OH277002   0.760   5.043   1.290 -0.0795  0.2933 -0.2073
18504TIP3    H177003   0.737   5.001   1.208 -3.3961  1.9386 -0.2164
18504TIP3    H277004   0.753   5.137   1.272  0.7550  0.7249  1.5371
18505TIP3   OH277005   1.963   1.189  15.318 -0.2741 -0.1330 -0.1255
18505TIP3    H177006   1.954   1.259  15.254  2.0577 -0.9804 -1.4397
18505TIP3    H277007   1.992   1.234  15.398  0.1888  0.5280 -0.6578
18506TIP3   OH277008   2.368   5.376   4.991 -0.1105  0.9331  0.4201
18506TIP3    H177009   2.393   5.346   4.904  1.5650  0.8742  0.9017
18506TIP3    H277010   2.321   5.301   5.029  2.8678 -0.6823  1.1082
18507TIP3   OH277011   3.997   0.424   5.057 -0.4493  0.0731  0.1082
18507TIP3    H177012   4.058   0.407   5.129  0.2849  1.4110 -0.1920
18507TIP3    H277013   3.936   0.489   5.092 -1.3831 -0.8223  0.2068
18508TIP3   OH277014   2.755   5.344  15.755 -0.1066  0.5783  0.1058
18508TIP3    H177015   2.660   5.340  15.761 -0.1510  2.1355  0.5237
18508TIP3    H277016   2.780   5.257  15.722 -1.6136 -0.0286  0.5033
18509TIP3   OH277017   1.791   4.811  13.473  0.0186 -0.4923  0.1197
18509TIP3    H177018   1.781   4.790  13.381  0.6428  2.1683 -0.5929
18509TIP3    H277019   1.878   4.851  13.479 -0.4875  0.4277  1.6421
18510TIP3   OH277020   6.064   5.230   1.964  0.1037  0.0688 -0.7548
18510TIP3    H177021   6.129   5.293   1.994 -0.9022  0.2419  1.1802
18510TIP3    H277022   6.108   5.145   1.969  0.0642  0.1338  0.9960
18511TIP3   OH277023   4.522   3.111  12.253  0.7684 -0.5280  0.1257
18511TIP3    H177024   4.603   3.146  12.291  0.2422  0.2303  0.5438
18511TIP3    H277025   4.552   3.050  12.186  1.6861  1.0993 -0.9695
18512TIP3   OH277026   3.561   1.079  12.399  0.2298 -0.1403  0.4199
18512TIP3    H177027   3.477   1.065  12.442 -0.3886 -1.2670 -1.1062
18512TIP3    H277028   3.597   0.990  12.389  0.5132  0.1237 -1.0399
18513TIP3   OH277029   0.616   1.075  16.202 -0.4056 -0.2965  0.1973
18513TIP3    H177030   0.570   1.041  16.125 -1.9180 -0.0249  0.9625
18513TIP3    H277031   0.687   1.128  16.166  0.8166 -2.6914 -1.0029
18514TIP3   OH277032   4.349   6.108   0.161  0.2353 -0.5051 -0.0588
18514TIP3    H177033   4.305   6.184   0.197 -0.9884 -1.2463  0.0258
18514TIP3    H277034   4.293   6.034   0.183 -0.3058 -1.0550 -3.0031
18515TIP3   OH277035   5.029   5.805  16.524  0.4168 -0.2961 -0.0794
18515TIP3    H177036   4.950   5.761  16.492  1.0483 -1.8450  0.4561
18515TIP3    H277037   5.025   5.795  16.619 -0.2044  2.1684  0.1963
18516TIP3   OH277038   1.528   1.338  12.962  0.3129  0.0040  0.4181
18516TIP3    H177039   1.480   1.259  12.936 -0.1834 -0.4168  2.5176
18516TIP3    H277040   1.509   1.401  12.894 -2.0143 -0.6408  0.4315
18517TIP3   OH277041   5.229   5.425  13.198 -0.1358 -0.4090  0.5918
18517TIP3    H177042   5.165   5.368  13.241 -1.0008  0.1560  0.0810
18517TIP3    H277043   5.313   5.399  13.235 -0.5780 -1.6499  0.7656
18518TIP3   OH277044   3.411   3.384  17.156 -0.6565  0.4518  0.9929
18518TIP3    H177045   3.319   3.360  17.167 -0.0268 -1.1683  3.0428
18518TIP3    H277046   3.430   3.362  17.065 -1.6435 -1.5810  1.2470
18519TIP3   OH277047   4.612   1.331  12.738  0.3189  0.3333 -0.5557
18519TIP3    H177048   4.613   1.426  12.734  0.1247  0.4390  1.5011
18519TIP3    H277049   4.522   1.308  12.761  0.3694 -0.3381 -1.0139
18520TIP3   OH277050   2.003   6.719   4.820 -0.3931  0.1867  0.2951
18520TIP3    H177051   1.934   6.768   4.865 -1.8167  1.1646 -2.7691
18520TIP3    H277052   1.984   6.627   4.839 -4.3056  0.2392 -2.6865
18521TIP3   OH277053   6.767   3.225   2.825  0.3297 -0.8056  0.2677
18521TIP3    H177054   6.811   3.309   2.836 -0.5790 -0.3542  0.4562
18521TIP3    H277055   6.697   3.225   2.890  0.7256 -1.9805  0.7223
18522TIP3   OH277056   1.257   0.284   4.544 -0.1591 -0.6969  0.2631
18522TIP3    H177057   1.279   0.192   4.525  1.6442 -0.3523  0.6713
18522TIP3    H277058   1.239   0.322   4.458  0.4968 -1.0674 -0.0419
18523TIP3   OH277059   6.340   2.257   5.740  0.6273  0.4537  0.0873
18523TIP3    H177060   6.391   2.304   5.806  0.7260  2.5628 -1.4393
18523TIP3    H277061   6.379   2.285   5.656 -0.1504 -1.3805 -0.9018
18524TIP3   OH277062   5.647   1.010  16.344  0.5208  0.0068 -0.1851
18524TIP3    H177063   5.575   1.045  16.396  0.1600  1.1195 -1.3991
18524TIP3    H277064   5.689   1.088  16.307 -0.8597 -0.8656 -3.7147
18525TIP3   OH277065   1.174   2.651  12.163 -0.2460 -0.8023  0.6409
18525TIP3    H177066   1.220   2.730  12.190 -1.0205  0.6794 -2.1574
18525TIP3    H277067   1.166   2.599  12.243  2.0608  1.0215  2.1260
18526TIP3   OH277068   6.485   5.334  11.203  0.0294  0.8784  0.2310
18526TIP3    H177069   6.526   5.408  11.159  1.0779 -1.3713 -2.7793
18526TIP3    H277070   6.557   5.273  11.220 -1.2757 -0.9167 -0.4855
18527TIP3   OH277071   0.406   3.770   6.186 -0.1666  0.4897 -0.2631
18527TIP3    H177072   0.315   3.762   6.216  0.0325  1.5717  0.6961
18527TIP3    H277073   0.450   3.815   6.258  1.2977 -0.6869 -0.4095
18528TIP3   OH277074   4.581   1.878   4.832 -0.0597  0.8799 -0.2856
18528TIP3    H177075   4.646   1.876   4.902  1.4062  1.8257 -1.5606
18528TIP3    H277076   4.625   1.835   4.758 -1.2276  0.7296 -0.8994
18529TIP3   OH277077   1.232   5.569   1.557  0.1601 -0.1603 -0.0053
18529TIP3    H177078   1.177   5.633   1.602  1.7073 -0.4264  2.3151
18529TIP3    H277079   1.173   5.526   1.495 -2.2585 -0.4633  2.4341
18530TIP3   OH277080   3.345   5.394   1.610  0.3583 -0.1121 -0.5097
18530TIP3    H177081   3.326   5.329   1.542 -0.3986  0.1880 -0.5903
18530TIP3    H277082   3.339   5.346   1.692  0.4368 -0.2911 -0.6095
18531TIP3   OH277083   6.693   5.201  11.386 -0.0516 -0.3674 -0.1981
18531TIP3    H177084   6.657   5.124  11.431 -1.0601  1.3271  1.9975
18531TIP3    H277085   6.774   5.221  11.432 -1.5519  1.9322  1.5274
18532TIP3   OH277086   6.736   5.606  16.229 -0.2012 -0.7258 -0.8283
18532TIP3    H177087   6.778   5.692  16.227 -0.7912 -0.3987  0.4564
18532TIP3    H277088   6.753   5.569  16.142  2.2653 -0.3733 -0.5257
18533TIP3   OH277089   6.337   1.802   1.650  0.0527  0.0592  0.2113
18533TIP3    H177090   6.294   1.717   1.635  0.6102  0.0588 -1.5230
18533TIP3    H277091   6.430   1.782   1.644  0.2393  0.4922  1.5896
18534TIP3   OH277092   0.179   6.271   3.335 -0.1946 -0.0791  0.0515
18534TIP3    H177093   0.202   6.261   3.428  0.2176 -1.0008 -0.1484
18534TIP3    H277094   0.230   6.346   3.306  0.4850 -0.4469  0.2977
18535TIP3   OH277095   1.117   3.066  15.224  0.6866 -0.1841 -0.1652
18535TIP3    H177096   1.170   2.990  15.198  1.4012  0.7419 -1.5313
18535TIP3    H277097   1.106   3.115  15.142 -0.3580  0.8108  0.5737
18536TIP3   OH277098   2.510   0.211  17.149 -0.3415 -0.5242 -0.0685
18536TIP3    H177099   2.532   0.242  17.061 -1.0111  0.2022  0.0160
18536TIP3    H277100   2.435   0.264  17.175  0.5333  0.0485  1.3780
18537TIP3   OH277101   0.451   0.103  14.486 -0.3453  0.2276  0.2397
18537TIP3    H177102   0.462   0.048  14.564  1.3303  0.6156  0.3074
18537TIP3    H277103   0.376   0.160  14.507  0.7607  1.0881  2.0452
18538TIP3   OH277104   3.903   6.804   1.618  0.8428  0.0251  0.2495
18538TIP3    H177105   3.813   6.834   1.628  0.2310 -1.9221  0.8197
18538TIP3    H277106   3.932   6.784   1.706  1.4144 -0.5304 -0.0635
18539TIP3   OH277107   0.083   4.674   1.619  0.4327 -0.2320  0.0836
18539TIP3    H177108   0.110   4.730   1.692 -0.9026  0.0224  0.3994
18539TIP3    H277109   0.153   4.608   1.613  0.3840 -0.4876  1.8501
18540TIP3   OH277110   4.102   1.376   5.249  0.0998 -0.2248 -0.2874
18540TIP3    H177111   4.023   1.323   5.237 -0.2691  0.7242 -2.1701
18540TIP3    H277112   4.151   1.365   5.168 -0.0442  2.4025 -0.7645
18541TIP3   OH277113   1.087   0.284   6.801 -0.4583 -0.6514 -0.2301
18541TIP3    H177114   0.996   0.290   6.830 -0.7850 -0.0488 -1.3622
18541TIP3    H277115   1.101   0.192   6.782 -0.2435 -1.0657  1.7979
18542TIP3   OH277116   1.252   6.720   0.402  0.4953 -0.4639 -0.4976
18542TIP3    H177117   1.210   6.656   0.459  2.8038 -1.7267 -0.1652
18542TIP3    H277118   1.332   6.745   0.448  1.9270 -0.7943 -2.7209
18543TIP3   OH277119   5.862   4.591   3.525  0.0805 -0.7787  0.0305
18543TIP3    H177120   5.882   4.638   3.606 -0.1317  1.1094 -0.9802
18543TIP3    H277121   5.938   4.536   3.509  1.4785  1.1523 -0.1122
18544TIP3   OH277122   0.737   5.915  14.076  0.1512  0.0018 -0.0512
18544TIP3    H177123   0.795   5.944  14.147  0.2551  2.4695 -1.0840
18544TIP3    H277124   0.797   5.892  14.005 -0.0424  2.0010 -0.9175
18545TIP3   OH277125   3.346   0.875  12.382 -0.0844 -0.5232 -0.3811
18545TIP3    H177126   3.329   0.921  12.299  0.1693 -2.5001 -1.5492
18545TIP3    H277127   3.360   0.784  12.357  0.1520 -1.1270  1.8382
18546TIP3   OH277128   5.282   3.443   2.168  0.0365  0.3980  0.2744
18546TIP3    H177129   5.263   3.515   2.108 -0.7829 -0.0001  0.0452
18546TIP3    H277130   5.214   3.447   2.234 -1.1863 -1.3416 -0.8247
18547TIP3   OH277131   5.660   5.680  15.822 -0.1411  0.0921  0.4049
18547TIP3    H177132   5.724   5.739  15.782 -1.2624  1.5888  0.7520
18547TIP3    H277133   5.701   5.652  15.904  1.0593 -0.8820 -0.5098
18548TIP3   OH277134   2.247   3.681   5.560 -0.7575 -0.3212 -0.3391
18548TIP3    H177135   2.206   3.715   5.640  0.3563 -1.2696  0.6598
18548TIP3    H277136   2.286   3.598   5.587 -2.2043 -1.6990 -2.3964
18549TIP3   OH277137   6.229   6.541  12.531 -0.1122 -0.1833 -0.5336
18549TIP3    H177138   6.293   6.537  12.602 -1.2406 -1.5894  0.4534
18549TIP3    H277139   6.281   6.554  12.452  1.4513 -1.8794  0.1698
18550TIP3   OH277140   2.105   2.605   5.437  0.2838 -0.0456 -0.3382
18550TIP3    H177141   2.061   2.567   5.361 -0.4643 -0.8186  0.4677
18550TIP3    H277142   2.107   2.699   5.419 -0.2657 -0.1773 -1.1155
18551TIP3   OH277143   2.723   0.662  14.488  0.7409  0.2169 -0.0669
18551TIP3    H177144   2.650   0.695  14.540 -0.4798  0.2284 -1.7403
18551TIP3    H277145   2.714   0.567  14.490  1.8178  0.1209  1.2918
18552TIP3   OH277146   1.934   0.642   5.143  0.1816 -0.3129  0.6257
18552TIP3    H177147   1.978   0.662   5.226 -0.2980  3.7318  0.0225
18552TIP3    H277148   2.002   0.658   5.077 -1.2711  3.2446 -0.1245
18553TIP3   OH277149   6.224   4.939   2.434  0.7607  0.8064 -0.4797
18553TIP3    H177150   6.221   4.955   2.528  3.0773 -1.1424 -0.0137
18553TIP3    H277151   6.138   4.903   2.413  0.5418  0.3869  1.0746
18554TIP3   OH277152   1.808   5.368   1.128  0.0011 -0.3164 -0.2953
18554TIP3    H177153   1.781   5.289   1.176  1.1600 -1.1664 -1.0071
18554TIP3    H277154   1.751   5.437   1.162 -1.3883 -1.5554 -0.0254
18555TIP3   OH277155   1.364   4.556  11.957 -0.8390 -0.0273 -0.9929
18555TIP3    H177156   1.275   4.557  11.922 -0.7100 -0.1845 -1.3226
18555TIP3    H277157   1.403   4.476  11.923 -1.4915 -1.4640  1.4804
18556TIP3   OH277158   2.926   4.432   5.256  0.2273  0.3478 -0.6216
18556TIP3    H177159   2.853   4.493   5.247 -1.4335 -1.4553  0.3223
18556TIP3    H277160   2.964   4.427   5.168 -1.8972 -0.0413 -1.5442
18557TIP3   OH277161   3.184   5.814  13.918  0.1794  0.1377  0.1633
18557TIP3    H177162   3.155   5.741  13.972  1.8748 -1.5127 -1.0718
18557TIP3    H277163   3.103   5.857  13.890 -0.9207 -1.8781  0.1011
18558TIP3   OH277164   0.919   0.748   5.565  0.4023  0.4197 -0.5686
18558TIP3    H177165   0.992   0.758   5.626  0.6490  0.4063 -0.8585
18558TIP3    H277166   0.842   0.776   5.614  0.5643  0.1648 -0.1701
18559TIP3   OH277167   4.492   1.306   0.508 -0.0999  0.4227  0.3331
18559TIP3    H177168   4.437   1.234   0.476  0.6148  0.1165 -0.2279
18559TIP3    H277169   4.463   1.382   0.457 -0.2301  0.3378  0.2786
18560TIP3   OH277170   4.915   3.908   2.754 -0.6491  0.1856 -0.5291
18560TIP3    H177171   4.895   3.925   2.662  0.0109 -0.4722 -0.7976
18560TIP3    H277172   4.992   3.963   2.771  1.6439 -2.6464 -1.4650
18561TIP3   OH277173   4.331   1.465   2.517 -0.0574  0.6783  0.2208
18561TIP3    H177174   4.245   1.467   2.473 -0.2397 -0.8553  0.4819
18561TIP3    H277175   4.310   1.449   2.609  0.4653  1.3468  0.4599
18562TIP3   OH277176   6.019   4.960   4.352 -0.2813 -0.2179 -0.1602
18562TIP3    H177177   5.999   4.887   4.409 -1.5828 -0.6006 -1.0799
18562TIP3    H277178   5.967   4.944   4.273  1.0921  0.5455 -1.2553
18563TIP3   OH277179   4.575   5.264   1.247 -0.1324  0.5338  0.7871
18563TIP3    H177180   4.605   5.264   1.156  1.0156 -2.5146  1.1135
18563TIP3    H277181   4.627   5.332   1.290  0.5963  0.7441 -0.4122
18564TIP3   OH277182   3.987   1.258  11.644  0.2811  0.5864  0.8100
18564TIP3    H177183   3.960   1.176  11.687 -0.5969  1.5854  2.2197
18564TIP3    H277184   4.077   1.272  11.673 -0.8163  2.0668  3.6699
18565TIP3   OH277185   4.421   4.726  15.687 -0.2614  0.1949  0.2003
18565TIP3    H177186   4.414   4.699  15.595  1.0747  1.6372 -0.3465
18565TIP3    H277187   4.339   4.772  15.704 -0.4248  0.1087 -0.3293
18566TIP3   OH277188   4.716   2.010   3.955 -0.1975 -0.3897  0.1524
18566TIP3    H177189   4.731   1.984   3.864 -0.3738 -1.4271  0.4176
18566TIP3    H277190   4.804   2.029   3.989 -0.1780  0.5544 -0.3862
18567TIP3   OH277191   4.453   4.284   0.098 -0.0047  0.3244  0.0642
18567TIP3    H177192   4.454   4.194   0.067  1.8396  0.8840 -1.6081
18567TIP3    H277193   4.436   4.336   0.019 -2.9865  1.3715  1.2947
18568TIP3   OH277194   6.724   1.057  15.717  0.0519  0.4942 -0.0887
18568TIP3    H177195   6.708   1.064  15.623 -1.7272  1.5996  0.2579
18568TIP3    H277196   6.806   1.008  15.725 -0.8059 -1.3451 -2.1676
18569TIP3   OH277197   6.604   1.445   5.850 -0.2137 -0.1568 -0.2240
18569TIP3    H177198   6.660   1.493   5.910 -0.6258  2.0562 -1.5375
18569TIP3    H277199   6.612   1.492   5.767 -2.0981 -1.2540 -1.0723
18570TIP3   OH277200   6.808   4.829  14.674 -0.1774  0.4186 -0.2988
18570TIP3    H177201   6.889   4.793  14.709 -0.5907 -1.4398 -1.1967
18570TIP3    H277202   6.739   4.788  14.726 -0.6922 -0.8188 -1.9090
18571TIP3   OH277203   5.736   2.571   2.102  0.4549 -0.0590 -0.5447
18571TIP3    H177204   5.757   2.507   2.034  1.2968  1.0762 -1.3596
18571TIP3    H277205   5.674   2.630   2.060 -1.2665 -1.0108  0.5825
18572TIP3   OH277206   5.204   5.587   7.013  0.1321 -0.1553 -0.1972
18572TIP3    H177207   5.300   5.580   7.009  0.2675 -3.1285  4.4354
18572TIP3    H277208   5.173   5.526   6.946  1.4806 -0.1014 -0.8926
18573TIP3   OH277209   6.554   1.161  12.930  0.1175 -0.4385  0.5773
18573TIP3    H177210   6.552   1.250  12.964 -1.0603 -0.0150 -0.5462
18573TIP3    H277211   6.469   1.124  12.953 -0.2822 -0.4964 -0.9344
18574TIP3   OH277212   0.489   1.919  12.075 -0.0200 -0.1025 -0.0108
18574TIP3    H177213   0.467   1.841  12.125  0.6657  0.5795  1.4214
18574TIP3    H277214   0.571   1.950  12.115 -0.9976  2.0910  0.3501
18575TIP3   OH277215   3.124   3.113   0.296  0.2256  0.0015 -0.2143
18575TIP3    H177216   3.156   3.176   0.232  1.3338 -1.4577 -1.1347
18575TIP3    H277217   3.188   3.114   0.367 -0.5109  0.9366  0.4517
18576TIP3   OH277218   5.157   4.577   4.399 -0.0481 -0.2966  0.6231
18576TIP3    H177219   5.236   4.629   4.394  1.4943 -2.5320  1.1219
18576TIP3    H277220   5.177   4.497   4.350 -3.4842  0.8975 -3.0226
18577TIP3   OH277221   0.836   4.201  10.605  0.2638 -0.3625  0.1685
18577TIP3    H177222   0.750   4.161  10.593 -0.5206  1.3329 -0.0025
18577TIP3    H277223   0.898   4.133  10.579 -1.0370 -1.3786 -0.3249
18578TIP3   OH277224   1.709   1.705  13.502  0.2645 -0.1277 -0.7302
18578TIP3    H177225   1.659   1.696  13.422  0.4864 -1.2992 -0.7385
18578TIP3    H277226   1.799   1.686  13.477  0.2256 -1.2214 -0.0621
18579TIP3   OH277227   1.883   0.885   1.522  0.0516 -0.3501 -0.5222
18579TIP3    H177228   1.958   0.917   1.572 -0.5200  0.1986 -0.0199
18579TIP3    H277229   1.817   0.953   1.530 -1.4856 -1.9658  1.2194
18580TIP3   OH277230   3.519   3.124  14.719 -0.0248 -0.1366 -0.3922
18580TIP3    H177231   3.513   3.203  14.666  2.7676  1.0688  0.9819
18580TIP3    H277232   3.474   3.057  14.668 -1.9189  2.1812 -1.8464
18581TIP3   OH277233   4.005   2.463   0.512  0.1715  0.0696  0.0471
18581TIP3    H177234   3.981   2.384   0.464  0.0164  1.4991 -2.3460
18581TIP3    H277235   3.938   2.472   0.580 -1.2399 -0.5354 -1.2348
18582TIP3   OH277236   3.632   1.062  17.174 -0.3121 -0.1496  0.3366
18582TIP3    H177237   3.546   1.023  17.193 -0.3225 -0.2908  0.0048
18582TIP3    H277238   3.611   1.150  17.141 -0.2326  0.6180  2.2869
18583TIP3   OH277239   1.087   4.460  15.372  0.2824  0.0084  0.3687
18583TIP3    H177240   1.073   4.367  15.389  0.8617 -0.2153 -0.3586
18583TIP3    H277241   1.030   4.481  15.298 -0.3703  0.3998  0.9750
18584TIP3   OH277242   6.277   6.394  15.535  0.2987  0.4013  0.2330
18584TIP3    H177243   6.200   6.447  15.555  1.1565  0.8195  2.5075
18584TIP3    H277244   6.282   6.395  15.439 -1.5443  1.7516  0.1256
18585TIP3   OH277245   4.677   5.904  13.438 -0.8216  0.7306 -0.4084
18585TIP3    H177246   4.633   5.975  13.485 -1.1491 -0.3897  0.9874
18585TIP3    H277247   4.768   5.932  13.433 -1.0416  1.4906 -0.3458
18586TIP3   OH277248   5.107   5.098  13.960  0.3530  0.2898  0.1888
18586TIP3    H177249   5.052   5.157  13.909 -1.4136 -1.2022  0.3099
18586TIP3    H277250   5.168   5.061  13.896  0.5894  1.1942 -0.1240
18587TIP3   OH277251   1.262   5.859  16.312  0.2335 -0.0850  0.4867
18587TIP3    H177252   1.189   5.806  16.347 -0.0405 -0.2581 -0.3303
18587TIP3    H277253   1.340   5.822  16.353 -0.2369  0.7960  2.1951
18588TIP3   OH277254   4.288   2.927   5.795  0.1582 -0.7888 -0.1851
18588TIP3    H177255   4.211   2.871   5.809 -0.3509 -0.2492 -0.7842
18588TIP3    H277256   4.284   2.949   5.701  0.7363 -0.3166 -0.0973
18589TIP3   OH277257   2.433   5.245   2.530 -0.2861  0.1874  0.2673
18589TIP3    H177258   2.458   5.335   2.512 -1.4338  0.2935 -0.9272
18589TIP3    H277259   2.501   5.212   2.588  0.2921  1.7349  0.4934
18590TIP3   OH277260   0.205   1.259  11.277 -0.8842 -0.3155  0.4470
18590TIP3    H177261   0.162   1.337  11.311 -0.7131  0.0609 -0.1958
18590TIP3    H277262   0.290   1.289  11.246 -0.8748 -0.7262  0.0638
18591TIP3   OH277263   0.808   4.030   5.275 -0.1823  0.2266 -0.1272
18591TIP3    H177264   0.721   4.041   5.312 -0.5709 -0.0725 -0.9375
18591TIP3    H277265   0.823   4.109   5.224  0.0112  0.2666 -0.0099
18592TIP3   OH277266   1.333   4.688   5.835 -0.6084  0.6800 -0.0692
18592TIP3    H177267   1.382   4.697   5.916  0.1959 -0.4743 -0.4118
18592TIP3    H277268   1.262   4.627   5.857 -0.5240  0.5470 -0.1604
18593TIP3   OH277269   5.075   2.660  16.842  0.8946 -0.1364 -0.0739
18593TIP3    H177270   5.061   2.581  16.895 -0.2618 -0.4213 -0.7589
18593TIP3    H277271   5.149   2.704  16.882  0.3196 -0.5704  1.5140
18594TIP3   OH277272   3.816   3.263   1.958  0.1000 -0.4133 -0.1351
18594TIP3    H177273   3.787   3.302   1.875 -0.3398 -0.7131 -0.1224
18594TIP3    H277274   3.743   3.277   2.018  0.1246 -0.8498 -0.0006
18595TIP3   OH277275   5.347   1.698   4.381  0.6153 -0.5196  0.3917
18595TIP3    H177276   5.385   1.730   4.299  1.2339 -0.8407  0.5464
18595TIP3    H277277   5.329   1.777   4.432  0.5691 -0.3378  0.0958
18596TIP3   OH277278   3.804   5.957   1.524  0.3894 -0.2509 -0.8544
18596TIP3    H177279   3.884   5.965   1.577 -0.8384  1.5341  0.7838
18596TIP3    H277280   3.814   6.024   1.456 -0.0859  0.5707 -0.1272
18597TIP3   OH277281   4.554   3.316   0.070  0.1791 -0.3378 -0.1315
18597TIP3    H177282   4.629   3.318   0.012  0.1991  0.4943 -0.0879
18597TIP3    H277283   4.552   3.227   0.105  1.4554 -0.2010  0.2831
18598TIP3   OH277284   6.017   2.740   1.776 -0.0380 -0.0378 -0.2848
18598TIP3    H177285   6.014   2.754   1.681  1.8787  1.3330 -0.1811
18598TIP3    H277286   6.055   2.652   1.786 -0.0480 -0.1002 -0.7910
18599TIP3   OH277287   0.940   1.958  14.365  0.5164 -0.1201  0.0470
18599TIP3    H177288   0.899   2.045  14.366  0.8147  0.0326 -0.7104
18599TIP3    H277289   0.871   1.899  14.394  0.0413  0.2581 -0.2977
18600TIP3   OH277290   2.492   5.004   1.083 -0.0655  0.4275  0.0302
18600TIP3    H177291   2.500   5.050   0.999  0.8651 -0.4372 -0.3640
18600TIP3    H277292   2.414   5.042   1.124  0.3961  1.9939 -0.5137
18601TIP3   OH277293   6.673   0.581   5.851 -0.2604 -0.4899 -0.1258
18601TIP3    H177294   6.689   0.491   5.880  0.6874 -0.0017  0.8626
18601TIP3    H277295   6.581   0.597   5.874  0.2231 -0.4171  1.8332
18602TIP3   OH277296   5.944   5.819   5.285 -0.0989 -0.3821  0.3882
18602TIP3    H177297   5.926   5.800   5.193  0.5420 -2.2076  0.6097
18602TIP3    H277298   6.039   5.810   5.293 -0.0772  0.4079  1.0924
18603TIP3   OH277299   2.791   6.197   2.745 -0.5600 -0.2026  0.1640
18603TIP3    H177300   2.741   6.277   2.730 -0.5516  0.0465  1.4087
18603TIP3    H277301   2.879   6.227   2.768 -0.1083 -0.6148 -0.9941
18604TIP3   OH277302   3.969   1.918   2.559 -0.1168  0.3230  0.3625
18604TIP3    H177303   3.911   1.945   2.630 -0.2862  1.1433 -0.0835
18604TIP3    H277304   3.930   1.839   2.524 -1.1265  1.0399 -0.1348
18605TIP3   OH277305   5.129   6.425  16.389 -0.2213  0.0057  0.1325
18605TIP3    H177306   5.076   6.362  16.341 -0.7168 -0.0593  0.7665
18605TIP3    H277307   5.122   6.399  16.481  0.5327  0.2715  0.2730
18606TIP3   OH277308   2.263   3.085   4.145 -0.2489 -0.0389 -0.2932
18606TIP3    H177309   2.264   3.019   4.215 -0.6412 -0.2250 -0.4635
18606TIP3    H277310   2.275   3.034   4.064  0.9322  0.2429 -0.3111
18607TIP3   OH277311   4.279   6.039  14.584  0.0022 -0.1521  0.2710
18607TIP3    H177312   4.243   6.017  14.669 -1.6687 -1.8603 -0.8410
18607TIP3    H277313   4.344   5.971  14.566  0.9834  0.6949  0.5450
18608TIP3   OH277314   1.354   2.168  11.496 -0.1580 -0.2621  0.8041
18608TIP3    H177315   1.297   2.092  11.489  0.1267 -0.3670 -0.6062
18608TIP3    H277316   1.298   2.243  11.476 -0.1199 -0.2387  0.7819
18609TIP3   OH277317   2.826   3.628  15.510 -0.6743  0.6355  0.7380
18609TIP3    H177318   2.900   3.610  15.453 -0.9325  0.9477  0.2973
18609TIP3    H277319   2.836   3.567  15.583 -1.8529 -1.7125 -0.9859
18610TIP3   OH277320   2.495   6.503  14.467  0.3259 -0.5530 -0.8310
18610TIP3    H177321   2.431   6.571  14.487 -0.4363 -1.4978  0.0383
18610TIP3    H277322   2.538   6.532  14.387 -1.1201  0.1633 -1.3606
18611TIP3   OH277323   5.949   5.070   0.815  0.2735  0.6286 -0.5574
18611TIP3    H177324   6.015   5.052   0.748  0.4599  1.4515 -0.5952
18611TIP3    H277325   5.968   5.159   0.844 -0.5656  0.7167 -0.2717
18612TIP3   OH277326   1.561   2.329  15.451  0.2585 -0.5538  0.0410
18612TIP3    H177327   1.629   2.301  15.390 -0.3280  0.0758 -0.9277
18612TIP3    H277328   1.575   2.423  15.461 -0.6391 -0.3584 -0.4158
18613TIP3   OH277329   0.169   1.613  11.564  0.5687 -0.0460  0.1027
18613TIP3    H177330   0.115   1.644  11.636  1.0719 -0.6330  0.7314
18613TIP3    H277331   0.223   1.544  11.602  1.1632 -0.0414 -0.7226
18614TIP3   OH277332   6.811   3.971  12.441 -0.2531 -0.4406 -0.3752
18614TIP3    H177333   6.827   4.003  12.352  1.4692  0.3898  0.2279
18614TIP3    H277334   6.716   3.978  12.452 -0.4731 -0.4392 -2.0936
18615TIP3   OH277335   3.565   0.272  13.989 -0.6603  0.3809  0.1253
18615TIP3    H177336   3.470   0.283  13.990 -0.6072  0.8905  1.2702
18615TIP3    H277337   3.599   0.356  14.023  0.0777 -0.6942  2.1585
18616TIP3   OH277338   4.243   0.426   5.249 -0.3922  0.6472 -0.1146
18616TIP3    H177339   4.290   0.508   5.264 -0.0660  0.2306  1.2011
18616TIP3    H277340   4.305   0.358   5.275 -1.1752  0.0295  0.1404
18617TIP3   OH277341   6.523   2.849  13.019 -0.0570 -0.5010 -0.3201
18617TIP3    H177342   6.483   2.804  13.093  0.8481 -3.0910 -1.3444
18617TIP3    H277343   6.601   2.891  13.056 -1.9513  1.9765  1.0431
18618TIP3   OH277344   5.226   2.115  10.799  0.0438 -0.1709  0.2017
18618TIP3    H177345   5.294   2.047  10.797 -0.0466 -0.2908  0.9665
18618TIP3    H277346   5.229   2.149  10.889  0.8685  1.6349 -0.4676
18619TIP3   OH277347   4.685   0.807  11.864  0.2623  0.2416  0.6658
18619TIP3    H177348   4.709   0.738  11.802 -1.2350  0.8745 -0.6387
18619TIP3    H277349   4.622   0.766  11.922  0.8026 -0.0159  1.0813
18620TIP3   OH277350   6.672   5.034   1.091  0.3607 -0.5853  0.2756
18620TIP3    H177351   6.708   5.066   1.174 -0.5024 -0.9179  0.7808
18620TIP3    H277352   6.628   4.952   1.113 -1.6075  0.3279 -0.1192
18621TIP3   OH277353   1.037   6.562  14.769 -0.5950  0.0490 -0.3073
18621TIP3    H177354   1.056   6.625  14.698 -0.1707  0.8415  0.4989
18621TIP3    H277355   1.086   6.484  14.745 -0.8371  0.1500 -1.1419
18622TIP3   OH277356   1.458   5.205  16.224 -0.3201 -0.3661  0.6598
18622TIP3    H177357   1.370   5.189  16.190  0.3021 -2.5470  0.0207
18622TIP3    H277358   1.517   5.173  16.155  0.9900  1.3399  0.9505
18623TIP3   OH277359   1.572   2.173   6.201  0.0158  0.2956  0.3153
18623TIP3    H177360   1.531   2.101   6.249 -1.3578  1.3505  0.7352
18623TIP3    H277361   1.545   2.252   6.248  1.0157  1.1352 -0.5007
18624TIP3   OH277362   2.464   2.669  15.263 -0.1313  0.1803  0.3578
18624TIP3    H177363   2.472   2.575  15.245  0.3629  0.3194 -0.1790
18624TIP3    H277364   2.425   2.705  15.184 -1.5658  0.2354  1.0897
18625TIP3   OH277365   2.264   0.895   2.790 -0.5932 -0.2911  0.2551
18625TIP3    H177366   2.318   0.876   2.714  0.6200  1.1250  0.7293
18625TIP3    H277367   2.234   0.809   2.820  1.3782 -1.1237 -0.0483
18626TIP3   OH277368   6.229   2.139   1.497  0.7167  0.1709 -0.8106
18626TIP3    H177369   6.296   2.170   1.436  2.7132 -0.4606  1.0125
18626TIP3    H277370   6.225   2.207   1.565  1.3748 -1.0256  0.4455
18627TIP3   OH277371   5.267   4.856   6.236 -0.3837  0.2964 -0.1741
18627TIP3    H177372   5.250   4.933   6.290  1.1120  1.1548 -0.9279
18627TIP3    H277373   5.352   4.824   6.264 -1.2437 -1.4705  0.5565
18628TIP3   OH277374   2.681   5.406  11.681 -0.5078  0.5681 -0.0815
18628TIP3    H177375   2.721   5.408  11.594 -2.1415  0.4813 -0.8613
18628TIP3    H277376   2.587   5.397  11.663 -1.0268  2.3769  1.6731
18629TIP3   OH277377   0.302   5.381  15.438  0.0614 -0.2123 -0.3901
18629TIP3    H177378   0.278   5.392  15.346 -0.2799 -0.2090 -0.3030
18629TIP3    H277379   0.218   5.365  15.483  0.1232  0.6530  0.0485
18630TIP3   OH277380   0.956   5.076  13.430 -0.5985  0.0022 -0.0810
18630TIP3    H177381   0.862   5.094  13.433 -0.7602 -0.6108 -1.1252
18630TIP3    H277382   0.964   5.000  13.371  0.5753  0.2637 -0.2705
18631TIP3   OH277383   1.824   4.472   3.599 -0.0374 -0.0763 -0.3519
18631TIP3    H177384   1.916   4.466   3.576 -0.0874  0.0273 -0.5800
18631TIP3    H277385   1.810   4.564   3.621 -0.2450  0.0488 -0.9989
18632TIP3   OH277386   1.295   0.043   4.454 -0.3324 -0.5005 -0.0983
18632TIP3    H177387   1.369   0.010   4.403  0.1871  0.3318  0.0958
18632TIP3    H277388   1.218   0.007   4.412  0.0811  0.3073 -1.5656
18633TIP3   OH277389   1.923   0.471  15.251  0.4555  0.2068 -0.5398
18633TIP3    H177390   1.943   0.561  15.225  0.8635  0.2115 -0.2050
18633TIP3    H277391   1.990   0.418  15.207  0.2247  0.0687 -0.7243
18634TIP3   OH277392   3.500   5.017  11.096  0.8235  0.0333  0.7629
18634TIP3    H177393   3.441   5.068  11.039  2.2250  1.2397  0.3457
18634TIP3    H277394   3.574   4.996  11.039  1.1489 -0.7931  1.5001
18635TIP3   OH277395   5.410   6.084   0.277 -0.4307 -0.2511 -0.3830
18635TIP3    H177396   5.466   6.136   0.218 -1.2398 -0.9326 -1.7719
18635TIP3    H277397   5.395   6.002   0.230 -1.6130 -0.5507  0.4932
18636TIP3   OH277398   5.941   2.423   1.514 -0.3896  0.4948  0.6186
18636TIP3    H177399   6.033   2.449   1.504  0.4656 -3.1136 -1.8299
18636TIP3    H277400   5.942   2.356   1.582 -1.3840  1.1602  1.3026
18637TIP3   OH277401   1.821   3.919   0.114 -0.2169  0.2957 -0.4293
18637TIP3    H177402   1.874   3.840   0.128 -0.1336  0.2806 -0.8484
18637TIP3    H277403   1.863   3.965   0.042 -0.5373  0.4876 -0.4973
18638TIP3   OH277404   0.673   1.292  15.835 -0.5958  0.1644  0.0388
18638TIP3    H177405   0.664   1.205  15.796  0.2817  0.4471 -0.8186
18638TIP3    H277406   0.604   1.344  15.794  0.4642  0.5172 -1.3170
18639TIP3   OH277407   5.656   5.194  11.312  0.3374  0.3134  0.8246
18639TIP3    H177408   5.704   5.114  11.293 -2.4136 -1.2546  0.1817
18639TIP3    H277409   5.671   5.211  11.405  2.6332  0.2656  0.4942
18640TIP3   OH277410   4.630   6.446   4.853 -0.3450 -0.3215 -0.3585
18640TIP3    H177411   4.672   6.391   4.787  0.9534 -2.6714  2.3745
18640TIP3    H277412   4.702   6.479   4.907 -1.4635  0.8754  0.4474
18641TIP3   OH277413   3.824   2.658  14.859  0.1325 -0.6105 -0.7174
18641TIP3    H177414   3.905   2.613  14.886 -0.7373 -1.7069  0.1595
18641TIP3    H277415   3.820   2.645  14.764  1.3786  0.1212 -0.8792
18642TIP3   OH277416   2.286   0.916   3.663 -0.4462 -0.4098 -0.5027
18642TIP3    H177417   2.359   0.966   3.701 -0.6758 -0.7751  0.4291
18642TIP3    H277418   2.315   0.825   3.666 -0.6540 -0.4877 -0.7945
18643TIP3   OH277419   4.692   1.631  11.948  0.0410  0.0769 -0.0444
18643TIP3    H177420   4.678   1.664  12.036  0.0312 -0.2108  0.0598
18643TIP3    H277421   4.754   1.693  11.909  0.1899  0.0950  0.2243
18644TIP3   OH277422   2.904   1.087  13.088 -0.0964 -0.0364 -0.6143
18644TIP3    H177423   2.818   1.046  13.082  0.2605 -1.4469  2.5197
18644TIP3    H277424   2.906   1.126  13.176  2.4385 -0.0153 -0.6301
18645TIP3   OH277425   5.869   6.140  12.682  0.4949 -0.6040 -0.4295
18645TIP3    H177426   5.957   6.117  12.651  0.1915  0.4868 -2.2075
18645TIP3    H277427   5.864   6.235  12.668 -1.3801 -0.8427 -1.4879
18646TIP3   OH277428   0.861   3.174   0.103 -0.1198 -0.3239  0.3682
18646TIP3    H177429   0.808   3.254   0.109 -0.5542 -0.5217 -0.8221
18646TIP3    H277430   0.797   3.104   0.096  0.2857 -0.6953  0.3783
18647TIP3   OH277431   4.265   0.889  10.869 -0.3812 -0.2958  0.4408
18647TIP3    H177432   4.293   0.853  10.953  1.0466  0.4054  0.2801
18647TIP3    H277433   4.257   0.983  10.884  1.9333  0.1162 -0.7333
18648TIP3   OH277434   0.555   5.603  12.073 -0.3917 -0.1093 -0.3360
18648TIP3    H177435   0.498   5.603  11.996 -1.0034 -2.5400  0.0578
18648TIP3    H277436   0.497   5.625  12.146  0.3446  2.9838 -0.6189
18649TIP3   OH277437   2.058   1.775   5.407  0.4187 -0.4271  0.0606
18649TIP3    H177438   2.046   1.797   5.314  0.9274 -0.8374 -0.1104
18649TIP3    H277439   2.144   1.812   5.428  1.1501 -1.9839 -0.1533
18650TIP3   OH277440   2.394   6.179   5.959 -0.4380 -0.3425  0.2096
18650TIP3    H177441   2.313   6.207   6.002  0.1700 -0.4785  1.4688
18650TIP3    H277442   2.462   6.195   6.025  0.6523  0.4409 -1.1008
18651TIP3   OH277443   4.451   5.946  12.019 -0.0245  0.0945  0.1693
18651TIP3    H177444   4.423   5.899  11.940  1.2259 -0.2052 -0.1082
18651TIP3    H277445   4.395   6.023  12.022 -0.2801 -0.0433 -0.8570
18652TIP3   OH277446   1.544   0.054   3.750  0.3148 -0.1842  0.6338
18652TIP3    H177447   1.574   0.144   3.760 -0.1978  0.1430 -0.7617
18652TIP3    H277448   1.474   0.058   3.686  2.2125 -1.9543 -1.6462
18653TIP3   OH277449   4.246   1.390  12.537 -0.4811  0.0827 -0.0341
18653TIP3    H177450   4.262   1.297  12.520  1.3067  0.3265  0.1550
18653TIP3    H277451   4.330   1.432  12.520 -1.0911  1.5807  0.5362
18654TIP3   OH277452   2.613   3.508  12.461  0.0527  0.3821 -0.3753
18654TIP3    H177453   2.701   3.472  12.463  0.5099  1.4286 -1.2665
18654TIP3    H277454   2.556   3.433  12.479  1.0988 -0.3474 -0.0559
18655TIP3   OH277455   0.289   2.691  14.838 -0.3327 -0.3486  0.3077
18655TIP3    H177456   0.207   2.648  14.862 -0.1665  0.0717  1.6222
18655TIP3    H277457   0.317   2.737  14.917 -0.3279  1.9279 -0.9775
18656TIP3   OH277458   3.688   5.199  17.265  0.0384 -0.0312  0.5153
18656TIP3    H177459   3.692   5.184  17.359  2.4455  0.9480  0.6053
18656TIP3    H277460   3.634   5.277  17.255 -1.4292 -0.9659  0.9512
18657TIP3   OH277461   4.566   3.293   1.819 -0.1564 -0.2641 -1.0025
18657TIP3    H177462   4.617   3.270   1.741 -0.8653  0.8728 -1.8193
18657TIP3    H277463   4.497   3.350   1.786  0.5673  1.6560  0.7132
18658TIP3   OH277464   3.459   5.447  12.260 -0.0671 -0.3394  0.6575
18658TIP3    H177465   3.474   5.358  12.227  0.3162  0.3221 -0.9872
18658TIP3    H277466   3.385   5.437  12.321 -2.3454 -1.2490 -2.1130
18659TIP3   OH277467   1.881   2.627   1.808 -0.0713 -0.0634  0.0996
18659TIP3    H177468   1.958   2.659   1.760  2.4511  0.0211  4.0248
18659TIP3    H277469   1.893   2.532   1.812 -0.3689 -0.0835  0.4926
18660TIP3   OH277470   0.982   3.239   0.588  0.0459  0.5638  0.1968
18660TIP3    H177471   1.021   3.178   0.651 -0.5374  1.0266  1.0020
18660TIP3    H277472   0.967   3.185   0.510 -0.5539 -0.3627  0.9351
18661TIP3   OH277473   3.463   2.502  13.511  0.6836  0.6608 -0.4566
18661TIP3    H177474   3.480   2.459  13.426  0.1315 -0.3380 -0.0759
18661TIP3    H277475   3.495   2.591  13.499 -0.5105  0.8997 -2.1402
18662TIP3   OH277476   1.890   4.424  10.458 -0.2671 -0.2342 -0.0035
18662TIP3    H177477   1.854   4.354  10.403  0.9402 -1.1261  0.3297
18662TIP3    H277478   1.960   4.382  10.508  1.4981  1.5419 -0.9125
18663TIP3   OH277479   5.267   4.184   5.179 -0.7137  0.0133 -0.2804
18663TIP3    H177480   5.334   4.246   5.207 -0.9723  0.8867 -1.5356
18663TIP3    H277481   5.273   4.184   5.083 -1.6398 -0.8554 -0.3489
18664TIP3   OH277482   4.206   6.420  14.288 -0.4733 -0.5162 -0.3752
18664TIP3    H177483   4.204   6.370  14.206  0.1884  1.0698 -1.3946
18664TIP3    H277484   4.284   6.476  14.279 -0.6492 -0.0116  1.1510
18665TIP3   OH277485   2.129   5.831  13.511  0.2032 -0.3813 -0.9861
18665TIP3    H177486   2.183   5.838  13.433 -0.6991 -0.4939 -1.6235
18665TIP3    H277487   2.056   5.775  13.485 -1.4885  1.6846 -0.8225
18666TIP3   OH277488   5.874   0.110   3.908 -0.1824 -0.4725 -0.6416
18666TIP3    H177489   5.824   0.106   3.826  0.5246 -1.9486 -1.0192
18666TIP3    H277490   5.836   0.041   3.963  1.7657 -1.9849 -1.1346
18667TIP3   OH277491   0.094   1.219   6.087 -0.0536 -0.1915  0.7705
18667TIP3    H177492   0.178   1.236   6.045 -0.8659  0.2780 -0.6686
18667TIP3    H277493   0.106   1.135   6.131  1.1218 -0.1914  0.4592
18668TIP3   OH277494   5.019   5.107   1.838  0.0911  0.5781  0.0173
18668TIP3    H177495   4.988   5.042   1.774 -2.6194  1.0081  0.8310
18668TIP3    H277496   5.114   5.103   1.832 -0.0075 -3.3136 -0.1291
18669TIP3   OH277497   1.657   3.883  14.924  0.2803 -0.1270 -0.3359
18669TIP3    H177498   1.716   3.808  14.919 -0.2208 -0.7164  2.2451
18669TIP3    H277499   1.599   3.864  14.997 -0.4889  2.3369 -0.2534
18670TIP3   OH277500   4.738   6.081   6.757  0.0822 -0.1997 -0.1443
18670TIP3    H177501   4.682   6.109   6.831 -0.7031 -0.5265 -0.6078
18670TIP3    H277502   4.719   6.145   6.688 -0.9021 -1.2194 -0.8381
18671TIP3   OH277503   3.247   3.628   4.676  0.2592  0.2798 -0.4361
18671TIP3    H177504   3.263   3.721   4.688  0.2225  0.1944  0.3081
18671TIP3    H277505   3.287   3.586   4.752  0.8777 -0.3764 -1.1177
18672TIP3   OH277506   3.594   2.809   3.650 -0.2640  0.0050 -0.5207
18672TIP3    H177507   3.593   2.815   3.746  0.9019  0.7347 -0.5380
18672TIP3    H277508   3.679   2.845   3.625  1.2197 -3.8947 -1.5779
18673TIP3   OH277509   6.731   2.546   1.163 -0.2512  1.0573  0.0240
18673TIP3    H177510   6.743   2.528   1.070 -1.6330  1.0343 -0.1686
18673TIP3    H277511   6.816   2.577   1.193  0.7902 -1.0069 -0.7612
18674TIP3   OH277512   2.233   0.390   2.693  0.2752 -0.3310 -0.3104
18674TIP3    H177513   2.211   0.435   2.611  0.5581  0.5398  0.0855
18674TIP3    H277514   2.288   0.316   2.666  2.8620  1.6468 -0.6634
18675TIP3   OH277515   4.529   0.465   4.318  0.0252  0.2613  0.1086
18675TIP3    H177516   4.613   0.450   4.361  1.4056  4.0476 -1.0961
18675TIP3    H277517   4.512   0.558   4.331 -3.4319 -0.2064 -0.6745
18676TIP3   OH277518   2.273   0.378  17.195 -0.3877  0.2351  0.6188
18676TIP3    H177519   2.222   0.373  17.276  0.1521 -1.4201  0.8582
18676TIP3    H277520   2.224   0.324  17.133 -0.3137  0.7720  0.0818
18677TIP3   OH277521   5.176   1.406   5.926 -0.0280 -0.0669 -0.0305
18677TIP3    H177522   5.199   1.431   5.837  1.5866  0.7802  0.6015
18677TIP3    H277523   5.238   1.454   5.981 -0.4666 -1.2271  1.5051
18678TIP3   OH277524   3.636   0.301  11.497 -0.2320  0.4567 -0.2836
18678TIP3    H177525   3.618   0.394  11.501  1.4617  0.7708  0.7361
18678TIP3    H277526   3.714   0.294  11.441 -1.0632 -0.4638 -1.3576
18679TIP3   OH277527   0.092   3.828   4.420 -0.3884 -0.0252 -0.4026
18679TIP3    H177528   0.009   3.783   4.400  0.3749 -1.6981  0.1330
18679TIP3    H277529   0.084   3.855   4.511 -0.6175  0.4528 -0.5596
18680TIP3   OH277530   3.671   4.301  17.155  0.5550 -0.2022 -0.4422
18680TIP3    H177531   3.675   4.217  17.199  0.2206  0.6090  1.1881
18680TIP3    H277532   3.716   4.362  17.214  2.2048  0.4828 -2.3141
18681TIP3   OH277533   4.288   3.004   5.254  0.3801 -0.2146 -0.1185
18681TIP3    H177534   4.245   2.919   5.259 -2.9316  1.4004  0.3477
18681TIP3    H277535   4.275   3.043   5.341  0.7736  1.2567 -0.6954
18682TIP3   OH277536   6.813   3.410   3.479  0.0498  0.0211  0.0443
18682TIP3    H177537   6.815   3.496   3.523 -1.0579 -0.0206  0.1783
18682TIP3    H277538   6.793   3.348   3.549 -0.3501 -0.2108 -0.2813
18683TIP3   OH277539   1.798   0.812  10.996 -0.4468  0.0409 -0.1928
18683TIP3    H177540   1.812   0.856  10.912  0.0114 -2.0231 -1.2277
18683TIP3    H277541   1.710   0.839  11.023 -0.2980  1.3096 -0.9729
18684TIP3   OH277542   5.565   0.065  11.984 -0.1532 -0.2990 -0.3133
18684TIP3    H177543   5.507   0.002  11.942  0.5060 -1.2417  0.1792
18684TIP3    H277544   5.539   0.063  12.077 -0.5351  0.5959 -0.3996
18685TIP3   OH277545   4.848   1.251   4.417  0.0776 -0.4583 -0.0835
18685TIP3    H177546   4.780   1.216   4.475 -0.2202 -1.4941 -1.0383
18685TIP3    H277547   4.885   1.325   4.465 -1.9098  0.3026  0.3264
18686TIP3   OH277548   3.863   0.830   4.041 -0.1290 -0.4779  0.2287
18686TIP3    H177549   3.883   0.918   4.010 -0.1027 -0.4900  0.2116
18686TIP3    H277550   3.903   0.824   4.127 -2.9938  0.7055  1.7166
18687TIP3   OH277551   3.722   4.884   2.564  0.1253  0.1167  1.0602
18687TIP3    H177552   3.693   4.912   2.650 -0.5585 -0.4826  1.0241
18687TIP3    H277553   3.764   4.799   2.578  0.7787  0.4117  0.9284
18688TIP3   OH277554   5.357   5.595   2.363 -0.1807  0.3232  0.0010
18688TIP3    H177555   5.355   5.676   2.313 -2.3439 -0.0014 -0.5011
18688TIP3    H277556   5.415   5.537   2.314  2.3283  1.9522  1.0034
18689TIP3   OH277557   2.490   0.007   1.332 -0.1747  0.2700  0.2138
18689TIP3    H177558   2.524   0.089   1.294  0.1142 -0.6065 -1.4468
18689TIP3    H277559   2.399   0.026   1.353 -0.5901  0.5127 -1.7395
18690TIP3   OH277560   4.671   4.934  15.435 -0.0942 -0.2021 -0.0349
18690TIP3    H177561   4.736   4.940  15.365  0.1855 -1.2645  0.1259
18690TIP3    H277562   4.684   5.012  15.488  1.6302 -0.8523  0.5022
18691TIP3   OH277563   1.757   5.002  11.803  0.3727  0.6950 -0.2555
18691TIP3    H177564   1.693   4.965  11.864  1.1899  0.0345  0.2127
18691TIP3    H277565   1.776   5.089  11.838 -0.1283  0.8192 -0.2940
18692TIP3   OH277566   0.578   6.501  12.224  0.1234 -0.4368  0.0068
18692TIP3    H177567   0.604   6.519  12.133  1.0855 -1.4569  0.0794
18692TIP3    H277568   0.581   6.406  12.232 -1.5734 -0.4408  0.6419
18693TIP3   OH277569   3.182   1.384   0.441 -0.4416  0.0851 -0.4452
18693TIP3    H177570   3.223   1.469   0.423  0.3817 -0.4418 -1.0591
18693TIP3    H277571   3.254   1.327   0.466 -1.2595  0.1648  2.2652
18694TIP3   OH277572   0.105   4.122   0.169  0.1947 -0.0381  0.3986
18694TIP3    H177573   0.185   4.110   0.220  1.1413 -1.7741 -1.4744
18694TIP3    H277574   0.063   4.036   0.170 -0.5581  0.3183 -0.4781
18695TIP3   OH277575   0.118   0.595  11.157 -0.8054 -0.4784  0.9306
18695TIP3    H177576   0.186   0.532  11.133 -0.6034  0.1836 -0.2886
18695TIP3    H277577   0.057   0.594  11.083  0.3283  2.2973 -0.1168
18696TIP3   OH277578   0.108   4.900   5.116  0.4863 -0.5258  0.2472
18696TIP3    H177579   0.129   4.937   5.201 -0.9536  1.4610 -0.2229
18696TIP3    H277580   0.193   4.876   5.078  1.5715  2.9902  0.2979
18697TIP3   OH277581   1.974   0.424   5.376 -0.5906  0.1293  0.3915
18697TIP3    H177582   2.033   0.418   5.301 -0.9096  1.0282  0.0531
18697TIP3    H277583   1.977   0.517   5.401  0.4363 -0.3962  2.2491
18698TIP3   OH277584   2.903   1.883   3.252  0.8707 -0.5908  0.2082
18698TIP3    H177585   2.869   1.829   3.323 -2.0520  1.5373  0.5148
18698TIP3    H277586   2.859   1.851   3.174 -0.1033  0.6061  0.2385
18699TIP3   OH277587   6.653   3.863  13.395  0.0887 -0.2099  0.2471
18699TIP3    H177588   6.612   3.938  13.353  0.8326  0.4931  0.7673
18699TIP3    H277589   6.589   3.792  13.384 -1.3600  0.9123  1.2222
18700TIP3   OH277590   4.584   5.385   5.747 -0.0576 -0.7872  0.5956
18700TIP3    H177591   4.591   5.443   5.822  0.9408 -0.7874  0.5165
18700TIP3    H277592   4.665   5.401   5.697 -2.8256  2.8077 -3.0812
18701TIP3   OH277593   3.678   2.440  14.269  0.0939 -0.1831 -0.1850
18701TIP3    H177594   3.711   2.529  14.253 -0.6558 -0.0290 -0.8969
18701TIP3    H277595   3.731   2.385  14.211  0.2825 -0.1508 -0.0443
18702TIP3   OH277596   1.172   4.985   5.430 -0.1355  0.8613 -0.0284
18702TIP3    H177597   1.085   4.985   5.470 -0.9332 -0.3461 -1.7328
18702TIP3    H277598   1.229   4.949   5.498 -1.1607  0.5001  0.6519
18703TIP3   OH277599   6.384   1.955   4.951  0.0478  0.0596 -0.1764
18703TIP3    H177600   6.435   1.995   5.022 -0.4983 -0.9372  0.7932
18703TIP3    H277601   6.420   1.994   4.871  1.8027 -0.0522  0.5300
18704TIP3   OH277602   4.575   3.270   5.553 -0.4520 -0.3680 -0.1048
18704TIP3    H177603   4.661   3.300   5.582 -0.1616  1.4975 -2.7404
18704TIP3    H277604   4.594   3.212   5.479 -1.4515 -0.3976 -0.3475
18705TIP3   OH277605   6.118   3.657   5.743 -0.3896  0.2006 -0.2384
18705TIP3    H177606   6.085   3.612   5.821 -2.5018  0.6344 -0.8495
18705TIP3    H277607   6.179   3.595   5.704  0.1099 -0.3334  1.3241
18706TIP3   OH277608   3.143   0.491  16.493  0.3295 -0.4755  0.0239
18706TIP3    H177609   3.162   0.425  16.560 -0.5047 -0.6058  0.1395
18706TIP3    H277610   3.197   0.467  16.418 -0.0938 -1.3895  0.0111
18707TIP3   OH277611   6.317   5.259  15.264  0.5891  0.1173 -0.4273
18707TIP3    H177612   6.374   5.283  15.336  0.2515 -0.5986  0.0819
18707TIP3    H277613   6.351   5.175  15.233  1.8056  1.2589 -2.2451
18708TIP3   OH277614   6.742   6.222   2.432 -0.1241  0.5595 -0.0410
18708TIP3    H177615   6.803   6.286   2.468 -0.2240  0.7562 -0.2126
18708TIP3    H277616   6.657   6.266   2.436 -0.0590  0.7916 -0.9948
18709TIP3   OH277617   3.871   5.696   0.067 -0.1549 -0.2770 -0.7305
18709TIP3    H177618   3.839   5.686  -0.022  1.3904 -3.2915 -1.0004
18709TIP3    H277619   3.859   5.610   0.107  0.8818  0.5225  1.3845
18710TIP3   OH277620   1.299   5.978  12.675 -0.6796  0.0650 -0.3027
18710TIP3    H177621   1.226   6.038  12.659 -1.5469 -1.1990 -1.2563
18710TIP3    H277622   1.343   6.014  12.752 -3.8700 -0.5249  1.9449
18711TIP3   OH277623   1.862   6.625   6.143  0.5142  0.1358  0.1217
18711TIP3    H177624   1.876   6.592   6.232  2.8599  1.0873  0.1539
18711TIP3    H277625   1.933   6.688   6.129  0.4197 -0.2816 -2.5677
18712TIP3   OH277626   1.738   0.161  11.415  0.6847 -0.1428 -0.1783
18712TIP3    H177627   1.723   0.212  11.335  0.0326 -0.9181 -0.5568
18712TIP3    H277628   1.750   0.227  11.484  1.8376  0.5387 -1.0103
18713TIP3   OH277629   5.325   2.123  13.069 -0.2028 -0.3228 -0.8434
18713TIP3    H177630   5.416   2.125  13.098  0.0301 -0.7892 -1.5351
18713TIP3    H277631   5.329   2.140  12.975 -0.8233 -0.4642 -0.8975
18714TIP3   OH277632   3.387   2.909  16.743  0.6457 -0.1669 -0.0011
18714TIP3    H177633   3.452   2.838  16.745  0.3746 -0.3804  2.2351
18714TIP3    H277634   3.308   2.870  16.782 -0.2974  0.6062 -1.1337
18715TIP3   OH277635   3.781   6.338  11.334 -0.2657  0.4602 -0.2975
18715TIP3    H177636   3.829   6.269  11.288 -0.1754  0.8098 -0.7366
18715TIP3    H277637   3.848   6.397  11.368 -0.3343  0.2047  0.2792
18716TIP3   OH277638   5.088   5.263   4.442 -1.1744 -0.2912 -0.5060
18716TIP3    H177639   5.059   5.179   4.406 -0.5912 -1.2461  1.1734
18716TIP3    H277640   5.029   5.327   4.403 -1.2794 -1.4106 -2.2441
18717TIP3   OH277641   5.205   0.077   3.917 -0.0173  0.4705  0.1874
18717TIP3    H177642   5.228   0.017   3.988 -1.5534 -1.2835 -0.7557
18717TIP3    H277643   5.268   0.058   3.848  1.5633  2.2703  1.0571
18718TIP3   OH277644   2.465   4.849  11.218  0.3188  0.0064  0.3039
18718TIP3    H177645   2.387   4.815  11.262  1.1798 -1.6874  0.5531
18718TIP3    H277646   2.467   4.802  11.134  1.7310 -0.8734  0.8103
18719TIP3   OH277647   4.971   1.083  16.423 -0.2788  0.2018 -0.2597
18719TIP3    H177648   5.037   1.017  16.403  1.0204  1.7982 -1.3645
18719TIP3    H277649   5.013   1.139  16.489 -1.3377  0.0002  0.6039
18720TIP3   OH277650   1.496   2.857  11.438  0.0802  0.6884  0.6258
18720TIP3    H177651   1.556   2.812  11.379 -0.4132 -0.3883  0.9281
18720TIP3    H277652   1.522   2.828  11.526 -0.6894  0.4247  0.7727
18721TIP3   OH277653   1.209   2.039   3.886 -0.7162 -0.2208  0.8564
18721TIP3    H177654   1.258   2.119   3.871  1.1103 -1.5566 -0.4219
18721TIP3    H277655   1.174   2.015   3.801 -0.5519 -1.2268  1.0595
18722TIP3   OH277656   4.645   3.638  13.432 -0.3365  0.1941  0.2233
18722TIP3    H177657   4.683   3.714  13.389  0.5425 -0.0952  0.4711
18722TIP3    H277658   4.639   3.572  13.364 -1.0523  0.4652  0.0214
18723TIP3   OH277659   3.483   1.827   1.145 -0.0827 -0.2676  0.0777
18723TIP3    H177660   3.448   1.739   1.131 -0.9916  0.0939  0.0474
18723TIP3    H277661   3.499   1.860   1.056  0.2547 -0.3959  0.0889
18724TIP3   OH277662   1.509   6.390  11.446  0.0243 -0.3570  0.2230
18724TIP3    H177663   1.604   6.402  11.454  0.1420 -0.3691 -0.9370
18724TIP3    H277664   1.483   6.456  11.382 -0.5231 -1.2862 -0.5255
18725TIP3   OH277665   0.874   0.034  14.997  0.0103  0.3708 -0.0058
18725TIP3    H177666   0.941   0.099  14.972  2.1052 -1.8381 -0.3308
18725TIP3    H277667   0.848  -0.006  14.914 -2.3036  1.7075  0.0393
18726TIP3   OH277668   6.404   3.458  13.181  0.6113 -0.0495  0.4844
18726TIP3    H177669   6.328   3.470  13.239  1.0556 -1.1346  1.3063
18726TIP3    H277670   6.366   3.433  13.097  0.0199  0.1140  0.6982
18727TIP3   OH277671   2.620   6.251  14.123  0.5151 -0.4616  0.2703
18727TIP3    H177672   2.713   6.265  14.108  0.2941 -0.8295 -1.6041
18727TIP3    H277673   2.576   6.318  14.069 -0.3078 -0.9266  0.3463
18728TIP3   OH277674   0.318   6.589  12.937  0.6389 -0.1984 -1.0976
18728TIP3    H177675   0.347   6.578  12.847 -0.7690  0.2988 -1.6151
18728TIP3    H277676   0.395   6.623  12.983  0.9310  0.9486 -2.4075
18729TIP3   OH277677   3.889   4.069  14.597  0.0364  0.2698 -0.2904
18729TIP3    H177678   3.849   4.154  14.618  0.0745 -0.1475  1.4894
18729TIP3    H277679   3.825   4.027  14.539 -0.2587  1.2462 -0.7041
18730TIP3   OH277680   6.011   4.424  12.893  0.1481  0.1954 -0.5212
18730TIP3    H177681   6.085   4.366  12.873  0.0209  0.4441 -1.7365
18730TIP3    H277682   6.018   4.439  12.987  1.7916  0.3880 -0.6566
18731TIP3   OH277683   3.002   4.762   0.585  0.3978  0.7361 -0.6189
18731TIP3    H177684   3.029   4.680   0.627  1.6372  2.5002  2.2350
18731TIP3    H277685   2.916   4.780   0.622 -1.1300 -0.6051 -3.3467
18732TIP3   OH277686   6.479   6.035  14.696 -0.2346 -0.1540  0.3870
18732TIP3    H177687   6.395   6.076  14.677  0.4893  1.7679  1.2170
18732TIP3    H277688   6.534   6.056  14.621  0.0188  0.0638  0.6307
18733TIP3   OH277689   2.967   3.970  13.196  0.5461  0.1659  0.4182
18733TIP3    H177690   2.988   4.056  13.161 -1.6829  0.7487  0.4320
18733TIP3    H277691   2.961   3.914  13.119 -0.7738  0.6585  0.1451
18734TIP3   OH277692   4.839   6.793   2.163 -0.0087 -0.3429 -0.4976
18734TIP3    H177693   4.905   6.829   2.221 -1.3147 -1.4881  1.7855
18734TIP3    H277694   4.881   6.790   2.077  2.0639  1.1236  0.4278
18735TIP3   OH277695   0.856   4.394  13.523 -0.3603  0.8040 -0.0430
18735TIP3    H177696   0.811   4.322  13.478 -2.0252  0.6032  1.8653
18735TIP3    H277697   0.830   4.472  13.475 -0.0231  0.3369 -1.0090
18736TIP3   OH277698   3.872   3.470   0.844 -0.3021  0.3709 -0.2301
18736TIP3    H177699   3.856   3.427   0.928  1.5829  1.9411  0.9664
18736TIP3    H277700   3.902   3.399   0.787  0.9688 -0.2485  1.1748
18737TIP3   OH277701   0.645   0.769  14.655  0.0338  0.4143  0.1420
18737TIP3    H177702   0.683   0.728  14.732  0.9789  1.1056  0.0491
18737TIP3    H277703   0.663   0.708  14.583 -0.3250  0.0574  0.3476
18738TIP3   OH277704   6.761   3.142   0.672  0.4830  0.0271 -0.8012
18738TIP3    H177705   6.719   3.137   0.758  1.4025  0.9970 -0.2860
18738TIP3    H277706   6.709   3.206   0.623 -0.2298 -0.7621 -1.0775
18739TIP3   OH277707   4.636   5.994   3.404  0.4652 -0.1957 -0.2142
18739TIP3    H177708   4.579   5.973   3.329  0.1131  0.6674 -0.1887
18739TIP3    H277709   4.693   6.063   3.372  1.1767 -0.7151 -0.0768
18740TIP3   OH277710   1.054   1.300   2.176 -0.2873 -0.2906 -0.0397
18740TIP3    H177711   1.055   1.292   2.081  0.7209 -0.9031  0.0239
18740TIP3    H277712   1.031   1.392   2.192 -0.1938 -0.1213 -0.8652
18741TIP3   OH277713   0.299   5.116  12.035  0.4713 -0.1432 -0.1511
18741TIP3    H177714   0.333   5.056  12.101  1.3075  2.1711  1.6408
18741TIP3    H277715   0.376   5.165  12.006 -0.2332  0.2945 -1.3336
18742TIP3   OH277716   2.661   5.649  16.292  0.0183  0.1946  0.2481
18742TIP3    H177717   2.586   5.595  16.318  1.1757 -1.6213 -0.0733
18742TIP3    H277718   2.735   5.611  16.339  0.5425  2.8427  1.6579
18743TIP3   OH277719   2.716   5.857  11.939  0.4585 -0.0910  0.2502
18743TIP3    H177720   2.739   5.811  11.858  1.9365 -0.1138  0.6785
18743TIP3    H277721   2.749   5.800  12.009  2.1080  1.5028  0.7949
18744TIP3   OH277722   3.542   2.937  11.231  0.0604 -0.0456  0.1540
18744TIP3    H177723   3.493   2.856  11.224  1.2096 -0.9831  2.3498
18744TIP3    H277724   3.633   2.912  11.214  0.2135  1.0540 -0.6817
18745TIP3   OH277725   4.273   2.889   4.487 -0.3520 -0.4646  0.1524
18745TIP3    H177726   4.239   2.820   4.430  0.1849 -1.4063  0.9678
18745TIP3    H277727   4.363   2.863   4.506  0.5394  1.5065 -1.1843
18746TIP3   OH277728   2.333   3.639   4.015 -0.2175  0.2742 -0.2685
18746TIP3    H177729   2.347   3.727   3.980 -0.0350 -0.2093 -1.4306
18746TIP3    H277730   2.404   3.586   3.977  1.3105  0.1912  2.5692
18747TIP3   OH277731   2.784   5.131   3.962 -0.1545  0.1022  0.1548
18747TIP3    H177732   2.697   5.142   3.925 -0.8885 -1.2359  1.4290
18747TIP3    H277733   2.789   5.038   3.984  1.4287  0.2582  0.5057
18748TIP3   OH277734   2.869   4.952   3.447 -0.7861  0.6304  0.4809
18748TIP3    H177735   2.859   5.028   3.389 -0.4329  0.5086  0.2565
18748TIP3    H277736   2.782   4.938   3.483 -1.4543 -0.4213 -1.4422
18749TIP3   OH277737   0.482   6.556  12.695  0.0519 -0.0490  0.2773
18749TIP3    H177738   0.494   6.548  12.600 -1.7677  0.2960  0.0006
18749TIP3    H277739   0.564   6.595  12.726  0.3998  0.4792 -1.2475
18750TIP3   OH277740   0.067   4.739   4.502  0.2022  0.1277 -0.2258
18750TIP3    H177741   0.120   4.662   4.521 -0.3966  0.2344  1.9820
18750TIP3    H277742  -0.008   4.732   4.560 -0.0939  2.1368 -0.3281
18751TIP3   OH277743   0.098   0.310   0.685 -0.6785 -0.0335  0.0329
18751TIP3    H177744   0.189   0.301   0.658 -0.7608  1.7663 -0.9844
18751TIP3    H277745   0.048   0.291   0.605 -1.0427  2.1614 -0.3143
18752TIP3   OH277746   3.875   0.572   5.236 -0.5361  0.1854 -0.2543
18752TIP3    H177747   3.790   0.605   5.264 -0.4905  0.3805 -0.3420
18752TIP3    H277748   3.884   0.488   5.280 -0.8691  0.0633 -0.4166
18753TIP3   OH277749   4.262   5.809  14.763  0.2012  0.0970 -0.1329
18753TIP3    H177750   4.231   5.722  14.786  3.1517 -0.7750  0.8059
18753TIP3    H277751   4.345   5.794  14.717  0.7732  2.3846  0.0656
18754TIP3   OH277752   4.917   4.531  15.374  0.1500  0.2145 -0.3621
18754TIP3    H177753   4.884   4.566  15.291 -2.8253  0.8147  0.9948
18754TIP3    H277754   4.888   4.440  15.375  0.9445 -0.0418 -0.3585
18755TIP3   OH277755   5.411   6.256  12.380  0.5352 -0.1804  0.1595
18755TIP3    H177756   5.427   6.219  12.294  2.7095  1.5805 -0.2290
18755TIP3    H277757   5.327   6.302  12.371  0.4175 -0.5641 -0.7858
18756TIP3   OH277758   2.942   6.528   5.314 -0.5730  0.3942  0.8844
18756TIP3    H177759   2.856   6.527   5.356 -0.3094  0.1395  1.4199
18756TIP3    H277760   2.995   6.469   5.367  0.1235  1.0713  0.9406
18757TIP3   OH277761   0.741   3.016  14.823  0.0572  0.6280  0.7987
18757TIP3    H177762   0.735   3.066  14.742 -1.7782  0.3871  0.7657
18757TIP3    H277763   0.815   2.957  14.810 -0.6185  0.1382 -0.9652
18758TIP3   OH277764   4.910   5.048  14.726  0.2185 -0.6783 -0.2607
18758TIP3    H177765   4.956   5.129  14.746  0.8536 -1.0252 -0.2909
18758TIP3    H277766   4.946   5.020  14.642 -0.1858 -0.8536 -0.3798
18759TIP3   OH277767   3.569   1.875  13.884 -0.4059  0.9109  0.4609
18759TIP3    H177768   3.590   1.958  13.928 -0.5609  0.3691  1.5893
18759TIP3    H277769   3.633   1.813  13.919  0.4225  0.7901 -1.2181
18760TIP3   OH277770   4.552   3.937  15.341 -0.0622  0.0861 -0.4475
18760TIP3    H177771   4.564   3.970  15.431 -0.5747 -0.1148 -0.3030
18760TIP3    H277772   4.595   3.851  15.342  1.4947  0.8403 -0.8959
18761TIP3   OH277773   5.088   3.809  13.128 -0.1784  0.2231 -0.4443
18761TIP3    H177774   5.144   3.797  13.205 -0.7139  0.9476  0.0674
18761TIP3    H277775   5.149   3.817  13.055  0.3059 -1.2788 -0.2160
18762TIP3   OH277776   0.160   4.464   4.542 -0.2038 -0.7679  0.2845
18762TIP3    H177777   0.099   4.467   4.616 -0.4997 -0.5926  0.0364
18762TIP3    H277778   0.246   4.452   4.582 -0.2322  0.4130  0.7155
18763TIP3   OH277779   3.367   0.175   4.419  0.0603 -0.1509 -0.1791
18763TIP3    H177780   3.341   0.092   4.381  1.1851 -1.1053  1.0819
18763TIP3    H277781   3.285   0.223   4.432 -0.8337 -1.9953  1.2159
18764TIP3   OH277782   3.877   3.159  14.520 -0.0203  0.3158  0.2304
18764TIP3    H177783   3.812   3.107  14.472 -0.4542 -0.8285  2.0074
18764TIP3    H277784   3.874   3.124  14.609  0.7498  2.4140  1.1040
18765TIP3   OH277785   2.753   3.220  15.755 -0.0603  0.0158 -0.2122
18765TIP3    H177786   2.735   3.133  15.721 -2.0155  0.1654  0.3667
18765TIP3    H277787   2.793   3.267  15.681  0.4026 -1.1652 -0.7212
18766TIP3   OH277788   2.452   5.843   3.881 -0.0120 -0.1827  0.0106
18766TIP3    H177789   2.538   5.867   3.916 -0.1316 -0.4384  0.4879
18766TIP3    H277790   2.408   5.800   3.954 -0.2131 -0.8564 -0.5008
18767TIP3   OH277791   5.856   3.430  16.445 -0.4400 -0.1652 -0.1572
18767TIP3    H177792   5.884   3.522  16.440 -1.3774  0.0897 -0.8610
18767TIP3    H277793   5.760   3.435  16.448 -0.4898 -1.1194 -0.1902
18768TIP3   OH277794   3.111   4.103  13.943 -0.1057 -0.7140 -0.0005
18768TIP3    H177795   3.099   4.059  13.859 -0.9603  1.0479 -0.8339
18768TIP3    H277796   3.022   4.115  13.977  0.1140  0.2834  0.2447
18769TIP3   OH277797   2.934   3.998  14.693 -0.4428  0.3473 -0.8154
18769TIP3    H177798   2.965   3.967  14.777 -2.0235  2.6711  0.6859
18769TIP3    H277799   2.880   3.927  14.659 -0.9935 -0.0348  0.8293
18770TIP3   OH277800   0.215   2.318  13.532  0.0534  0.1243 -0.4417
18770TIP3    H177801   0.307   2.321  13.506 -0.3803  1.2838 -1.9425
18770TIP3    H277802   0.206   2.390  13.595 -0.3556  1.6919 -2.2281
18771TIP3   OH277803   4.164   5.411  10.606 -0.0646  0.0035 -0.3618
18771TIP3    H177804   4.180   5.467  10.682 -0.0918  1.8000 -1.6482
18771TIP3    H277805   4.224   5.338  10.618 -0.0027  0.2910  1.3407
18772TIP3   OH277806   3.118   3.857  16.221 -0.5034  0.0568  0.9861
18772TIP3    H177807   3.065   3.778  16.218 -1.4384  0.7080  0.2659
18772TIP3    H277808   3.063   3.922  16.265 -0.4594  0.8367 -0.0791
18773TIP3   OH277809   1.297   4.518   0.661 -0.2355 -0.2555 -0.3115
18773TIP3    H177810   1.254   4.602   0.644 -0.9309 -0.9467 -2.1195
18773TIP3    H277811   1.228   4.463   0.699  0.2558  0.0171  1.0064
18774TIP3   OH277812   6.609   1.500  13.655  0.2694 -0.4388 -0.5928
18774TIP3    H177813   6.631   1.443  13.581 -1.2291  1.8257 -2.8506
18774TIP3    H277814   6.622   1.589  13.622  0.2257  0.6259  2.0953
18775TIP3   OH277815   4.596   0.313  11.154  0.5612 -0.0696 -0.3220
18775TIP3    H177816   4.625   0.303  11.244  1.2105  0.8855 -0.4232
18775TIP3    H277817   4.674   0.299  11.101  1.0045  2.9228 -0.5770
18776TIP3   OH277818   3.596   1.741  11.775  0.0775 -0.0611 -0.3282
18776TIP3    H177819   3.670   1.752  11.715  0.6933 -1.3786  0.1609
18776TIP3    H277820   3.623   1.668  11.832 -2.3440 -1.8174 -1.3550
18777TIP3   OH277821   5.224   1.619   1.716 -0.1632 -0.1312  0.2691
18777TIP3    H177822   5.214   1.524   1.720 -0.6793 -0.1042 -0.2549
18777TIP3    H277823   5.153   1.648   1.657 -1.1127  0.7541  1.8153
18778TIP3   OH277824   3.341   2.213   3.631  0.3212 -0.5062 -0.2317
18778TIP3    H177825   3.321   2.219   3.724  0.6546  0.0723 -0.1987
18778TIP3    H277826   3.426   2.169   3.626  0.8385  0.4777 -0.2116
18779TIP3   OH277827   3.786   1.040  11.493 -0.1001  0.1298 -0.3001
18779TIP3    H177828   3.702   1.082  11.513  0.0484  1.2099 -1.8288
18779TIP3    H277829   3.787   0.960  11.547 -0.3710  2.0702  2.6987
18780TIP3   OH277830   2.394   4.268   2.944 -0.0770 -0.7936 -0.2579
18780TIP3    H177831   2.337   4.191   2.943  0.8599 -1.6392  2.9329
18780TIP3    H277832   2.481   4.233   2.963  0.8249  0.8207 -1.3395
18781TIP3   OH277833   5.341   4.873  13.879 -0.2710  0.7119  0.0962
18781TIP3    H177834   5.296   4.788  13.874 -0.1768  0.5526  1.7616
18781TIP3    H277835   5.403   4.871  13.807  0.5129 -1.0975  0.7877
18782TIP3   OH277836   2.515   0.407   5.938  0.4293 -0.2390  0.1448
18782TIP3    H177837   2.441   0.468   5.940 -0.3483 -1.0711 -1.4718
18782TIP3    H277838   2.592   0.463   5.941 -0.2491  1.0179 -2.9605
18783TIP3   OH277839   0.521   0.064  16.281 -0.7550 -0.0841 -0.1426
18783TIP3    H177840   0.520  -0.005  16.215 -1.7467  0.5237 -0.7746
18783TIP3    H277841   0.449   0.043  16.340 -0.0808 -0.4403  0.5729
18784TIP3   OH277842   2.464   1.488  13.714  0.1358 -0.1115  0.2492
18784TIP3    H177843   2.516   1.457  13.640 -0.4032 -1.5926  0.4676
18784TIP3    H277844   2.437   1.577  13.690 -1.4291 -1.1762 -2.0786
18785TIP3   OH277845   2.160   6.778  13.512  0.0914 -0.3583 -0.8187
18785TIP3    H177846   2.253   6.778  13.490  0.3313  1.3965  0.0879
18785TIP3    H277847   2.135   6.870  13.506 -1.1886 -0.6063  0.5953
18786TIP3   OH277848   5.573   0.647  16.502  0.5458  0.3537 -0.0096
18786TIP3    H177849   5.526   0.704  16.563  0.9151  1.6065 -0.8652
18786TIP3    H277850   5.507   0.621  16.438  0.1233 -1.0814  0.9752
18787TIP3   OH277851   0.672   3.931  14.648 -0.0559 -0.7310 -0.1402
18787TIP3    H177852   0.634   3.844  14.647  0.4413 -0.9655  0.4211
18787TIP3    H277853   0.767   3.916  14.643  0.0119 -0.2122 -0.4623
18788TIP3   OH277854   1.063   1.355  12.001 -0.0657 -0.1682  0.3774
18788TIP3    H177855   1.046   1.273  11.954 -0.5951 -0.4385  1.0346
18788TIP3    H277856   0.985   1.408  11.985  0.0783  0.0298  0.3297
18789TIP3   OH277857   4.477   6.055   4.411 -0.5747 -0.0402  0.1860
18789TIP3    H177858   4.563   6.021   4.435 -0.3746  0.2708 -0.0921
18789TIP3    H277859   4.430   5.978   4.377 -0.0232  0.0218 -0.7160
18790TIP3   OH277860   6.371   2.997   1.080 -0.5085  0.2154  0.1130
18790TIP3    H177861   6.403   2.909   1.059  0.1310  0.2362  1.0022
18790TIP3    H277862   6.445   3.041   1.121 -1.2577  0.6999  0.9689
18791TIP3   OH277863   5.148   1.698   5.279  0.5905  0.3120  0.3139
18791TIP3    H177864   5.115   1.613   5.248  1.0923  0.3595 -0.3514
18791TIP3    H277865   5.089   1.720   5.351 -0.8767  0.3973 -0.8723
18792TIP3   OH277866   0.213   0.536   3.413  0.2970 -0.8572  0.0081
18792TIP3    H177867   0.308   0.542   3.426  0.2419  1.3210 -0.3632
18792TIP3    H277868   0.178   0.516   3.500  0.9278  0.5964  0.6111
18793TIP3   OH277869   1.812   0.648   3.278  0.8157  0.5921  0.0005
18793TIP3    H177870   1.796   0.673   3.188 -1.0775 -2.3288 -0.5316
18793TIP3    H277871   1.894   0.598   3.275 -0.4020 -1.4290 -0.5119
18794TIP3   OH277872   2.765   5.386  12.823  0.0584  0.4428  0.2551
18794TIP3    H177873   2.671   5.388  12.807  0.1940 -1.5939 -0.8538
18794TIP3    H277874   2.805   5.387  12.736  1.0324 -0.1109  0.6836
18795TIP3   OH277875   4.160   0.835   1.973 -0.0295 -0.0458 -0.2429
18795TIP3    H177876   4.220   0.798   1.909  0.2515  0.4011 -0.2397
18795TIP3    H277877   4.204   0.822   2.057  0.2989  0.7448 -0.2907
18796TIP3   OH277878   0.299   1.348   4.011 -0.1830  0.3450  0.0847
18796TIP3    H177879   0.366   1.363   4.077  1.2016  0.8499 -1.4138
18796TIP3    H277880   0.347   1.322   3.933 -1.9205 -2.2639 -0.1867
18797TIP3   OH277881   5.022   6.118  17.016 -0.1236  0.0474  0.5925
18797TIP3    H177882   5.027   6.025  17.036 -0.6571 -0.3822 -1.2217
18797TIP3    H277883   4.934   6.130  16.980  0.4768  0.9785 -0.5707
18798TIP3   OH277884   5.415   6.785  13.671 -0.1597 -0.1149 -0.3377
18798TIP3    H177885   5.469   6.851  13.714  0.3320  1.4662 -3.2287
18798TIP3    H277886   5.448   6.701  13.703  1.6031  0.9493  0.6555
18799TIP3   OH277887   3.766   1.970  15.580  0.5200 -0.0201 -0.4776
18799TIP3    H177888   3.784   2.025  15.504  0.3159  0.2506 -0.3366
18799TIP3    H277889   3.674   1.945  15.570  1.1532 -1.9918 -1.5767
18800TIP3   OH277890   1.520   3.506   1.136  0.8362  0.1788 -0.7026
18800TIP3    H177891   1.432   3.518   1.100  1.6696 -2.0462 -3.6678
18800TIP3    H277892   1.506   3.451   1.214 -0.5844  1.7236  0.1738
18801TIP3   OH277893   3.158   2.769  13.313 -0.0532 -0.3388 -0.1030
18801TIP3    H177894   3.217   2.696  13.294 -1.4586 -1.2682 -1.0364
18801TIP3    H277895   3.072   2.739  13.282 -0.8907  1.2364  0.6230
18802TIP3   OH277896   3.077   2.699  15.232  0.2493  0.4428  0.3051
18802TIP3    H177897   3.086   2.694  15.137  1.0037  0.6675  0.3585
18802TIP3    H277898   3.145   2.641  15.265 -0.8574 -0.6541  0.6981
18803TIP3   OH277899   4.023   5.763  12.174 -0.1431 -0.3564  0.4810
18803TIP3    H177900   4.057   5.817  12.104  2.0194 -1.5558  0.5599
18803TIP3    H277901   3.980   5.824  12.234 -0.2009  0.9066 -0.8431
18804TIP3   OH277902   0.121   2.801   0.846 -0.6158  0.1810  0.4827
18804TIP3    H177903   0.039   2.821   0.891 -1.2309  1.9629 -1.3480
18804TIP3    H277904   0.154   2.886   0.816  1.1821 -0.6680 -0.0553
18805TIP3   OH277905   1.289   4.110   1.297 -0.5006  0.2130 -0.0503
18805TIP3    H177906   1.262   4.023   1.326 -0.1457 -0.1929 -0.9135
18805TIP3    H277907   1.292   4.103   1.201  1.5297  0.5612 -0.0352
18806TIP3   OH277908   0.878   0.606  14.111  0.5181 -0.4554 -0.0338
18806TIP3    H177909   0.973   0.617  14.106  0.2867  1.1691 -1.1369
18806TIP3    H277910   0.843   0.670  14.049 -1.3081 -0.9075  0.5051
18807TIP3   OH277911   5.372   5.330   2.708 -0.0992 -0.1230 -0.8772
18807TIP3    H177912   5.413   5.368   2.630  0.2454 -0.1745 -0.7216
18807TIP3    H277913   5.320   5.401   2.745  2.5103  0.9938  0.8236
18808TIP3   OH277914   0.331   2.554   0.535  0.0577  0.4117  0.1617
18808TIP3    H177915   0.325   2.465   0.569 -1.7241  0.1792 -0.7223
18808TIP3    H277916   0.254   2.599   0.571 -0.1826  1.0165 -1.0918
18809TIP3   OH277917   5.455   5.570   2.631 -0.1455 -0.0412  0.1972
18809TIP3    H177918   5.520   5.639   2.640  0.1304 -0.3178  0.3441
18809TIP3    H277919   5.408   5.591   2.550  0.5862 -0.2238 -0.2778
18810TIP3   OH277920   2.654   1.876  11.913 -0.1839 -0.1268 -0.3332
18810TIP3    H177921   2.594   1.910  11.847  2.3473  0.7442 -2.2704
18810TIP3    H277922   2.675   1.788  11.883  1.9435  0.7207 -1.4333
18811TIP3   OH277923   4.682   2.805   4.045 -0.4050 -0.1281 -0.1633
18811TIP3    H177924   4.662   2.844   3.959 -0.7401 -0.4080 -0.2156
18811TIP3    H277925   4.607   2.748   4.063  0.6672 -1.7378 -0.6712
18812TIP3   OH277926   3.697   5.982   0.670 -0.1801 -0.3102 -0.1609
18812TIP3    H177927   3.701   6.054   0.734  1.7712  0.3353 -0.9960
18812TIP3    H277928   3.661   5.909   0.720 -1.0139  0.8793  1.0398
18813TIP3   OH277929   5.138   6.018   3.145 -0.0467  0.1761  0.3300
18813TIP3    H177930   5.096   5.983   3.224 -0.5875 -1.8153 -0.7898
18813TIP3    H277931   5.087   6.096   3.123  1.1019  1.7002  2.8294
18814TIP3   OH277932   0.232   2.028   1.542 -0.2638 -0.0709  0.1089
18814TIP3    H177933   0.299   2.066   1.486  0.2709 -0.6341  0.3615
18814TIP3    H277934   0.159   2.008   1.483  0.3875 -0.8885 -0.4331
18815TIP3   OH277935   1.268   5.052  11.561  0.2847 -0.0080  0.3233
18815TIP3    H177936   1.235   5.097  11.639  1.7923  0.0126  0.9628
18815TIP3    H277937   1.259   4.959  11.582 -0.5746 -0.0091 -0.0302
18816TIP3   OH277938   2.229   0.066   1.436  0.4076  0.1851  0.2910
18816TIP3    H177939   2.138   0.078   1.409  0.7570 -0.3559 -1.1331
18816TIP3    H277940   2.225  -0.003   1.503 -0.0950 -0.5989 -0.5382
18817TIP3   OH277941   6.276   4.300  14.642 -0.2413 -0.3311  0.2093
18817TIP3    H177942   6.247   4.385  14.608  0.5528  0.4562  1.4901
18817TIP3    H277943   6.222   4.285  14.720  0.3604 -0.4982  0.5999
18818TIP3   OH277944   5.454   3.655  13.507 -0.9686 -0.2786  0.1762
18818TIP3    H177945   5.473   3.739  13.547 -0.6727 -1.1408  1.8745
18818TIP3    H277946   5.374   3.670  13.457  0.4739  1.6498 -1.6200
18819TIP3   OH277947   2.783   5.536   1.379  0.1496  0.2406  0.1780
18819TIP3    H177948   2.866   5.513   1.338 -0.8657 -2.4313 -0.5146
18819TIP3    H277949   2.784   5.490   1.463 -1.2604 -1.1207 -0.5244
18820TIP3   OH277950   3.408   3.959  12.638 -0.2523  0.3435  0.2597
18820TIP3    H177951   3.409   4.009  12.556 -1.5206 -0.5872 -0.3565
18820TIP3    H277952   3.410   4.025  12.707  1.4299  1.1173 -0.5216
18821TIP3   OH277953   4.765   1.835   5.631 -0.0133 -0.2024 -0.1465
18821TIP3    H177954   4.769   1.750   5.675  2.0559 -0.1048 -0.0880
18821TIP3    H277955   4.730   1.895   5.698 -1.2278 -0.9326 -0.1059
18822TIP3   OH277956   4.328   4.567   0.923  0.0094  0.2578  0.2379
18822TIP3    H177957   4.352   4.648   0.877  0.4458 -0.7082 -1.2751
18822TIP3    H277958   4.237   4.579   0.947 -0.2431  0.7840 -0.9297
18823TIP3   OH277959   0.770   0.552  16.350 -0.2643  0.0662  0.0296
18823TIP3    H177960   0.847   0.535  16.404 -1.3426  0.4035  1.7455
18823TIP3    H277961   0.709   0.481  16.372 -1.7106  1.6239  1.2564
18824TIP3   OH277962   4.913   2.028  15.675 -0.3142  0.0426  0.1341
18824TIP3    H177963   4.856   1.954  15.697  0.4432  0.0513  2.2517
18824TIP3    H277964   4.938   2.012  15.584  1.1222 -3.2169  1.0058
18825TIP3   OH277965   3.991   5.628  11.634  0.0214 -0.0715 -0.6191
18825TIP3    H177966   3.920   5.684  11.600 -1.0253 -1.1650 -0.2889
18825TIP3    H277967   3.975   5.543  11.593 -0.4678 -1.0548  1.5633
18826TIP3   OH277968   4.131   5.409  15.357 -0.1836 -0.1644  0.4942
18826TIP3    H177969   4.128   5.415  15.262  0.9321  0.9798  0.5028
18826TIP3    H277970   4.091   5.491  15.387  2.8197  1.2365  0.9133
18827TIP3   OH277971   1.144   1.156  10.899 -0.4920  0.0443  0.3845
18827TIP3    H177972   1.079   1.126  10.836 -2.6490  1.6263  1.7648
18827TIP3    H277973   1.180   1.236  10.861  0.9764 -1.0609 -0.5748
18828TIP3   OH277974   4.946   0.976  16.747 -0.3105  0.4804 -0.0313
18828TIP3    H177975   4.953   0.912  16.818  1.2808  1.2504  0.5226
18828TIP3    H277976   4.859   1.015  16.758 -0.1678  0.4242  1.3531
18829TIP3   OH277977   6.730   0.979  12.539 -0.5174 -0.0154 -0.5985
18829TIP3    H177978   6.689   0.928  12.609 -1.8666  0.5768 -0.9547
18829TIP3    H277979   6.689   1.065  12.543  0.6780  0.5920 -0.9733
18830TIP3   OH277980   1.750   1.698   0.522  0.1424  0.7274 -0.2647
18830TIP3    H177981   1.832   1.715   0.570  0.1973 -1.3468  0.4180
18830TIP3    H277982   1.763   1.741   0.437  1.3144  1.7647  0.4215
18831TIP3   OH277983   5.727   0.369   2.165 -0.0164  0.4380 -1.0671
18831TIP3    H177984   5.698   0.292   2.116  1.9979  0.4652 -2.3709
18831TIP3    H277985   5.822   0.356   2.176 -0.2947  0.7103  2.3683
18832TIP3   OH277986   4.167   5.127  12.055  0.2992  0.5362 -0.0692
18832TIP3    H177987   4.216   5.096  12.131 -0.4281  2.0818  1.0674
18832TIP3    H277988   4.123   5.206  12.086 -0.0154  1.1854 -2.1109
18833TIP3   OH277989   6.332   3.946  16.374  0.1256  0.4397  0.0080
18833TIP3    H177990   6.291   4.024  16.412  1.3839  1.3215 -0.4261
18833TIP3    H277991   6.265   3.910  16.316 -0.5607  1.0403  0.4161
18834TIP3   OH277992   4.788   6.746   4.788 -0.2632  0.2599  0.1819
18834TIP3    H177993   4.780   6.722   4.696  0.1781  1.1047 -0.0826
18834TIP3    H277994   4.854   6.685   4.823  0.3770  0.6552 -0.3282
18835TIP3   OH277995   3.545   1.616  14.624 -0.0908 -0.3241 -0.2908
18835TIP3    H177996   3.597   1.626  14.703  0.6398  1.2601 -0.9463
18835TIP3    H277997   3.467   1.569  14.652  0.9641 -1.3420  1.0080
18836TIP3   OH277998   5.643   0.904  16.832 -0.3250  0.0117  0.0424
18836TIP3    H177999   5.622   0.888  16.739 -1.4309  1.1294  0.0813
18836TIP3    H278000   5.730   0.943  16.831 -1.2900  2.2706 -0.7536
18837TIP3   OH278001   0.306   6.470  13.503 -0.4777  0.3493  0.7452
18837TIP3    H178002   0.402   6.471  13.503 -0.4729  0.4043 -0.4983
18837TIP3    H278003   0.283   6.384  13.538  0.0459 -0.2708 -0.4053
18838TIP3   OH278004   5.479   0.005   6.209  0.7476 -0.4893  0.1096
18838TIP3    H178005   5.397   0.001   6.257  0.9487 -0.2306  0.4755
18838TIP3    H278006   5.517   0.090   6.232  1.8516 -1.2480  1.1603
18839TIP3   OH278007   2.592   3.949   5.950 -0.1166  0.4882  0.1759
18839TIP3    H178008   2.685   3.933   5.934 -0.4291 -1.1743 -0.1387
18839TIP3    H278009   2.577   3.916   6.039 -0.6670 -0.4848 -0.2666
18840TIP3   OH278010   0.187   5.661  14.824  0.9989 -0.3047 -0.3333
18840TIP3    H178011   0.194   5.640  14.731 -0.0774  0.2241 -0.5354
18840TIP3    H278012   0.192   5.576  14.868 -1.2121 -0.8195 -1.0221
18841TIP3   OH278013   2.682   6.042   3.855 -0.0030  0.0464  0.3573
18841TIP3    H178014   2.732   6.103   3.802  1.2741 -0.8989  0.4507
18841TIP3    H278015   2.619   6.096   3.902 -1.0706  0.9172 -2.0004
18842TIP3   OH278016   5.274   3.693  17.024 -0.1553  0.0481  0.5782
18842TIP3    H178017   5.240   3.760  16.965 -0.8183  1.5293  2.5920
18842TIP3    H278018   5.196   3.645  17.052  0.0556 -0.0831  0.9381
18843TIP3   OH278019   2.181   0.364   1.966  0.1453  0.1348 -0.1794
18843TIP3    H178020   2.232   0.431   1.921 -0.8705  0.8346 -0.3304
18843TIP3    H278021   2.143   0.311   1.895  2.1097 -1.5083 -0.0283
18844TIP3   OH278022   4.306   4.495  12.166  0.0803 -0.7226  0.0776
18844TIP3    H178023   4.338   4.585  12.162  1.4344 -1.1589  0.7218
18844TIP3    H278024   4.268   4.479  12.079 -0.3057  0.5129  0.0170
18845TIP3   OH278025   0.881   2.772  14.190 -0.1104 -0.1905 -0.0114
18845TIP3    H178026   0.810   2.758  14.127 -0.2674 -1.7481  0.4936
18845TIP3    H278027   0.956   2.726  14.153 -0.3324 -1.5231  1.1467
18846TIP3   OH278028   3.607   6.133  14.552  0.1017  0.7485  0.6795
18846TIP3    H178029   3.521   6.170  14.571 -0.0631  1.8065 -1.9211
18846TIP3    H278030   3.614   6.057  14.610 -1.7418  1.7886  2.3304
18847TIP3   OH278031   5.479   5.049   0.601  0.2296  0.8773  0.0982
18847TIP3    H178032   5.554   5.085   0.649  1.6167 -1.4036 -0.2525
18847TIP3    H278033   5.403   5.082   0.648  1.4847  1.7166  1.6168
18848TIP3   OH278034   6.487   1.296   6.102 -0.1230 -0.6718  0.5031
18848TIP3    H178035   6.450   1.222   6.150  0.3444 -0.6715  0.8621
18848TIP3    H278036   6.551   1.334   6.162  1.4357 -1.4766 -0.6142
18849TIP3   OH278037   2.467   1.559  16.302  0.3176 -0.0095  0.2472
18849TIP3    H178038   2.550   1.597  16.274  0.8568 -0.8351  0.7107
18849TIP3    H278039   2.463   1.577  16.396 -0.8305  1.5200 -0.0770
18850TIP3   OH278040   4.242   2.534   5.427 -0.5704 -0.4669  0.6954
18850TIP3    H178041   4.172   2.469   5.417  1.3269 -2.3511 -0.7180
18850TIP3    H278042   4.292   2.505   5.503  0.4019 -0.8003 -0.0590
18851TIP3   OH278043   3.089   2.104  11.304 -0.6395  0.3313 -0.2896
18851TIP3    H178044   3.136   2.100  11.221 -2.1445  2.4012 -1.2701
18851TIP3    H278045   3.096   2.196  11.331 -3.7307  0.5992 -0.2346
18852TIP3   OH278046   4.474   5.501   0.225  0.1589  0.8744  0.1139
18852TIP3    H178047   4.520   5.424   0.258 -0.6825  0.2672 -0.1096
18852TIP3    H278048   4.383   5.487   0.251 -0.3035  0.9740 -1.4295
18853TIP3   OH278049   2.013   3.097   3.465  0.1768 -0.5145 -0.0980
18853TIP3    H178050   1.926   3.089   3.504  1.7481 -2.6282  3.1825
18853TIP3    H278051   2.050   3.175   3.506  0.6331 -0.8519  0.1284
18854TIP3   OH278052   0.453   1.743   0.474  0.0812  0.3102  0.1149
18854TIP3    H178053   0.520   1.790   0.524  0.5969 -0.4009  0.0942
18854TIP3    H278054   0.418   1.679   0.535  0.6327 -0.4824 -0.3985
18855TIP3   OH278055   6.460   0.634   1.180 -0.4492  0.2189  0.2388
18855TIP3    H178056   6.489   0.543   1.178  0.5586  0.4938  1.5696
18855TIP3    H278057   6.382   0.636   1.124 -0.2480 -1.3717 -0.1138
18856TIP3   OH278058   0.910   2.074   1.189 -0.2303  0.4332  0.4879
18856TIP3    H178059   0.968   2.121   1.249  0.4886 -1.0990  1.0144
18856TIP3    H278060   0.864   2.011   1.244  0.1974 -0.7681 -0.4969
18857TIP3   OH278061   1.675   3.262   4.733 -0.1712  0.3144  0.4277
18857TIP3    H178062   1.713   3.184   4.692 -0.9640  0.5292 -0.7474
18857TIP3    H278063   1.747   3.302   4.781  1.5542  1.5478 -2.9901
18858TIP3   OH278064   1.535   1.240  11.346  0.1548 -0.1372  0.3871
18858TIP3    H178065   1.532   1.333  11.322  0.1339 -0.3073 -0.2933
18858TIP3    H278066   1.628   1.219  11.346  0.2249  0.1256  1.5277
18859TIP3   OH278067   6.103   1.940  14.837 -0.6818 -0.1600 -0.3593
18859TIP3    H178068   6.159   1.915  14.911 -0.0154  1.1750 -0.3856
18859TIP3    H278069   6.021   1.894  14.852  0.3056 -1.8783 -0.1249
18860TIP3   OH278070   4.953   3.107   1.661 -0.3034  0.8658  0.4193
18860TIP3    H178071   4.876   3.060   1.693 -0.4984  0.3497 -0.7540
18860TIP3    H278072   5.018   3.099   1.731 -1.4273  1.5688  1.5339
18861TIP3   OH278073   0.772   0.814  16.332  0.0430 -0.2999 -0.1853
18861TIP3    H178074   0.688   0.802  16.288 -0.0966  0.9799 -0.3056
18861TIP3    H278075   0.800   0.726  16.357 -0.6680 -0.8747 -1.3753
18862TIP3   OH278076   3.119   3.912  13.415  0.1955  0.3461  0.3998
18862TIP3    H178077   3.183   3.983  13.422  0.7866 -0.1002 -0.3996
18862TIP3    H278078   3.065   3.936  13.339  1.5289 -0.9363 -0.9926
18863TIP3   OH278079   1.833   1.672  11.885 -0.1931  0.8228 -0.7946
18863TIP3    H178080   1.903   1.614  11.855  0.5289  1.9959 -1.4074
18863TIP3    H278081   1.789   1.622  11.954 -0.0236 -0.7267 -1.7826
18864TIP3   OH278082   2.334   6.106   1.249 -0.2332  0.0443 -0.4186
18864TIP3    H178083   2.316   6.013   1.261 -1.8861  0.5949  1.5209
18864TIP3    H278084   2.399   6.127   1.316  0.4220  0.2229 -1.0989
18865TIP3   OH278085   5.072   0.865  11.794 -0.4856  0.0711 -0.0520
18865TIP3    H178086   5.028   0.919  11.860 -0.5312  0.6306 -0.5328
18865TIP3    H278087   5.005   0.803  11.765 -0.1857 -0.8019  1.1149
18866TIP3   OH278088   1.735   6.394  14.473  0.0040  0.0885  0.2689
18866TIP3    H178089   1.705   6.467  14.527  0.9347 -0.2603  1.2838
18866TIP3    H278090   1.656   6.343  14.455 -0.4258  0.5898  0.7147
18867TIP3   OH278091   5.941   3.375  11.888  0.0022  0.1146  0.1441
18867TIP3    H178092   5.845   3.368  11.887 -0.0850  1.2024  0.3290
18867TIP3    H278093   5.962   3.432  11.814  0.5568 -0.6978 -0.3209
18868TIP3   OH278094   5.037   3.146  12.173  0.0251 -0.3773 -0.2422
18868TIP3    H178095   4.996   3.184  12.095  1.7771  0.3225 -0.8509
18868TIP3    H278096   5.029   3.052  12.161 -2.8807 -0.2715  0.4800
18869TIP3   OH278097   5.216   6.274  16.926 -0.2032  0.2383 -0.5980
18869TIP3    H178098   5.272   6.210  16.883  0.2264  0.9180 -1.0779
18869TIP3    H278099   5.137   6.226  16.949  0.3325 -0.5815 -0.4704
18870TIP3   OH278100   1.782   5.060  12.187 -0.2064 -0.7049 -0.2081
18870TIP3    H178101   1.850   4.993  12.195  1.0579  0.8157  2.4116
18870TIP3    H278102   1.741   5.064  12.273 -1.5182  0.6129 -0.8568
18871TIP3   OH278103   0.498   0.626  15.733 -0.1526 -0.0598  0.1928
18871TIP3    H178104   0.546   0.560  15.682 -0.3953  1.0386 -1.5135
18871TIP3    H278105   0.428   0.654  15.674  0.0859  1.8685  0.8110
18872TIP3   OH278106   1.421   6.754   6.760 -0.5526  0.6641  0.3513
18872TIP3    H178107   1.328   6.774   6.757 -0.7433 -0.3253 -0.4314
18872TIP3    H278108   1.457   6.818   6.821 -1.7023  1.2004  0.4785
18873TIP3   OH278109   2.032   1.933   4.139 -0.4191 -0.5021  0.0142
18873TIP3    H178110   2.065   1.982   4.214 -0.3720  1.3218 -1.1613
18873TIP3    H278111   2.101   1.870   4.119  0.7011  0.7044 -0.0285
18874TIP3   OH278112   3.325   0.443   3.679 -0.3171  0.0314 -0.0137
18874TIP3    H178113   3.326   0.362   3.627 -3.1182  0.2227 -0.4199
18874TIP3    H278114   3.364   0.509   3.621 -0.9994 -0.3383 -0.9139
18875TIP3   OH278115   6.409   3.852  14.339  0.2960  0.4284  0.2187
18875TIP3    H178116   6.399   3.779  14.401  2.4812  0.2548  0.3921
18875TIP3    H278117   6.381   3.816  14.255  1.7325 -0.7653  0.2258
18876TIP3   OH278118   1.409   1.399  12.310  0.1070  0.1928  0.1277
18876TIP3    H178119   1.377   1.489  12.308  1.3948  0.6735  0.7869
18876TIP3    H278120   1.439   1.383  12.220 -3.1019 -0.7052 -0.8491
18877TIP3   OH278121   1.268   3.662  16.663 -0.0948  0.1644  0.0492
18877TIP3    H178122   1.297   3.593  16.723 -0.0185  0.6321  0.5531
18877TIP3    H278123   1.173   3.656  16.664 -0.0679 -0.6804 -0.7960
18878TIP3   OH278124   3.685   2.186  14.498  0.6330 -0.3026  0.0425
18878TIP3    H178125   3.601   2.194  14.453  0.5966  1.1560  0.3502
18878TIP3    H278126   3.745   2.151  14.432  1.1086  3.7553 -1.8398
18879TIP3   OH278127   0.270   1.981   3.373  0.1130  0.0426 -0.4666
18879TIP3    H178128   0.314   1.944   3.296 -0.9592 -0.9238 -0.6206
18879TIP3    H278129   0.308   1.934   3.447  1.2212  1.0450 -0.3738
18880TIP3   OH278130   6.730   5.205   3.013 -0.2573 -0.1855  0.1339
18880TIP3    H178131   6.638   5.201   3.037 -0.3332 -1.4789 -0.3536
18880TIP3    H278132   6.734   5.167   2.925  0.3901  2.1379 -0.8855
18881TIP3   OH278133   0.693   1.285  16.782 -0.1426 -0.2020 -0.9119
18881TIP3    H178134   0.668   1.371  16.746 -0.0058  0.0984 -0.3014
18881TIP3    H278135   0.775   1.264  16.738 -1.9851 -1.7048 -3.7660
18882TIP3   OH278136   4.154   5.984   3.656  0.1157  0.2369 -0.0743
18882TIP3    H178137   4.239   6.012   3.620 -0.2415  1.5693  0.0812
18882TIP3    H278138   4.103   5.960   3.579 -0.0385  1.3640 -0.3371
18883TIP3   OH278139   4.096   4.747   4.490  0.1987  0.6510 -0.4476
18883TIP3    H178140   4.039   4.678   4.457  1.5106 -1.6134  1.7777
18883TIP3    H278141   4.178   4.735   4.442  0.1760  1.1160 -0.5966
18884TIP3   OH278142   5.364   0.543  16.368 -0.1865 -0.1356 -0.0855
18884TIP3    H178143   5.383   0.465  16.421  0.9801  0.6430  0.6610
18884TIP3    H278144   5.345   0.508  16.281 -1.3279 -1.3691  0.6405
18885TIP3   OH278145   2.688   3.270   3.112 -0.0494  0.7172 -0.6191
18885TIP3    H178146   2.683   3.318   3.029 -1.0638  1.2776 -0.2414
18885TIP3    H278147   2.600   3.276   3.148  0.3928  0.4682  0.5020
18886TIP3   OH278148   5.113   3.651  15.805  0.0319 -0.3236  0.2839
18886TIP3    H178149   5.018   3.655  15.811 -0.0778  0.6755 -1.7678
18886TIP3    H278150   5.141   3.742  15.803  0.9278 -0.6108 -0.5585
18887TIP3   OH278151   6.736   2.063   2.838 -0.0579 -0.0370 -0.0780
18887TIP3    H178152   6.764   1.975   2.814  2.3418  0.4618  0.8523
18887TIP3    H278153   6.747   2.114   2.757 -0.9524 -0.4447 -0.4706
18888TIP3   OH278154   4.851   4.614   1.869  0.2138 -0.2003  0.3639
18888TIP3    H178155   4.940   4.646   1.861  0.2573 -0.3273  0.3437
18888TIP3    H278156   4.860   4.521   1.889  0.0889 -0.1685  0.5710
18889TIP3   OH278157   2.669   6.491  12.633 -0.0708 -0.3277 -0.0316
18889TIP3    H178158   2.595   6.549  12.652  0.0555  0.1696 -1.0144
18889TIP3    H278159   2.668   6.427  12.704 -1.5647 -0.4445 -0.1363
18890TIP3   OH278160   3.938   5.761  15.379  0.1634  0.0304 -0.4922
18890TIP3    H178161   3.899   5.841  15.414 -0.1932 -0.5448  0.4570
18890TIP3    H278162   4.016   5.747  15.433 -0.9699 -1.4495  0.8192
18891TIP3   OH278163   5.632   2.853   4.329 -0.3110  0.0592 -0.1722
18891TIP3    H178164   5.704   2.915   4.343  0.2695 -0.3836 -1.2246
18891TIP3    H278165   5.600   2.873   4.241 -0.8646 -0.3786 -0.0693
18892TIP3   OH278166   5.837   2.792  16.474  0.7087  0.4139 -0.1129
18892TIP3    H178167   5.768   2.851  16.506 -1.2360 -1.0471 -1.4481
18892TIP3    H278168   5.848   2.729  16.545 -1.4282 -1.0388 -1.0253
18893TIP3   OH278169   2.369   5.248   3.484  0.1225 -0.0751  0.1428
18893TIP3    H178170   2.450   5.267   3.530 -0.1247 -2.2472  1.5472
18893TIP3    H278171   2.393   5.249   3.391  1.2916  1.3135  0.4474
18894TIP3   OH278172   5.328   2.113  11.333 -0.8208 -0.5618  0.1458
18894TIP3    H178173   5.344   2.187  11.392 -0.5225  1.0224 -1.8945
18894TIP3    H278174   5.401   2.054  11.349 -0.9204 -0.3218  1.5911
18895TIP3   OH278175   0.450   0.025   3.589 -0.0626 -0.3894  0.3125
18895TIP3    H178176   0.449  -0.069   3.604  0.1998 -0.6028 -0.9310
18895TIP3    H278177   0.529   0.040   3.537 -0.2049  0.4893  0.3405
18896TIP3   OH278178   4.514   6.452   3.182  0.5645 -0.1772 -0.1029
18896TIP3    H178179   4.498   6.375   3.128  0.7341 -0.2582 -0.0389
18896TIP3    H278180   4.453   6.443   3.255  0.0217  0.1616 -0.5104
18897TIP3   OH278181   4.981   2.205  14.427  0.3035 -0.4965 -0.3584
18897TIP3    H178182   5.046   2.246  14.370 -0.2892 -1.4921 -1.7838
18897TIP3    H278183   5.010   2.114  14.433 -0.4049 -0.7137 -0.2076
18898TIP3   OH278184   6.814   0.160   4.467 -0.4919 -0.2515 -0.4911
18898TIP3    H178185   6.816   0.218   4.392 -1.0480  1.2045  0.5905
18898TIP3    H278186   6.894   0.181   4.516  0.1802 -1.6182 -0.9795
18899TIP3   OH278187   0.124   3.500   6.099 -0.3039  0.4531 -0.0696
18899TIP3    H178188   0.168   3.537   6.023 -1.1591 -0.1250 -0.8650
18899TIP3    H278189   0.101   3.411   6.072  0.3459 -0.1374  1.2529
18900TIP3   OH278190   2.127   2.089  15.695 -0.2617  0.5191 -0.2658
18900TIP3    H178191   2.215   2.090  15.733 -0.2964  1.7768 -0.1762
18900TIP3    H278192   2.091   2.175  15.716 -0.7516  0.7888 -2.0617
18901TIP3   OH278193   3.033   4.488   4.489 -0.3984 -0.3912 -0.1975
18901TIP3    H178194   3.021   4.565   4.433  2.1519 -0.4690 -0.9270
18901TIP3    H278195   2.974   4.422   4.453 -1.3555  0.6797 -0.6172
18902TIP3   OH278196   2.961   6.259  16.348  0.7643  0.0400  0.5152
18902TIP3    H178197   2.930   6.169  16.355  2.6819 -0.9308 -2.5124
18902TIP3    H278198   2.883   6.310  16.328  0.1469 -1.4868 -1.1221
18903TIP3   OH278199   1.991   3.140  14.938 -0.1079  0.1453 -0.0277
18903TIP3    H178200   2.045   3.061  14.950 -0.8083 -0.3729 -0.2480
18903TIP3    H278201   1.945   3.125  14.856  1.1692  1.6249 -1.0377
18904TIP3   OH278202   5.307   3.303   1.221 -0.4092  0.2987  0.3689
18904TIP3    H178203   5.263   3.380   1.256 -0.0573  0.8630 -0.4269
18904TIP3    H278204   5.379   3.287   1.281  0.8902  1.9520 -0.7075
18905TIP3   OH278205   0.894   2.617   3.540  0.1025 -0.3234 -0.1772
18905TIP3    H178206   0.965   2.644   3.482 -0.1345  0.1563 -0.2528
18905TIP3    H278207   0.931   2.548   3.595  1.0476  0.8970  0.7485
18906TIP3   OH278208   4.510   2.818   1.805  0.1786  0.7260  0.0948
18906TIP3    H178209   4.506   2.906   1.767 -1.0521  0.7574  0.2919
18906TIP3    H278210   4.452   2.822   1.881  1.4918  0.2424  1.1326
18907TIP3   OH278211   1.391   1.042   1.900 -0.0998  0.1380  0.5724
18907TIP3    H178212   1.297   1.058   1.894 -0.2699 -1.2429 -0.7519
18907TIP3    H278213   1.413   1.000   1.817  1.5203 -0.3534  1.2441
18908TIP3   OH278214   2.404   1.630   2.640  0.1123  0.3756  0.2696
18908TIP3    H178215   2.491   1.594   2.628 -0.1094  1.0165 -3.9896
18908TIP3    H278216   2.416   1.725   2.636 -0.7120  0.4728 -0.1500
18909TIP3   OH278217   6.599   2.750  12.392 -0.0703  0.0892 -0.6355
18909TIP3    H178218   6.532   2.699  12.439 -0.9898  1.6471 -0.2260
18909TIP3    H278219   6.552   2.824  12.356  1.3709  0.9738 -0.7290
18910TIP3   OH278220   4.235   0.773   4.115 -0.4027  0.0246 -0.3712
18910TIP3    H178221   4.208   0.717   4.042 -0.4807  1.0844 -1.1565
18910TIP3    H278222   4.274   0.850   4.074 -0.7020  0.7636  0.7012
18911TIP3   OH278223   3.845   3.006   0.945  0.0614 -0.1069  0.7227
18911TIP3    H178224   3.931   2.986   0.910  0.7004  1.2829  1.4764
18911TIP3    H278225   3.848   2.974   1.035 -0.6549 -1.2093  0.3680
18912TIP3   OH278226   6.123   0.185   2.456  0.2024 -0.2781 -0.0206
18912TIP3    H178227   6.163   0.272   2.462 -1.1083  0.3560 -0.3600
18912TIP3    H278228   6.193   0.124   2.480  0.6295  0.9703  1.9311
18913TIP3   OH278229   2.860   1.244  11.457 -0.0295  0.5872 -0.1222
18913TIP3    H178230   2.783   1.264  11.511  1.6180 -0.3164  2.6910
18913TIP3    H278231   2.907   1.327  11.449 -0.2176  0.7022 -0.0278
18914TIP3   OH278232   4.319   6.707  16.194  0.0015  0.1222 -0.2322
18914TIP3    H178233   4.373   6.697  16.272  0.5149 -0.6739 -0.6855
18914TIP3    H278234   4.230   6.690  16.224 -0.1181  2.1507  0.6760
18915TIP3   OH278235   6.516   5.975  15.472 -0.0077 -0.3882  0.2946
18915TIP3    H178236   6.445   5.911  15.467 -0.1113 -0.1587 -1.4142
18915TIP3    H278237   6.569   5.946  15.547 -2.6132  0.1927  2.4603
18916TIP3   OH278238   2.434   2.294  12.266  0.3250 -0.1923  0.2197
18916TIP3    H178239   2.481   2.217  12.299  0.4267 -0.4963 -0.6162
18916TIP3    H278240   2.499   2.342  12.215  0.1324  0.1925  0.3374
18917TIP3   OH278241   6.127   6.077   0.275 -0.1440  0.2771 -0.4193
18917TIP3    H178242   6.056   6.014   0.273  0.6890 -0.6405 -1.8220
18917TIP3    H278243   6.103   6.143   0.210  1.5873 -1.5239 -2.9950
18918TIP3   OH278244   5.453   4.120  11.742 -0.3713 -0.1635  0.5987
18918TIP3    H178245   5.393   4.097  11.813  1.1167 -2.0017  1.3054
18918TIP3    H278246   5.405   4.097  11.662 -0.3372 -2.4277  1.1807
18919TIP3   OH278247   0.450   2.044  15.034  0.1268 -0.0157 -0.3458
18919TIP3    H178248   0.412   2.127  15.005  0.1388  0.0551 -0.1565
18919TIP3    H278249   0.528   2.068  15.083 -0.8308 -0.0539  1.2078
18920TIP3   OH278250   0.885   0.086   3.618 -0.4774  0.1899  0.0932
18920TIP3    H178251   0.810   0.029   3.639 -1.9384  2.2460  0.6102
18920TIP3    H278252   0.884   0.153   3.687  1.2866  0.7701 -0.4383
18921TIP3   OH278253   4.167   6.508  11.278 -0.0711 -0.7397 -0.3629
18921TIP3    H178254   4.244   6.562  11.296 -0.8528  0.1396  0.3955
18921TIP3    H278255   4.187   6.423  11.318  0.5813 -0.5789 -0.3462
18922TIP3   OH278256   4.661   1.146   2.306  0.3056 -0.0004 -0.1304
18922TIP3    H178257   4.696   1.086   2.372  1.4099 -1.0732 -1.6524
18922TIP3    H278258   4.731   1.211   2.294  0.7261 -0.6440 -1.2712
18923TIP3   OH278259   2.069   2.010   4.389 -0.2341 -0.1785  0.5286
18923TIP3    H178260   2.098   1.940   4.448 -0.5579  0.9345  2.0486
18923TIP3    H278261   2.090   2.090   4.437 -2.0896  0.7159 -0.1425
18924TIP3   OH278262   3.436   3.184  15.871 -0.3150 -0.0730 -0.3695
18924TIP3    H178263   3.480   3.151  15.950  0.5865  0.7220 -0.5208
18924TIP3    H278264   3.473   3.132  15.800 -0.6624 -0.3668 -0.3306
18925TIP3   OH278265   3.684   6.581  12.837 -0.4935 -0.0321 -0.0990
18925TIP3    H178266   3.753   6.523  12.866 -0.5277 -1.1354 -2.1053
18925TIP3    H278267   3.699   6.591  12.742 -3.3034 -0.6435 -0.6509
18926TIP3   OH278268   2.072   2.406   0.544  0.2212 -0.3554  0.0785
18926TIP3    H178269   2.153   2.408   0.594 -1.1364 -1.2700  2.4103
18926TIP3    H278270   2.066   2.317   0.510  1.3162  0.3602 -2.1045
18927TIP3   OH278271   5.563   5.187  14.075  0.1949 -0.5483  0.0513
18927TIP3    H178272   5.525   5.268  14.110  0.3247 -1.2279  1.8565
18927TIP3    H278273   5.531   5.182  13.985 -1.7802  0.2922  0.6654
18928TIP3   OH278274   2.279   4.812  13.577 -0.5963 -0.4614 -0.5565
18928TIP3    H178275   2.339   4.746  13.611 -0.8660  0.4186  1.7232
18928TIP3    H278276   2.283   4.883  13.641 -0.0026  1.9314 -3.1419
18929TIP3   OH278277   3.954   6.703  15.849 -0.0161  0.0576 -0.1623
18929TIP3    H178278   3.946   6.785  15.898  0.8517 -0.5140  0.9677
18929TIP3    H278279   4.042   6.705  15.812  0.2400 -0.6564  0.4071
18930TIP3   OH278280   2.354   6.727   0.925 -0.0598  0.3944  0.2113
18930TIP3    H178281   2.326   6.813   0.956  0.2486  0.1637  1.1565
18930TIP3    H278282   2.409   6.693   0.995  3.4057  1.2336 -1.9527
18931TIP3   OH278283   2.520   5.613  14.751  0.3500 -0.7501 -0.3242
18931TIP3    H178284   2.521   5.542  14.687 -1.7920 -1.1180 -0.0050
18931TIP3    H278285   2.441   5.662  14.731  1.3825  1.0902 -0.0109
18932TIP3   OH278286   2.093   0.697  12.520 -0.7232 -0.3073 -0.5360
18932TIP3    H178287   2.036   0.659  12.587 -0.7021 -2.0689 -1.4640
18932TIP3    H278288   2.162   0.741  12.569 -1.9875  0.4405  0.5940
18933TIP3   OH278289   6.355   1.303  16.434  0.0680  0.4072 -0.0677
18933TIP3    H178290   6.332   1.255  16.513  0.7756  1.1933  0.6202
18933TIP3    H278291   6.421   1.249  16.391 -1.1676 -0.5870 -0.7223
18934TIP3   OH278292   1.280   5.231   6.338  0.0956 -0.0359  0.9335
18934TIP3    H178293   1.313   5.267   6.256 -0.5754  1.7303  1.4097
18934TIP3    H278294   1.255   5.142   6.317 -0.6924  0.6006 -0.9509
18935TIP3   OH278295   5.203   6.338  13.424  0.1049 -0.1350 -0.0832
18935TIP3    H178296   5.185   6.333  13.518  0.8840  2.3883  0.2385
18935TIP3    H278297   5.278   6.281  13.411  0.2537 -0.1790  0.9162
18936TIP3   OH278298   6.271   6.674  15.697 -0.0395 -0.4705 -0.1723
18936TIP3    H178299   6.211   6.750  15.693 -0.7539 -1.0070  0.1643
18936TIP3    H278300   6.327   6.683  15.620 -0.8921 -0.2312 -0.7707
18937TIP3   OH278301   5.601   5.948  16.060 -0.4516  0.6306  0.3798
18937TIP3    H178302   5.686   5.966  16.020 -0.9060  0.0282 -0.8846
18937TIP3    H278303   5.598   6.004  16.137  1.9184 -0.8110  1.5623
18938TIP3   OH278304   5.092   3.220  14.483 -0.0787  0.1541  0.1953
18938TIP3    H178305   5.157   3.273  14.528  1.0096  0.1090 -1.2878
18938TIP3    H278306   5.107   3.237  14.390 -1.5027 -0.6560 -0.2010
18939TIP3   OH278307   4.519   1.404  12.098 -0.1283  0.2796  0.1283
18939TIP3    H178308   4.568   1.482  12.123  0.3188 -0.1793  0.6871
18939TIP3    H278309   4.507   1.355  12.179 -1.6308  0.4471  0.0346
18940TIP3   OH278310   2.656   0.088  16.585 -0.9004  0.9158 -0.1753
18940TIP3    H178311   2.623   0.120  16.501  0.9624  1.7669 -0.6052
18940TIP3    H278312   2.709   0.159  16.619  1.8380 -0.9780 -0.2975
18941TIP3   OH278313   0.117   5.953  16.782  0.3101 -0.3970  0.2693
18941TIP3    H178314   0.201   5.998  16.788 -1.2582  2.4690  1.5905
18941TIP3    H278315   0.066   6.005  16.719 -1.4414 -0.4237  1.6222
18942TIP3   OH278316   1.312   0.722  15.154 -0.3582  0.7085 -0.1635
18942TIP3    H178317   1.404   0.696  15.154 -0.3701  0.6679  0.2060
18942TIP3    H278318   1.288   0.725  15.061 -0.4679 -1.0108 -0.2210
18943TIP3   OH278319   0.420   1.412   0.943  0.1331  0.1689  0.0204
18943TIP3    H178320   0.455   1.337   0.895 -0.7933 -0.1502 -0.1484
18943TIP3    H278321   0.387   1.471   0.874 -1.4214 -0.3989  0.2687
18944TIP3   OH278322   2.444   1.670  16.859 -0.3337 -0.0518 -0.3685
18944TIP3    H178323   2.378   1.626  16.911  0.9263 -1.8250 -0.2075
18944TIP3    H278324   2.398   1.697  16.779 -0.9136 -2.6470 -0.9489
18945TIP3   OH278325   6.801   0.512  15.561  0.7922 -0.7632  0.3574
18945TIP3    H178326   6.882   0.564  15.560  0.1697  0.2239  0.4804
18945TIP3    H278327   6.815   0.445  15.494  1.7916 -0.7216  0.5118
18946TIP3   OH278328   6.365   5.250  14.890 -0.5972 -0.3477  0.2580
18946TIP3    H178329   6.421   5.315  14.932  1.2624 -1.5471 -0.3214
18946TIP3    H278330   6.419   5.171  14.885 -1.2408 -0.6507 -3.1073
18947TIP3   OH278331   6.576   6.540  11.647  0.1414  0.0673  0.1782
18947TIP3    H178332   6.527   6.509  11.724 -1.1940 -1.2855 -1.1866
18947TIP3    H278333   6.524   6.511  11.572  1.9856  0.4213 -1.2718
18948TIP3   OH278334   6.690   1.304  13.471 -0.0044 -0.0969  0.3169
18948TIP3    H178335   6.710   1.329  13.381 -0.8211  0.6926  0.3511
18948TIP3    H278336   6.759   1.243  13.495  0.7925  0.4765 -0.5009
18949TIP3   OH278337   6.351   2.129  16.272  0.2043  0.4292  0.4261
18949TIP3    H178338   6.263   2.158  16.297 -0.2339 -0.5339  0.0699
18949TIP3    H278339   6.373   2.061  16.337 -0.0934 -0.6382 -0.5747
18950TIP3   OH278340   2.825   0.296   3.638 -0.7990 -0.2197 -0.3499
18950TIP3    H178341   2.917   0.277   3.661 -0.1464  1.7286 -1.2658
18950TIP3    H278342   2.782   0.211   3.641  1.0010 -1.1384  0.3156
18951TIP3   OH278343   0.611   4.338  12.518 -1.1235  0.6764 -0.3419
18951TIP3    H178344   0.571   4.414  12.560  1.2872  1.3584  0.8006
18951TIP3    H278345   0.659   4.294  12.588  0.5080  0.1572 -1.7515
18952TIP3   OH278346   2.646   0.383  10.256  0.8329  0.0503 -0.8576
18952TIP3    H178347   2.676   0.472  10.236  1.3650  0.2300  0.6877
18952TIP3    H278348   2.651   0.337  10.172  1.1004  1.3252 -1.5559
18953TIP3   OH278349   3.308   2.721  12.703  0.6709 -0.5309  0.5774
18953TIP3    H178350   3.333   2.767  12.782  1.5094  0.6398 -0.3481
18953TIP3    H278351   3.227   2.764  12.675  0.9873 -0.1749  0.1914
18954TIP3   OH278352   1.809   3.406  13.700 -0.5147 -0.0776 -0.3898
18954TIP3    H178353   1.883   3.367  13.745 -1.2623 -1.8846 -0.6596
18954TIP3    H278354   1.839   3.493  13.674  1.3417 -0.6111 -0.1012
18955TIP3   OH278355   1.063   3.537  16.941 -0.1663  0.2974 -0.2816
18955TIP3    H178356   1.158   3.553  16.939 -0.1862  0.6074  0.9588
18955TIP3    H278357   1.055   3.442  16.934  0.2579  0.2284  0.1441
18956TIP3   OH278358   1.450   1.251  14.565  0.3870 -0.4275 -0.6287
18956TIP3    H178359   1.480   1.196  14.637  2.1942  0.4235 -0.7167
18956TIP3    H278360   1.503   1.225  14.490 -0.1188  0.0676 -1.1656
18957TIP3   OH278361   4.950   5.586   1.820  0.3400  0.0544 -0.1485
18957TIP3    H178362   4.945   5.581   1.725  0.9265  0.8914 -0.2249
18957TIP3    H278363   4.940   5.495   1.849 -0.8811 -0.0733 -0.9509
18958TIP3   OH278364   3.944   1.396  15.639 -0.4795 -0.4461 -0.1097
18958TIP3    H178365   4.038   1.381  15.625 -0.5382  1.9510 -3.8064
18958TIP3    H278366   3.935   1.491  15.642 -2.8785 -0.6346 -0.4439
18959TIP3   OH278367   6.699   2.555   4.052  0.2123 -0.1379  0.0761
18959TIP3    H178368   6.664   2.504   3.978  0.7598 -0.7901  0.2630
18959TIP3    H278369   6.654   2.520   4.129 -0.0949  0.3005  0.1015
18960TIP3   OH278370   3.336   5.904  15.453  0.1504  0.3050  0.5196
18960TIP3    H178371   3.304   5.816  15.434 -2.2328  1.3954 -0.6886
18960TIP3    H278372   3.261   5.950  15.491 -0.0344  3.1028 -2.9885
18961TIP3   OH278373   1.527   4.830   6.741 -0.4065 -0.6095  0.2620
18961TIP3    H178374   1.457   4.775   6.776  0.0425  0.4082  2.8785
18961TIP3    H278375   1.598   4.769   6.720 -0.3597 -1.1752  1.9880
18962TIP3   OH278376   5.786   2.631   4.382  0.3872 -0.2296  0.4040
18962TIP3    H178377   5.779   2.574   4.305 -3.0730 -0.3411  0.7264
18962TIP3    H278378   5.763   2.718   4.350  1.2627  0.1643  0.8358
18963TIP3   OH278379   5.846   5.764  15.600  0.5196  0.1999  0.2814
18963TIP3    H178380   5.832   5.670  15.594  1.0973  0.1349 -0.0885
18963TIP3    H278381   5.781   5.802  15.540 -0.0528  0.0694  0.8143
18964TIP3   OH278382   5.926   4.656   2.111 -0.8981 -0.3314 -0.3528
18964TIP3    H178383   5.856   4.697   2.161  0.0856 -0.1902  0.9258
18964TIP3    H278384   5.976   4.729   2.075 -0.4431 -0.4176  0.0990
18965TIP3   OH278385   6.788   3.644   3.603  0.8179 -0.5315 -0.2728
18965TIP3    H178386   6.723   3.694   3.652  1.6953  1.3229 -0.9366
18965TIP3    H278387   6.868   3.698   3.608  1.0134 -0.4409 -3.4299
18966TIP3   OH278388   1.846   1.077  15.916 -0.2051  1.1714  0.1446
18966TIP3    H178389   1.851   1.163  15.958 -1.4159  1.0494  0.5725
18966TIP3    H278390   1.790   1.025  15.974 -0.7283  0.5722 -0.8721
18967TIP3   OH278391   2.290   6.540   2.790 -0.4096  0.0521 -0.1140
18967TIP3    H178392   2.298   6.596   2.867 -1.0412 -1.2222  0.8986
18967TIP3    H278393   2.197   6.545   2.766 -0.8688 -2.0744  1.1592
18968TIP3   OH278394   1.130   0.300   0.356  0.3125 -0.2754  0.0353
18968TIP3    H178395   1.139   0.212   0.320 -1.4029 -1.2218  1.7619
18968TIP3    H278396   1.043   0.329   0.327 -0.5251 -0.5232  2.1695
18969TIP3   OH278397   1.480   2.208   3.131  0.2798 -0.3685 -0.1191
18969TIP3    H178398   1.423   2.212   3.054  0.8100  0.8605 -0.4511
18969TIP3    H278399   1.521   2.122   3.125 -2.0613 -1.5887  0.5072
18970TIP3   OH278400   3.614   0.863   3.137 -0.3766 -0.1894  0.2499
18970TIP3    H178401   3.544   0.927   3.127 -0.4900 -0.3351  0.1162
18970TIP3    H278402   3.585   0.786   3.088  0.1665 -0.0194 -0.3451
18971TIP3   OH278403   3.228   1.979   0.011  0.0042 -0.8508 -0.6413
18971TIP3    H178404   3.183   1.924   0.075  1.5034 -1.0692  0.2521
18971TIP3    H278405   3.229   1.926  -0.069 -1.0656 -0.9454 -0.6041
18972TIP3   OH278406   2.189   4.891   0.574  0.5927  0.0586  0.2719
18972TIP3    H178407   2.245   4.817   0.548  2.3170  1.0718  1.0500
18972TIP3    H278408   2.210   4.960   0.511  0.1228  0.3979  0.4857
18973TIP3   OH278409   1.177   3.904   3.961 -0.5262 -0.0042  0.3681
18973TIP3    H178410   1.179   3.948   4.046  2.1045 -0.8506  0.7878
18973TIP3    H278411   1.236   3.830   3.971 -0.7239 -0.5196 -1.9971
18974TIP3   OH278412   4.765   5.422  16.117  0.2364  0.1949  0.7514
18974TIP3    H178413   4.860   5.407  16.117  0.2931  0.0368 -2.6168
18974TIP3    H278414   4.755   5.508  16.076 -1.0730  0.2833  1.2316
18975TIP3   OH278415   6.051   5.550  16.185 -0.8026  0.1001 -0.4787
18975TIP3    H178416   6.009   5.628  16.150  0.4904  1.1576  0.2583
18975TIP3    H278417   6.142   5.555  16.153 -0.7911 -1.3039 -0.7380
18976TIP3   OH278418   2.755   6.719   0.434 -0.3148 -0.1212 -0.4015
18976TIP3    H178419   2.666   6.750   0.414 -0.3653  0.3277  0.4760
18976TIP3    H278420   2.811   6.795   0.417 -0.1347 -0.3110 -0.6541
18977TIP3   OH278421   4.863   4.746  17.033 -0.7085 -0.6877 -0.3087
18977TIP3    H178422   4.899   4.658  17.024  1.0056  0.0845 -1.1035
18977TIP3    H278423   4.876   4.787  16.947 -0.9168  0.5481  0.2324
18978TIP3   OH278424   4.556   6.799  15.421  0.3231 -0.0195  0.0907
18978TIP3    H178425   4.560   6.835  15.510 -1.4380  0.1998  0.0998
18978TIP3    H278426   4.621   6.728  15.421 -1.6672 -1.9473  2.4770
18979TIP3   OH278427   6.698   6.449   4.457 -0.0763 -0.4709 -0.1977
18979TIP3    H178428   6.766   6.402   4.407  0.1633 -0.8083  0.4419
18979TIP3    H278429   6.715   6.541   4.439  1.2208 -0.5050  0.8146
18980TIP3   OH278430   1.938   0.653  14.607  0.3512  0.2357  0.0237
18980TIP3    H178431   1.918   0.572  14.654 -0.4867 -0.7405 -1.9610
18980TIP3    H278432   1.993   0.703  14.667  1.4524 -2.1082  1.0302
18981TIP3   OH278433   0.987   5.428  11.661  0.1297  0.0612  0.0786
18981TIP3    H178434   0.928   5.484  11.611  0.7545  1.3498  0.7740
18981TIP3    H278435   0.929   5.366  11.706 -0.5948  0.4633 -0.2998
18982TIP3   OH278436   1.014   2.724  11.356 -0.0449 -0.0108 -0.0846
18982TIP3    H178437   1.037   2.654  11.294 -0.4669  0.0434 -0.3034
18982TIP3    H278438   1.085   2.788  11.347  0.1099 -0.1996 -0.2101
18983TIP3   OH278439   3.668   1.302   0.478  0.0572  0.4201 -0.0599
18983TIP3    H178440   3.687   1.392   0.504  0.0094  0.8578 -1.4959
18983TIP3    H278441   3.743   1.277   0.425 -0.2745 -0.1351 -0.2664
18984TIP3   OH278442   0.777   2.542   2.980 -0.1424  0.7211 -0.1977
18984TIP3    H178443   0.846   2.606   2.962  0.1751  0.3137 -0.4361
18984TIP3    H278444   0.789   2.518   3.072  1.0923 -0.6061 -0.6906
18985TIP3   OH278445   6.377   5.547  12.550 -0.4420 -0.2658 -0.2179
18985TIP3    H178446   6.410   5.457  12.548  0.2759  0.0049 -0.8071
18985TIP3    H278447   6.314   5.550  12.478 -1.2323 -0.5760  0.4483
18986TIP3   OH278448   3.923   4.017   4.995  0.1383  0.0520 -0.3043
18986TIP3    H178449   3.955   3.929   4.974 -0.1506 -0.1824  0.2554
18986TIP3    H278450   3.834   4.019   4.959  1.0182  0.9571 -2.5389
18987TIP3   OH278451   2.185   1.640  13.235  0.1715  0.8568 -0.5587
18987TIP3    H178452   2.150   1.627  13.323  1.6556  1.8295  0.1869
18987TIP3    H278453   2.149   1.567  13.184 -1.2415  0.6722  0.6768
18988TIP3   OH278454   2.308   6.608  16.966  0.3074  0.2412 -0.0673
18988TIP3    H178455   2.332   6.540  17.029  1.0294 -0.7332 -1.3682
18988TIP3    H278456   2.369   6.679  16.984  0.6518 -0.1130  0.1896
18989TIP3   OH278457   0.078   2.498   5.229 -1.0287  0.3218  0.0959
18989TIP3    H178458   0.000   2.506   5.285 -1.1046  1.0375 -0.1012
18989TIP3    H278459   0.113   2.587   5.225 -0.9386  0.2474 -0.8671
18990TIP3   OH278460   1.655   2.656  13.650  0.4886  0.1279 -0.5727
18990TIP3    H178461   1.703   2.574  13.667 -3.1019 -2.6731 -3.1951
18990TIP3    H278462   1.715   2.708  13.596  2.5225 -1.0865  0.4544
18991TIP3   OH278463   1.297   6.445   4.648 -0.0169  0.3408  0.1354
18991TIP3    H178464   1.213   6.465   4.607 -0.0078  1.4658  0.6551
18991TIP3    H278465   1.301   6.349   4.649 -0.8471  0.2870 -0.7867
18992TIP3   OH278466   4.127   4.841  13.253  0.3380 -0.2550 -0.0183
18992TIP3    H178467   4.222   4.848  13.249  0.3146 -0.1324 -0.4819
18992TIP3    H278468   4.097   4.873  13.167 -0.0450 -1.4654 -0.3475
18993TIP3   OH278469   3.576   1.412  16.871 -1.1493  0.5954 -0.5980
18993TIP3    H178470   3.547   1.335  16.823 -4.0715  0.5633  1.0625
18993TIP3    H278471   3.556   1.485  16.812  4.3175  0.0664 -3.4220
18994TIP3   OH278472   2.739   4.100  11.984 -0.1624  0.0791 -0.2893
18994TIP3    H178473   2.721   4.021  11.934  0.0579 -0.2726  0.1746
18994TIP3    H278474   2.834   4.108  11.982 -0.2483  0.9234 -1.2201
18995TIP3   OH278475   0.543   5.796   2.647  0.1758  0.6511 -0.2506
18995TIP3    H178476   0.567   5.730   2.712  0.1223  1.2360  0.3677
18995TIP3    H278477   0.461   5.764   2.610 -0.4688  0.9662  0.8944
18996TIP3   OH278478   0.363   1.887   1.330  0.2586 -0.1965  0.5737
18996TIP3    H178479   0.408   1.871   1.247 -0.3369  1.3279 -0.0715
18996TIP3    H278480   0.423   1.855   1.397  1.6298  0.4053 -0.3489
18997TIP3   OH278481   5.566   3.607  15.857 -0.6245 -0.7881  0.0683
18997TIP3    H178482   5.507   3.682  15.862  0.3023 -0.1490  1.9543
18997TIP3    H278483   5.521   3.537  15.904  0.0162 -0.3581  1.3391
18998TIP3   OH278484   6.326   0.690   6.367 -0.4901  0.3033  0.0781
18998TIP3    H178485   6.341   0.743   6.289  2.9140 -3.4284 -1.9574
18998TIP3    H278486   6.412   0.683   6.409 -1.2500 -1.9246  1.3701
18999TIP3   OH278487   1.525   6.620   5.798 -0.3652 -0.0096  0.4911
18999TIP3    H178488   1.553   6.592   5.711 -0.5149  1.6998 -0.1381
18999TIP3    H278489   1.590   6.583   5.858  0.3037 -0.3664 -0.4431
19000TIP3   OH278490   1.268   3.022   6.560 -0.4402  0.1570 -0.5492
19000TIP3    H178491   1.281   3.045   6.468  0.7617  2.1039  0.0752
19000TIP3    H278492   1.351   2.983   6.587 -0.6431 -0.0332 -0.2005
19001TIP3   OH278493   2.240   2.134   1.656 -0.3332  0.2509 -0.2857
19001TIP3    H178494   2.327   2.095   1.653 -0.6329 -0.6218  2.1058
19001TIP3    H278495   2.211   2.133   1.564  1.7202 -0.4257 -0.9603
19002TIP3   OH278496   0.823   1.842   4.556 -0.3054  0.6410  0.8636
19002TIP3    H178497   0.798   1.880   4.640  0.5207  0.6151  1.1265
19002TIP3    H278498   0.895   1.897   4.525 -1.9076  1.8627 -0.7858
19003TIP3   OH278499   1.693   3.720  10.550  0.1572 -0.0057  1.1017
19003TIP3    H178500   1.640   3.785  10.505 -0.7051 -2.0708 -0.9401
19003TIP3    H278501   1.780   3.759  10.555 -0.1985  1.0526 -0.6359
19004TIP3   OH278502   0.453   4.403  14.441 -0.1055  0.3328  0.0341
19004TIP3    H178503   0.419   4.326  14.395  1.5402 -0.3111 -0.1768
19004TIP3    H278504   0.497   4.453  14.373 -0.8000  1.2417  0.2554
19005TIP3   OH278505   5.612   2.534  14.171  0.0407  0.0874 -0.3435
19005TIP3    H178506   5.635   2.470  14.103  0.6579  1.5679 -1.5671
19005TIP3    H278507   5.571   2.606  14.123 -1.6162  0.1712  1.1349
19006TIP3   OH278508   5.496   5.378  11.815 -0.9625 -0.4958  0.0981
19006TIP3    H178509   5.584   5.380  11.854 -0.4875  0.6364 -1.0178
19006TIP3    H278510   5.481   5.286  11.795 -0.9517 -1.0284  2.3328
19007TIP3   OH278511   2.549   5.874   0.012 -0.1632  0.4245  0.1467
19007TIP3    H178512   2.559   5.880   0.107  0.4466  0.3968  0.0913
19007TIP3    H278513   2.457   5.891  -0.004 -0.5055 -0.6813  0.8391
19008TIP3   OH278514   0.835   2.544  16.379 -0.2017 -0.5672 -0.0877
19008TIP3    H178515   0.840   2.529  16.285  0.5771 -0.0403 -0.1368
19008TIP3    H278516   0.785   2.470  16.413 -1.2187 -0.3141 -1.0229
19009TIP3   OH278517   2.631   1.488   1.323 -0.2585 -0.7789 -0.1068
19009TIP3    H178518   2.719   1.471   1.290  0.0669 -0.4883  0.5851
19009TIP3    H278519   2.639   1.475   1.418 -0.8275 -0.2081  0.0188
19010TIP3   OH278520   3.275   2.383   2.399  0.0824  0.0232 -0.4713
19010TIP3    H178521   3.354   2.432   2.423  0.7357 -0.7070 -1.0878
19010TIP3    H278522   3.209   2.411   2.463  0.2671  2.1066 -1.1375
19011TIP3   OH278523   5.621   5.012   2.022  0.1940 -0.0627  0.1403
19011TIP3    H178524   5.605   4.943   1.958 -1.6799  0.3008  0.1850
19011TIP3    H278525   5.675   5.076   1.976 -1.2291  0.2439 -1.1099
19012TIP3   OH278526   4.602   5.834   2.525  0.1502  0.1797  0.1846
19012TIP3    H178527   4.564   5.748   2.545 -0.6444  0.9341  1.9355
19012TIP3    H278528   4.531   5.881   2.481 -0.2071  0.7824  1.3972
19013TIP3   OH278529   0.233   3.509   4.910  0.6369 -0.0455 -0.0208
19013TIP3    H178530   0.254   3.588   4.960  1.1935  0.2562 -0.7337
19013TIP3    H278531   0.173   3.538   4.842  0.3790 -0.3395  0.0824
19014TIP3   OH278532   0.422   4.202  10.733 -0.0221  0.4767  0.2361
19014TIP3    H178533   0.350   4.225  10.675 -1.2150  1.3388  2.0013
19014TIP3    H278534   0.440   4.282  10.783  2.4166  0.3777 -0.4362
19015TIP3   OH278535   1.563   0.646  13.473 -0.0341 -0.4045 -1.3830
19015TIP3    H178536   1.658   0.650  13.465 -0.0677 -1.5477 -2.5819
19015TIP3    H278537   1.535   0.597  13.396 -1.3119 -2.8192  0.5463
19016TIP3   OH278538   3.516   6.178   4.863 -0.3141  0.7044 -0.0632
19016TIP3    H178539   3.548   6.267   4.853  0.9791  0.2963  0.3651
19016TIP3    H278540   3.590   6.122   4.839 -1.2939 -0.2693 -0.9252
19017TIP3   OH278541   5.034   4.865   2.525 -0.1194  0.2623 -0.1221
19017TIP3    H178542   5.118   4.828   2.551 -0.6658 -0.4379  0.6898
19017TIP3    H278543   5.029   4.849   2.431 -0.6353 -2.3744  0.3253
19018TIP3   OH278544   5.409   5.369  15.867 -0.3584  0.5899  0.4824
19018TIP3    H178545   5.441   5.390  15.779 -3.3791 -0.6310 -0.9545
19018TIP3    H278546   5.443   5.281  15.884  0.5601  0.9829  0.7315
19019TIP3   OH278547   0.102   4.678   2.013 -0.3452  0.1301 -0.3879
19019TIP3    H178548   0.137   4.759   1.977  0.4761 -0.2416 -0.4542
19019TIP3    H278549   0.097   4.694   2.107  0.9705 -0.1568 -0.2607
19020TIP3   OH278550   0.619   5.548  11.028 -0.3422  0.1943  0.4363
19020TIP3    H178551   0.614   5.453  11.038  0.5229  0.0297 -0.5484
19020TIP3    H278552   0.645   5.561  10.936 -0.5131  1.3770  0.5494
19021TIP3   OH278553   3.660   6.351   2.563 -0.2336 -0.9087 -0.0120
19021TIP3    H178554   3.627   6.297   2.491 -0.3311  0.2078 -0.8083
19021TIP3    H278555   3.727   6.406   2.523  1.4485 -1.9778  1.2535
19022TIP3   OH278556   4.972   1.072   1.034  0.2219  0.2356  0.3100
19022TIP3    H178557   5.041   1.118   0.987 -0.0057  0.4502  0.1866
19022TIP3    H278558   4.940   1.007   0.972 -0.9872  1.3997 -0.3003
19023TIP3   OH278559   3.447   0.947   5.397  0.7418  0.1450 -0.0598
19023TIP3    H178560   3.481   0.872   5.446 -2.5316 -0.4337  1.4381
19023TIP3    H278561   3.496   1.022   5.431  2.0805 -0.9182  0.4108
19024TIP3   OH278562   1.734   0.608  15.926  0.0404  0.0844 -0.0142
19024TIP3    H178563   1.780   0.689  15.909  0.9047 -0.3503  0.2456
19024TIP3    H278564   1.665   0.632  15.987 -0.7505  0.9330 -1.2115
19025TIP3   OH278565   1.934   5.234  12.040 -0.1549  0.9016  0.1564
19025TIP3    H178566   1.877   5.199  12.108  0.2234  0.6881  0.3625
19025TIP3    H278567   1.912   5.327  12.036  0.3200  1.0664  1.0761
19026TIP3   OH278568   5.368   3.530  11.960 -0.2987  0.3523  0.3322
19026TIP3    H178569   5.311   3.545  11.885  0.2453 -1.6877 -0.5246
19026TIP3    H278570   5.371   3.435  11.969  1.7202  0.4876  1.3302
19027TIP3   OH278571   3.602   5.477   5.183 -0.1036  0.0798 -0.0228
19027TIP3    H178572   3.556   5.408   5.134  1.5721 -0.0611 -1.4365
19027TIP3    H278573   3.651   5.431   5.250  0.3773 -0.0403 -0.4549
19028TIP3   OH278574   1.043   3.624   4.173 -0.2870  0.2535  0.2512
19028TIP3    H178575   0.989   3.691   4.131  1.6946  1.6832 -0.1454
19028TIP3    H278576   1.071   3.567   4.101  0.2681  0.6435  0.1531
19029TIP3   OH278577   0.467   3.030  11.168  0.2838 -0.0836  0.2076
19029TIP3    H178578   0.375   3.033  11.143 -0.0464  1.5620  1.4836
19029TIP3    H278579   0.515   3.052  11.088 -0.4240 -1.0308 -0.4802
19030TIP3   OH278580   2.119   5.979  16.326  0.4285  0.3142 -0.5258
19030TIP3    H178581   2.169   6.031  16.262  0.2043  1.1866 -0.0071
19030TIP3    H278582   2.044   5.947  16.277  0.5771  0.4684 -0.8575
19031TIP3   OH278583   1.024   2.486   1.740 -0.2497 -0.2809  0.6235
19031TIP3    H178584   1.011   2.410   1.797  0.4587 -0.7647  0.1543
19031TIP3    H278585   1.099   2.531   1.778 -0.9000  0.3942  1.1164
19032TIP3   OH278586   0.939   1.564  15.335  0.2882  0.4061  0.3505
19032TIP3    H178587   0.925   1.515  15.415  0.5986 -0.3009 -0.0181
19032TIP3    H278588   1.034   1.576  15.331  0.2503  0.6635  0.2246
19033TIP3   OH278589   1.447   4.921  12.781  0.0393 -0.1356  0.2668
19033TIP3    H178590   1.445   4.973  12.861  0.5797  0.5700 -0.1675
19033TIP3    H278591   1.385   4.964  12.722 -1.3971 -1.4595  0.7786
19034TIP3   OH278592   0.965   4.733   3.184  0.3528  0.8804 -0.7675
19034TIP3    H178593   1.041   4.768   3.231  0.7937 -1.3886  0.2894
19034TIP3    H278594   0.899   4.720   3.251 -0.5421  1.6685 -1.4862
19035TIP3   OH278595   4.600   6.133  16.572  0.4437 -0.4218 -0.0283
19035TIP3    H178596   4.560   6.137  16.485 -0.8433 -1.0961  0.5272
19035TIP3    H278597   4.550   6.197  16.624  1.1787 -0.0522  0.2246
19036TIP3   OH278598   1.549   2.886  12.633  0.0070  0.4140  0.2808
19036TIP3    H178599   1.524   2.978  12.638 -0.0724  0.4687 -0.9988
19036TIP3    H278600   1.468   2.839  12.617  0.1034  0.1575  0.5334
19037TIP3   OH278601   3.809   5.459  15.325 -0.3688  0.0836 -0.1339
19037TIP3    H178602   3.774   5.532  15.275 -2.7947 -0.8283  0.1460
19037TIP3    H278603   3.807   5.488  15.416  0.0916  0.1985 -0.1547
19038TIP3   OH278604   6.221   2.175   5.085  0.6034  0.7852  0.4408
19038TIP3    H178605   6.272   2.105   5.045  1.8545  1.7466  0.3233
19038TIP3    H278606   6.261   2.188   5.171 -1.3104 -0.4451  1.5544
19039TIP3   OH278607   4.978   4.933   2.935  0.5855 -0.0475 -0.7265
19039TIP3    H178608   4.940   4.858   2.982  1.5312 -0.8364 -1.2090
19039TIP3    H278609   4.924   4.942   2.856 -0.0303  0.2939 -0.2702
19040TIP3   OH278610   2.373   6.413   4.935 -0.4763  0.5202 -0.6863
19040TIP3    H178611   2.371   6.334   4.988 -0.2136  0.5553 -0.6273
19040TIP3    H278612   2.324   6.477   4.986 -1.1135  0.2536 -0.9568
19041TIP3   OH278613   4.118   0.792  15.596  0.0542 -0.5812  0.1269
19041TIP3    H178614   4.158   0.819  15.513  0.2079  0.3737  0.5163
19041TIP3    H278615   4.030   0.762  15.571  0.5005 -1.3650 -0.5357
19042TIP3   OH278616   0.598   6.444   1.507  0.2464 -0.1660  0.4628
19042TIP3    H178617   0.524   6.382   1.502 -0.6038  0.8277  0.6194
19042TIP3    H278618   0.621   6.459   1.415 -0.3807  0.2701  0.3726
19043TIP3   OH278619   3.687   1.027  13.992  0.3760 -0.1573 -0.3246
19043TIP3    H178620   3.655   0.982  13.914 -0.1076  0.9505 -0.7724
19043TIP3    H278621   3.713   1.113  13.961  0.4308  0.1992  0.6889
19044TIP3   OH278622   6.207   3.971   4.838  0.1037  0.3310  0.3195
19044TIP3    H178623   6.281   3.949   4.895 -0.4218 -0.1331  0.8366
19044TIP3    H278624   6.243   3.970   4.750  0.6740 -0.0969  0.5543
19045TIP3   OH278625   3.670   2.293   3.263 -0.5828 -0.4902  0.4063
19045TIP3    H178626   3.682   2.207   3.222  0.4484  0.2136 -0.8210
19045TIP3    H278627   3.686   2.277   3.356 -1.6634 -1.8716  0.3778
19046TIP3   OH278628   1.658   2.770  11.248  0.4670  0.0881  0.5623
19046TIP3    H178629   1.737   2.716  11.256 -0.6314 -1.9415 -1.6407
19046TIP3    H278630   1.601   2.721  11.189 -0.2265  4.0911 -2.3012
19047TIP3   OH278631   2.357   2.879   5.632  0.2724 -0.1799  0.3286
19047TIP3    H178632   2.327   2.789   5.645 -0.5910 -0.1045 -1.0135
19047TIP3    H278633   2.379   2.883   5.539  1.1419  0.7536  0.5649
19048TIP3   OH278634   6.076   5.454   3.835 -0.1559  0.2464 -0.3437
19048TIP3    H178635   6.107   5.434   3.924 -0.4171  0.0820 -0.2888
19048TIP3    H278636   6.019   5.380   3.812  1.0091 -0.3977 -1.1956
19049TIP3   OH278637   3.495   0.446   3.894  0.3822 -0.1920 -0.4556
19049TIP3    H178638   3.439   0.399   3.957  2.1748 -2.1998 -0.2919
19049TIP3    H278639   3.437   0.466   3.821 -1.6015  1.6728  1.5550
19050TIP3   OH278640   6.575   4.513   0.929 -0.4416 -0.1932 -0.0281
19050TIP3    H178641   6.610   4.559   0.853 -1.9737  0.3256 -0.4285
19050TIP3    H278642   6.521   4.443   0.892  1.3689 -1.9643  0.5766
19051TIP3   OH278643   4.648   4.740   1.406  0.9949 -0.1404  0.2633
19051TIP3    H178644   4.681   4.689   1.332  3.4773  1.2113  0.4177
19051TIP3    H278645   4.703   4.713   1.479 -1.2453 -1.2366  1.6027
19052TIP3   OH278646   2.180   3.766   0.347 -0.2931  0.0269 -0.0936
19052TIP3    H178647   2.251   3.820   0.311 -1.9688  2.5718  0.2656
19052TIP3    H278648   2.218   3.722   0.423  0.3022  3.2617  1.5557
19053TIP3   OH278649   2.458   0.618   0.616  0.5216 -0.0656  0.1054
19053TIP3    H178650   2.526   0.681   0.637 -0.9816  0.5128  3.6636
19053TIP3    H278651   2.385   0.672   0.584  0.5343 -0.3405 -0.3823
19054TIP3   OH278652   0.286   2.858   1.094 -0.0843  0.1815 -0.3824
19054TIP3    H178653   0.222   2.930   1.089  0.2788  0.7260  2.1585
19054TIP3    H278654   0.330   2.860   1.009 -0.8720  2.2388 -0.7938
19055TIP3   OH278655   6.648   5.233  16.498 -0.3244  0.3296 -0.2863
19055TIP3    H178656   6.640   5.328  16.511  0.1820  0.2685  0.5050
19055TIP3    H278657   6.562   5.199  16.523 -1.0346  0.7282 -2.1167
19056TIP3   OH278658   2.563   4.037  13.066  0.2277  0.9305  0.1591
19056TIP3    H178659   2.517   4.113  13.031 -1.7312 -0.1492  0.2793
19056TIP3    H278660   2.540   4.034  13.158 -0.9017 -0.5854 -0.1342
19057TIP3   OH278661   2.748   6.396   0.649 -0.1173  0.1613  0.3927
19057TIP3    H178662   2.692   6.320   0.658  1.5293 -1.3044 -1.1915
19057TIP3    H278663   2.738   6.422   0.557  0.0792  1.2507  0.6754
19058TIP3   OH278664   0.546   2.620   4.916  0.1277 -0.0549 -0.7026
19058TIP3    H178665   0.616   2.685   4.913  1.6986 -1.6860 -0.2710
19058TIP3    H278666   0.530   2.607   5.010 -1.0129  0.5637 -0.8019
19059TIP3   OH278667   6.661   0.994   0.386  0.2458  0.1199 -0.1058
19059TIP3    H178668   6.736   1.054   0.387  0.2200  0.1357  0.7187
19059TIP3    H278669   6.592   1.041   0.432 -0.2133  0.0219 -0.6877
19060TIP3   OH278670   0.747   4.184  16.908 -0.5812 -0.1486  0.3304
19060TIP3    H178671   0.810   4.140  16.964  2.3030  0.4919 -2.2985
19060TIP3    H278672   0.665   4.137  16.922  0.5416 -1.2988  3.4614
19061TIP3   OH278673   6.223   4.406   0.515 -0.6746  0.2594  0.4747
19061TIP3    H178674   6.243   4.447   0.431  0.7168 -1.2120  0.0488
19061TIP3    H278675   6.284   4.446   0.577 -0.1909 -0.2177  0.3168
19062TIP3   OH278676   6.765   0.835   5.902 -0.0290 -0.0814 -0.0019
19062TIP3    H178677   6.797   0.883   5.825  2.4156 -1.6658 -0.0461
19062TIP3    H278678   6.726   0.755   5.867 -1.7923  0.6585  0.2311
19063TIP3   OH278679   4.059   1.211   2.826  0.1460  0.0585 -0.4663
19063TIP3    H178680   4.040   1.117   2.828  0.6801 -0.0859 -1.5454
19063TIP3    H278681   4.003   1.244   2.755 -0.8666  0.7553  0.6418
19064TIP3   OH278682   3.261   6.400  16.900 -0.5299 -0.4042 -0.1699
19064TIP3    H178683   3.310   6.318  16.900 -0.5371 -0.4092 -1.3301
19064TIP3    H278684   3.300   6.452  16.830 -0.2992  0.7258  0.7877
19065TIP3   OH278685   1.980   1.651   0.016 -0.3459  0.4700 -0.1034
19065TIP3    H178686   1.956   1.564  -0.017 -2.7670  1.6245 -1.5066
19065TIP3    H278687   1.938   1.657   0.102  0.6149 -0.0899  0.4138
19066TIP3   OH278688   4.763   6.545  12.331  0.5788 -0.6485  0.1196
19066TIP3    H178689   4.742   6.517  12.420  2.1323 -1.5859  0.2026
19066TIP3    H278690   4.840   6.494  12.307  1.3880  1.0516 -1.0125
19067TIP3   OH278691   5.835   0.888  14.248  0.0379  0.1037  0.3457
19067TIP3    H178692   5.824   0.894  14.343  1.1495  1.7167  0.3868
19067TIP3    H278693   5.871   0.973  14.222 -0.8946 -0.0717 -1.6163
19068TIP3   OH278694   2.102   1.212   0.666  0.7441 -0.1503 -0.0644
19068TIP3    H178695   2.094   1.155   0.589  0.3619 -0.8151  0.4724
19068TIP3    H278696   2.045   1.286   0.647  1.9051  0.5045 -1.1563
19069TIP3   OH278697   5.801   6.499   1.319  0.1154 -0.3354 -0.2543
19069TIP3    H178698   5.793   6.537   1.232 -1.0966 -2.1739 -0.9656
19069TIP3    H278699   5.730   6.541   1.369  1.7229  1.8274  0.3119
19070TIP3   OH278700   4.175   1.504  13.830  0.1355 -0.0780  0.0235
19070TIP3    H178701   4.249   1.471  13.780  0.4905 -0.2432  0.6431
19070TIP3    H278702   4.102   1.506  13.768  0.4349 -0.7736 -0.3542
19071TIP3   OH278703   2.160   4.322   1.241 -0.2504 -0.5470 -0.6520
19071TIP3    H178704   2.215   4.384   1.193  0.1743  0.7136  1.3829
19071TIP3    H278705   2.071   4.354   1.230  0.1508  1.6737  2.0710
19072TIP3   OH278706   2.093   1.441   4.283 -0.7259 -0.6171 -0.1210
19072TIP3    H178707   2.045   1.457   4.364 -0.2878  0.4438 -0.0532
19072TIP3    H278708   2.063   1.355   4.253 -1.0801 -0.8919  1.0218
19073TIP3   OH278709   3.709   0.658  13.433 -0.2491 -0.3517 -0.3553
19073TIP3    H178710   3.649   0.596  13.473 -0.6295 -1.0610 -2.0131
19073TIP3    H278711   3.658   0.739  13.425  0.3219  0.2912  2.0282
19074TIP3   OH278712   5.277   4.145   0.961 -0.0437 -0.1641  0.0474
19074TIP3    H178713   5.248   4.084   1.029 -1.6489  0.1636 -0.3177
19074TIP3    H278714   5.252   4.103   0.879 -1.2559  1.0132 -0.2014
19075TIP3   OH278715   1.322   2.889  12.879  0.2877  0.4821  0.3515
19075TIP3    H178716   1.308   2.936  12.797  0.4698 -1.2819 -0.7225
19075TIP3    H278717   1.377   2.947  12.931  0.3219  1.5513 -0.8590
19076TIP3   OH278718   6.340   1.199  12.017  0.1731  0.6226  0.4396
19076TIP3    H178719   6.372   1.285  12.042 -1.3613  0.9717  1.2606
19076TIP3    H278720   6.261   1.186  12.069  0.1047 -1.0736 -0.0325
19077TIP3   OH278721   6.783   5.333  13.509  0.4225 -0.4455 -0.3037
19077TIP3    H178722   6.812   5.407  13.562 -1.1002 -1.1701  1.6365
19077TIP3    H278723   6.713   5.369  13.453  2.2221  0.3823 -2.0788
19078TIP3   OH278724   2.837   4.361  15.278 -0.2115 -0.2493  0.0434
19078TIP3    H178725   2.771   4.314  15.227 -1.9588  1.0438  1.0526
19078TIP3    H278726   2.861   4.301  15.348 -1.3438 -0.2268  0.4638
19079TIP3   OH278727   2.550   5.633  10.303 -0.0332  0.5014 -0.4370
19079TIP3    H178728   2.460   5.646  10.332 -0.1390  0.9263 -0.9505
19079TIP3    H278729   2.578   5.719  10.273  0.1506  0.1211 -1.3792
19080TIP3   OH278730   6.029   3.548  11.691  0.1060 -0.3199  0.1605
19080TIP3    H178731   6.035   3.487  11.618  0.3509  1.8829 -1.6994
19080TIP3    H278732   6.098   3.612  11.676 -0.8925  1.1104  1.4192
19081TIP3   OH278733   0.154   2.565   3.921 -0.3377  0.1278  0.1758
19081TIP3    H178734   0.071   2.560   3.969 -0.5647 -0.5660 -0.2894
19081TIP3    H278735   0.152   2.491   3.861  0.0387  0.8754 -0.7700
19082TIP3   OH278736   4.793   0.152   2.480  0.2266  0.2564 -0.1021
19082TIP3    H178737   4.807   0.064   2.445  3.3150  0.5942  0.1071
19082TIP3    H278738   4.784   0.139   2.575  0.0886  0.0983 -0.1379
19083TIP3   OH278739   6.815   4.370  13.288  0.0458  0.0641 -0.2168
19083TIP3    H178740   6.870   4.298  13.318  0.0004 -0.0413 -0.3782
19083TIP3    H278741   6.781   4.410  13.367 -0.3087 -0.3939 -0.1320
19084TIP3   OH278742   5.288   5.036   5.766  0.7475  0.0778 -0.4534
19084TIP3    H178743   5.192   5.038   5.760  0.6344  3.0927  1.2357
19084TIP3    H278744   5.318   5.044   5.676 -0.6257  1.6323 -0.7943
19085TIP3   OH278745   5.640   1.012  13.229 -0.1383  0.5100 -0.8232
19085TIP3    H178746   5.720   1.006  13.177 -1.1997 -1.4869 -2.2555
19085TIP3    H278747   5.671   1.030  13.318  1.7531  2.7370 -1.8608
19086TIP3   OH278748   4.827   0.464   2.908  0.0968  0.8972 -0.2582
19086TIP3    H178749   4.777   0.545   2.921 -1.4570  0.0343 -0.7757
19086TIP3    H278750   4.861   0.472   2.818  2.0349  2.0706  0.5309
19087TIP3   OH278751   0.428   6.374   4.907 -0.4286 -0.0570 -0.1290
19087TIP3    H178752   0.400   6.403   4.820 -0.4196  0.9809  0.2041
19087TIP3    H278753   0.350   6.382   4.962 -0.3542 -0.4013  0.0257
19088TIP3   OH278754   1.582   5.400  14.463 -0.0270  0.5354  0.0695
19088TIP3    H178755   1.549   5.386  14.551 -2.1256 -1.1067 -0.9528
19088TIP3    H278756   1.677   5.406  14.474 -0.1021 -1.4583  2.2201
19089TIP3   OH278757   3.719   1.560   0.588 -0.3368  0.1861  0.7994
19089TIP3    H178758   3.648   1.544   0.650  0.3388  1.3312  1.8822
19089TIP3    H278759   3.721   1.655   0.578 -0.8254 -0.0091 -1.4576
19090TIP3   OH278760   2.595   3.920   1.392  0.3242 -0.8960  0.1254
19090TIP3    H178761   2.543   3.976   1.335  0.5596 -1.6522 -0.8392
19090TIP3    H278762   2.551   3.836   1.390  1.3389 -1.4268 -0.3801
19091TIP3   OH278763   2.638   4.682  12.842  0.2937  0.4034  0.0444
19091TIP3    H178764   2.576   4.740  12.798 -0.2268  1.8110  2.5403
19091TIP3    H278765   2.722   4.727  12.836  0.4395  0.0662 -0.4656
19092TIP3   OH278766   2.873   2.463  13.503  0.8567 -0.1914  0.1081
19092TIP3    H178767   2.892   2.371  13.524 -1.0202 -1.0556 -1.7652
19092TIP3    H278768   2.932   2.513  13.559  3.3843 -2.5715 -0.3365
19093TIP3   OH278769   3.983   3.249  14.086 -0.9216 -0.5694  0.1963
19093TIP3    H178770   4.009   3.338  14.062  0.6798 -1.1915 -0.4529
19093TIP3    H278771   3.888   3.248  14.073 -1.1302  1.3772  1.3538
19094TIP3   OH278772   2.044   1.415  12.796  0.6532 -0.6074 -0.6284
19094TIP3    H178773   1.980   1.485  12.782  1.0332 -0.2270 -0.4913
19094TIP3    H278774   1.992   1.339  12.821  0.3500  0.0538  0.8198
19095TIP3   OH278775   3.798   3.321  13.224  0.0636 -0.4074  0.3238
19095TIP3    H178776   3.724   3.379  13.240  1.4902  1.6419 -0.1563
19095TIP3    H278777   3.851   3.328  13.304  0.3063 -0.9374  0.2079
19096TIP3   OH278778   5.544   0.554   0.716  0.6576  0.4235  0.0606
19096TIP3    H178779   5.497   0.637   0.710  0.3750  0.0653 -4.2754
19096TIP3    H278780   5.478   0.487   0.696  1.6101 -0.5769  0.1848
19097TIP3   OH278781   2.239   6.782   0.589 -0.0257 -0.5891 -0.3154
19097TIP3    H178782   2.166   6.840   0.568 -0.3886 -0.8822  0.1468
19097TIP3    H278783   2.307   6.805   0.525 -0.1021  0.4642 -0.0145
19098TIP3   OH278784   1.569   3.384  11.975  0.6017  1.2298  0.1873
19098TIP3    H178785   1.528   3.461  12.014 -0.7764  0.4406  0.3412
19098TIP3    H278786   1.497   3.338  11.933  1.4115  0.0288  0.0938
19099TIP3   OH278787   4.094   1.790  12.202 -0.7019  0.2559 -0.5087
19099TIP3    H178788   4.058   1.756  12.283  0.0740 -1.3853 -0.8358
19099TIP3    H278789   4.027   1.773  12.136 -1.7098  2.3983 -0.0690
19100TIP3   OH278790   5.591   4.563   5.811  0.2933  0.0660  0.0781
19100TIP3    H178791   5.567   4.641   5.861 -0.3112  1.0799 -1.7518
19100TIP3    H278792   5.556   4.579   5.723  2.6470 -1.0133 -1.0918
19101TIP3   OH278793   0.580   2.141  14.026  0.2843 -0.3121 -0.1456
19101TIP3    H178794   0.618   2.093  14.099  1.5670  0.6593 -0.1571
19101TIP3    H278795   0.579   2.078  13.953  0.7694 -0.7008  0.1853
19102TIP3   OH278796   5.022   6.549  13.484 -0.6790  1.0402  0.0951
19102TIP3    H178797   5.114   6.528  13.468 -1.0957  0.3267 -1.4117
19102TIP3    H278798   5.002   6.509  13.569  0.2906  0.8680  0.2452
19103TIP3   OH278799   3.005   4.636  15.544  0.4488  0.0102  0.0913
19103TIP3    H178800   2.993   4.543  15.523  0.0835  0.2547 -0.8453
19103TIP3    H278801   2.939   4.654  15.611 -0.9636  0.0899 -1.2688
19104TIP3   OH278802   2.394   1.686   0.724  0.2826 -0.0650  0.7591
19104TIP3    H178803   2.458   1.755   0.736 -1.1484  1.6070 -0.7430
19104TIP3    H278804   2.317   1.715   0.773 -0.9350  0.3383 -1.2784
19105TIP3   OH278805   6.655   4.229   3.872 -0.9068 -0.0427 -0.0940
19105TIP3    H178806   6.695   4.217   3.959  1.3936 -1.9158 -1.3369
19105TIP3    H278807   6.590   4.298   3.884 -1.5497 -1.1459  3.4176
19106TIP3   OH278808   1.110   6.499   0.077  0.6427 -0.1720 -0.4004
19106TIP3    H178809   1.143   6.428   0.022  0.7916 -1.5182  1.3963
19106TIP3    H278810   1.047   6.457   0.135  0.1797  1.3098  0.1725
19107TIP3   OH278811   4.587   4.694   0.449 -0.1838 -0.3325  0.2106
19107TIP3    H178812   4.669   4.701   0.499  0.1730 -0.2998 -0.3671
19107TIP3    H278813   4.603   4.746   0.370 -0.0932 -1.8315 -0.7701
19108TIP3   OH278814   3.528   0.992   4.932 -0.0890  0.0188 -0.3306
19108TIP3    H178815   3.571   0.942   5.001 -1.9588 -0.1074  0.7754
19108TIP3    H278816   3.528   1.082   4.964 -0.9309 -0.0321 -0.1800
19109TIP3   OH278817   4.511   5.760  11.192  0.2086 -0.1679 -0.2155
19109TIP3    H178818   4.515   5.824  11.263  1.0258  0.1580 -0.5498
19109TIP3    H278819   4.420   5.761  11.164  0.1842  0.7312 -0.1141
19110TIP3   OH278820   1.822   5.660   0.804 -0.3371  0.2346  0.2967
19110TIP3    H178821   1.903   5.617   0.832 -1.0886 -0.8103  0.8796
19110TIP3    H278822   1.838   5.753   0.821  0.1311 -0.1308  1.9545
19111TIP3   OH278823   0.971   6.270  14.474  0.3169 -0.3037 -0.7601
19111TIP3    H178824   0.876   6.272  14.463  0.3055  1.4462 -0.5203
19111TIP3    H278825   0.985   6.246  14.565  0.1290 -1.4041 -1.0159
19112TIP3   OH278826   3.035   4.772  11.111  0.1212  0.0119  0.1470
19112TIP3    H178827   3.110   4.728  11.152  0.5518  0.3055 -0.3063
19112TIP3    H278828   2.980   4.701  11.078 -0.0064 -0.2153  0.8451
19113TIP3   OH278829   2.536   1.906  15.379 -0.9172  0.4987 -0.5605
19113TIP3    H178830   2.615   1.917  15.432 -0.8781  2.7280 -1.0303
19113TIP3    H278831   2.564   1.852  15.305  0.9962  3.6523 -2.2910
19114TIP3   OH278832   1.201   6.311  17.206 -0.7326  0.1322 -0.4336
19114TIP3    H178833   1.195   6.339  17.115 -1.6252 -1.1599 -0.7872
19114TIP3    H278834   1.244   6.226  17.203 -1.1052 -0.0905  0.3086
19115TIP3   OH278835   1.545   0.950   1.072 -0.2746 -0.1501  0.0167
19115TIP3    H178836   1.466   0.985   1.113 -0.9164  0.6223 -1.8563
19115TIP3    H278837   1.617   0.993   1.119 -0.9950  0.2278  0.7804
19116TIP3   OH278838   0.571   2.336   5.270 -0.1340  0.2996 -0.3632
19116TIP3    H178839   0.521   2.264   5.307 -0.0354  1.0016  1.1784
19116TIP3    H278840   0.650   2.295   5.234 -0.8026 -0.5414 -0.8802
19117TIP3   OH278841   2.787   4.886  12.580 -0.2817 -0.2581 -0.0338
19117TIP3    H178842   2.781   4.791  12.571  0.2250 -0.4504  1.5024
19117TIP3    H278843   2.719   4.920  12.523 -1.1213 -1.5787  0.1671
19118TIP3   OH278844   1.612   4.648  14.430  0.2707  0.3489 -0.1188
19118TIP3    H178845   1.645   4.562  14.404 -1.5299 -0.5981  0.5752
19118TIP3    H278846   1.534   4.661  14.375  1.7849  2.5696 -1.8070
19119TIP3   OH278847   5.643   6.676   3.664 -0.4594 -0.0627 -0.4423
19119TIP3    H178848   5.678   6.588   3.652 -1.0100 -0.3065 -0.2771
19119TIP3    H278849   5.557   6.674   3.621 -0.3496  0.4779 -0.6919
19120TIP3   OH278850   3.271   4.115   5.843  0.8645  0.1851  0.3753
19120TIP3    H178851   3.215   4.039   5.863 -2.0880  1.9297 -0.9198
19120TIP3    H278852   3.276   4.163   5.926 -1.8604  1.4157 -0.1126
19121TIP3   OH278853   4.889   5.877  12.395  0.1113  0.2468  0.8175
19121TIP3    H178854   4.856   5.960  12.428  0.7877  1.4988 -1.5953
19121TIP3    H278855   4.939   5.840  12.468 -1.2910  1.3052  2.3431
19122TIP3   OH278856   2.519   1.284  12.806  0.9972 -0.0811 -0.2687
19122TIP3    H178857   2.446   1.327  12.849 -0.2606 -0.4567 -1.9668
19122TIP3    H278858   2.510   1.192  12.832  0.6138 -0.1993 -0.8185
19123TIP3   OH278859   2.860   0.411   3.381 -0.7784  0.2605  0.0380
19123TIP3    H178860   2.908   0.328   3.385 -0.3553  0.3421 -2.3750
19123TIP3    H278861   2.805   0.411   3.459 -0.3867 -2.0457  0.3501
19124TIP3   OH278862   2.924   1.970   2.625  0.2221 -0.4935 -0.4519
19124TIP3    H178863   2.852   2.029   2.602  0.3038 -0.2015  0.0363
19124TIP3    H278864   3.003   2.014   2.593  0.2590 -0.4534 -0.3060
19125TIP3   OH278865   2.474   1.357   5.907  0.2440  0.3421 -0.6370
19125TIP3    H178866   2.432   1.274   5.931  0.2638  1.2657  2.8875
19125TIP3    H278867   2.565   1.347   5.933  0.3839  1.2043 -0.7701
19126TIP3   OH278868   6.463   0.210   2.956 -0.1045  0.0235  0.3077
19126TIP3    H178869   6.406   0.277   2.920 -0.5509  0.6136  2.0473
19126TIP3    H278870   6.412   0.171   3.028 -0.4961 -3.2685 -1.6229
19127TIP3   OH278871   4.756   6.468   0.535 -0.0328 -0.4311  0.1951
19127TIP3    H178872   4.780   6.514   0.455  0.4192 -0.9869  0.0053
19127TIP3    H278873   4.667   6.498   0.554 -1.3492 -2.5460 -2.2248
19128TIP3   OH278874   1.573   5.782   0.118 -0.0534 -0.3714 -0.8176
19128TIP3    H178875   1.580   5.751   0.027  1.2675  1.2207 -1.2871
19128TIP3    H278876   1.590   5.876   0.112  0.0559 -0.2576  1.0979
19129TIP3   OH278877   4.401   1.868   3.596  0.1028  0.0002  0.6195
19129TIP3    H178878   4.481   1.816   3.603  0.9621  1.3028  0.6046
19129TIP3    H278879   4.412   1.938   3.660 -0.3004  1.1367 -0.5281
19130TIP3   OH278880   5.393   0.479   3.846  0.0311 -0.6872 -0.1680
19130TIP3    H178881   5.360   0.435   3.768  1.0021 -0.2843 -0.8168
19130TIP3    H278882   5.479   0.439   3.863  0.3779  0.0852 -0.0467
19131TIP3   OH278883   3.159   3.659   3.044  0.0755  0.6485  0.4643
19131TIP3    H178884   3.180   3.734   2.988  0.4639 -0.0489 -0.3369
19131TIP3    H278885   3.133   3.698   3.127  0.9614  1.6463  0.2863
19132TIP3   OH278886   6.047   4.321  11.876  0.0369  0.4172  0.1026
19132TIP3    H178887   6.019   4.233  11.852 -0.2646  0.7032 -0.6067
19132TIP3    H278888   5.965   4.371  11.883  0.2285  0.7259  0.1656
19133TIP3   OH278889   6.473   5.724   4.798 -0.2851  0.1411 -0.2042
19133TIP3    H178890   6.565   5.731   4.772 -0.1729 -2.0564 -0.4533
19133TIP3    H278891   6.474   5.744   4.892  0.6953 -1.5830  0.1676
19134TIP3   OH278892   6.730   0.318  10.569  0.1154  0.3188  0.4851
19134TIP3    H178893   6.689   0.239  10.533  0.6097  0.0978  0.4002
19134TIP3    H278894   6.802   0.285  10.624  0.5758  0.7191  0.1266
19135TIP3   OH278895   3.832   4.793  12.631  0.0758  0.2793  0.1271
19135TIP3    H178896   3.755   4.841  12.660 -0.2302 -0.9092  1.3243
19135TIP3    H278897   3.797   4.723  12.575  0.4524  0.9339 -0.9437
19136TIP3   OH278898   3.853   5.516  15.598  0.5997  0.1768 -0.1380
19136TIP3    H178899   3.765   5.499  15.629  0.1098  1.6016 -0.7037
19136TIP3    H278900   3.906   5.447  15.637 -0.5486  0.0376  1.2160
19137TIP3   OH278901   1.821   5.378  11.634  0.1629 -0.0047 -0.1512
19137TIP3    H178902   1.768   5.307  11.671 -2.1420  2.5295  1.6543
19137TIP3    H278903   1.774   5.404  11.555  0.6372 -0.0705 -0.4528
19138TIP3   OH278904   3.251   5.935   2.081 -0.0252 -0.4717  0.4470
19138TIP3    H178905   3.303   5.855   2.086 -1.7169 -1.6257 -0.0074
19138TIP3    H278906   3.303   5.994   2.026  0.6343 -1.7298 -0.3050
19139TIP3   OH278907   6.168   1.669  12.127  0.1031  0.3205 -0.0616
19139TIP3    H178908   6.260   1.647  12.139  0.1215  0.8359  0.7466
19139TIP3    H278909   6.120   1.592  12.158  0.2520  0.1216 -0.3211
19140TIP3   OH278910   2.911   1.746   2.198 -0.1423  0.4280 -0.2509
19140TIP3    H178911   2.895   1.831   2.156 -0.3527  0.8730  0.7185
19140TIP3    H278912   2.969   1.766   2.271  1.2850 -0.5419 -1.1006
19141TIP3   OH278913   1.076   5.193  15.654 -0.3105  0.1833  0.1726
19141TIP3    H178914   1.062   5.112  15.605 -0.6176 -0.5136  1.3977
19141TIP3    H278915   1.010   5.254  15.619  0.3534  0.1209 -1.2063
19142TIP3   OH278916   6.318   2.121  11.836 -0.2053 -0.1601  0.4167
19142TIP3    H178917   6.323   2.051  11.770  1.7594  0.2776  0.0762
19142TIP3    H278918   6.238   2.102  11.884 -1.5749 -0.6312 -1.9461
19143TIP3   OH278919   3.118   6.120   0.305  0.3855 -0.1488 -0.0574
19143TIP3    H178920   3.043   6.060   0.312  0.0597  0.2643 -0.0280
19143TIP3    H278921   3.142   6.139   0.395 -0.5304  1.0440 -0.0567
19144TIP3   OH278922   1.063   4.144  16.830 -0.2023 -0.2066 -0.6119
19144TIP3    H178923   1.017   4.064  16.856 -0.0441 -0.1700 -0.2191
19144TIP3    H278924   1.100   4.178  16.911 -2.5829  1.7636 -0.2815
19145TIP3   OH278925   6.285   6.440   6.190 -0.5449 -0.3695 -0.2577
19145TIP3    H178926   6.337   6.360   6.193  1.5980  0.9789 -0.6035
19145TIP3    H278927   6.336   6.504   6.239 -1.8174  1.0049 -0.7041
19146TIP3   OH278928   3.804   5.264   6.647  0.5795  0.1672  0.4475
19146TIP3    H178929   3.739   5.301   6.587  0.4282 -2.6837 -1.2674
19146TIP3    H278930   3.764   5.183   6.679  1.7279  0.3464  2.4419
19147TIP3   OH278931   3.820   2.715   6.246 -0.0486 -0.2121  1.0770
19147TIP3    H178932   3.756   2.774   6.205  0.4702 -0.6414 -0.3889
19147TIP3    H278933   3.780   2.628   6.239  0.2452 -0.3480  1.0916
19148TIP3   OH278934   2.873   3.335   0.440  0.6762  0.3228 -0.8382
19148TIP3    H178935   2.835   3.405   0.387 -0.3837  0.8752  0.5948
19148TIP3    H278936   2.950   3.374   0.480 -1.0749  1.4095  1.6335
19149TIP3   OH278937   2.240   6.519  15.826 -0.3092  0.0328  0.3414
19149TIP3    H178938   2.271   6.544  15.913 -0.8149 -2.7236  1.3803
19149TIP3    H278939   2.145   6.522  15.832 -0.3461  0.0465 -0.1857
19150TIP3   OH278940   0.410   4.232   1.539  0.1123  0.0285 -0.7352
19150TIP3    H178941   0.488   4.228   1.594 -0.0692  3.2169 -0.1446
19150TIP3    H278942   0.439   4.200   1.453  1.5691 -0.5531 -0.0433
19151TIP3   OH278943   0.106   2.312  15.119 -0.6280  0.2129  0.5011
19151TIP3    H178944   0.042   2.383  15.115  0.4452  1.4500  3.4226
19151TIP3    H278945   0.057   2.237  15.152 -1.6009 -0.2312 -1.8719
19152TIP3   OH278946   3.713   4.487   0.663 -0.6451 -0.4521  0.3592
19152TIP3    H178947   3.623   4.461   0.643 -0.4686 -0.9442  0.1849
19152TIP3    H278948   3.748   4.518   0.579 -0.6752 -0.1900  0.4429
19153TIP3   OH278949   3.649   6.431  16.619  0.3025  0.5572 -0.5861
19153TIP3    H178950   3.593   6.365  16.577 -0.1179  0.5147  0.0410
19153TIP3    H278951   3.722   6.382  16.654 -1.7843 -0.0951  3.0347
19154TIP3   OH278952   3.935   5.336  12.595  0.2391 -0.3036 -0.8492
19154TIP3    H178953   3.945   5.409  12.534 -1.3242  0.5371 -0.1103
19154TIP3    H278954   3.850   5.298  12.574 -0.0344 -0.3958  0.3686
19155TIP3   OH278955   4.985   1.146  15.478 -0.6699  0.5848 -0.1214
19155TIP3    H178956   4.945   1.111  15.398  1.2988 -1.3211 -0.3294
19155TIP3    H278957   5.024   1.229  15.451 -1.1812  0.6081 -0.8110
19156TIP3   OH278958   6.727   1.139   6.477 -0.2552 -0.0123 -0.1723
19156TIP3    H178959   6.635   1.153   6.500 -0.0434  3.2725 -1.0684
19156TIP3    H278960   6.775   1.206   6.527  1.5696 -1.1405 -0.3509
19157TIP3   OH278961   4.186   0.594   3.428 -0.0451 -0.3157  0.0291
19157TIP3    H178962   4.128   0.534   3.381 -0.7531 -1.4232  2.2530
19157TIP3    H278963   4.249   0.537   3.473  1.7062  0.7972 -0.9579
19158TIP3   OH278964   2.499   0.112  15.400  0.2576  0.1538 -0.0799
19158TIP3    H178965   2.428   0.172  15.379 -0.2437  0.1638  1.5241
19158TIP3    H278966   2.512   0.060  15.321 -0.6223  1.0685 -0.8285
19159TIP3   OH278967   5.435   0.251   0.676  0.0235 -0.0237 -0.2122
19159TIP3    H178968   5.384   0.235   0.597  0.2462 -1.8623 -0.0012
19159TIP3    H278969   5.372   0.246   0.748  0.2976 -1.1417 -0.0465
19160TIP3   OH278970   1.915   5.827   1.206 -0.3098 -0.1026  0.1130
19160TIP3    H178971   1.851   5.873   1.150  0.0117 -1.4656 -1.3949
19160TIP3    H278972   1.996   5.876   1.194 -0.1425 -0.6227 -0.9439
19161TIP3   OH278973   3.383   3.498   2.994  0.1585  0.4649  0.6705
19161TIP3    H178974   3.313   3.554   3.027  0.4416  0.3933  1.3896
19161TIP3    H278975   3.342   3.447   2.924 -1.1357 -1.3070  2.6792
19162TIP3   OH278976   5.674   1.058   0.610  0.3737  0.3034 -0.2586
19162TIP3    H178977   5.665   1.000   0.685  1.3445 -0.5412 -0.7802
19162TIP3    H278978   5.674   0.999   0.534 -2.0314  1.2314 -1.0469
19163TIP3   OH278979   3.519   6.054   1.212 -0.0486 -0.6290  0.0878
19163TIP3    H178980   3.522   6.146   1.237  1.0253 -0.9070  1.0149
19163TIP3    H278981   3.565   6.008   1.283 -0.0152 -1.8018 -0.6791
19164TIP3   OH278982   2.943   6.136  11.215 -0.3090 -0.4211  0.3024
19164TIP3    H178983   2.944   6.169  11.305  0.9703  0.8030 -0.1415
19164TIP3    H278984   3.035   6.119  11.195 -0.3392  1.3105 -1.4659
19165TIP3   OH278985   4.029   6.270  16.853  0.1664 -0.1757  0.5645
19165TIP3    H178986   4.057   6.191  16.899 -0.0799 -0.5120  0.1417
19165TIP3    H278987   4.050   6.342  16.913  0.4328 -0.5568  0.9290
19166TIP3   OH278988   0.951   6.577  14.426 -0.3944 -0.4942  0.6636
19166TIP3    H178989   0.885   6.638  14.459  0.1891 -0.8941  2.6431
19166TIP3    H278990   0.914   6.491  14.440 -0.0525 -0.6777  0.4579
19167TIP3   OH278991   5.790   6.211   1.846  0.3058  0.5394  0.5150
19167TIP3    H178992   5.827   6.282   1.898  0.6705 -1.0822  2.5190
19167TIP3    H278993   5.866   6.168   1.807  0.1115  0.9771 -0.3599
19168TIP3   OH278994   5.303   5.884   3.861  0.0712 -0.1831  0.1890
19168TIP3    H178995   5.396   5.897   3.882 -0.2576 -0.3628  1.8293
19168TIP3    H278996   5.260   5.881   3.946 -1.2601 -1.5732 -0.5181
19169TIP3   OH278997   5.141   3.385  16.855  0.2456  0.7119  0.3181
19169TIP3    H178998   5.171   3.318  16.917 -1.5115 -1.0084 -0.6154
19169TIP3    H278999   5.086   3.443  16.907  0.1549  0.2627  0.7336
19170TIP3   OH279000   3.510   4.944  13.917  0.1662  0.0081  0.0774
19170TIP3    H179001   3.605   4.937  13.911  0.0404 -1.5713 -0.3800
19170TIP3    H279002   3.493   4.971  14.007  1.0578  0.4237  0.1192
19171TIP3   OH279003   5.110   0.150  11.798  0.2878 -0.6943  0.3159
19171TIP3    H179004   5.118   0.123  11.890  0.1458  0.8946  0.8248
19171TIP3    H279005   5.198   0.142  11.763  0.1848 -2.0884  0.3629
19172TIP3   OH279006   2.498   3.135  15.606 -0.0884 -0.2859 -0.6122
19172TIP3    H179007   2.467   3.137  15.697  0.9136  0.0750 -0.2694
19172TIP3    H279008   2.580   3.085  15.610  0.8187  1.1392 -1.0400
19173TIP3   OH279009   2.698   6.343  16.602 -0.3826 -0.6034  0.4012
19173TIP3    H179010   2.606   6.354  16.624 -0.2139  2.3832 -0.1923
19173TIP3    H279011   2.698   6.327  16.507 -0.2125  1.2352  0.0705
19174TIP3   OH279012   2.073   4.817  13.409 -0.4020 -0.0443  0.5353
19174TIP3    H179013   2.120   4.842  13.330 -2.3487 -0.1999 -0.7231
19174TIP3    H279014   2.137   4.824  13.480  1.4727 -0.3038 -1.1146
19175TIP3   OH279015   2.869   4.478  13.022  0.1001 -0.1002  0.0544
19175TIP3    H179016   2.824   4.450  12.942  0.5271 -1.5614  0.3146
19175TIP3    H279017   2.821   4.556  13.050  0.0918  0.5580 -1.7401
19176TIP3   OH279018   6.509   4.408  13.384 -0.8344  0.3389  0.0663
19176TIP3    H179019   6.510   4.344  13.455 -0.0527  0.0343 -0.2122
19176TIP3    H279020   6.416   4.426  13.369 -1.0101  0.2369  1.0132
19177TIP3   OH279021   6.024   5.180   3.228  0.2956 -0.1658  0.4266
19177TIP3    H179022   6.039   5.145   3.316 -2.3809 -1.2780  0.4843
19177TIP3    H279023   6.026   5.103   3.171  1.7933  0.5243 -0.4899
19178TIP3   OH279024   2.836   4.404   0.806 -0.6248  0.6687 -0.4934
19178TIP3    H179025   2.909   4.423   0.747 -0.5704 -1.8269 -1.2710
19178TIP3    H279026   2.876   4.383   0.890 -0.3405 -2.1720 -1.3146
19179TIP3   OH279027   1.824   0.793  13.633  0.2243 -0.3114 -0.8154
19179TIP3    H179028   1.887   0.807  13.562  0.7692 -1.1567 -0.5021
19179TIP3    H279029   1.877   0.763  13.706 -0.6183 -1.6317 -0.7336
19180TIP3   OH279030   1.362   1.423  14.382  0.2249 -0.3504  0.0980
19180TIP3    H179031   1.448   1.457  14.408 -0.6467  1.5071  0.6370
19180TIP3    H279032   1.371   1.328  14.389  1.8610 -0.1285  1.3596
19181TIP3   OH279033   5.462   1.080   4.441 -0.0206  0.4369 -0.1814
19181TIP3    H179034   5.419   1.024   4.376  0.2874  0.5429 -0.4764
19181TIP3    H279035   5.537   1.030   4.471 -0.1925  0.3657  0.1368
19182TIP3   OH279036   5.734   6.709  16.001  0.0074 -0.1279 -0.3110
19182TIP3    H179037   5.821   6.720  15.964  0.4338 -0.6984  0.5230
19182TIP3    H279038   5.728   6.617  16.024  0.2025  0.4394  2.1648
19183TIP3   OH279039   1.016   6.111  10.776  0.3117 -0.0176 -0.4564
19183TIP3    H179040   1.084   6.080  10.837 -0.5306 -1.3142 -0.1678
19183TIP3    H279041   0.987   6.032  10.730 -0.1098  0.7297 -1.4962
19184TIP3   OH279042   5.683   4.740  11.521 -0.8635  0.3550  0.4026
19184TIP3    H179043   5.737   4.770  11.595 -1.6370  1.7728  0.4247
19184TIP3    H279044   5.744   4.734  11.448 -0.4471  0.8237  0.7038
19185TIP3   OH279045   1.346   2.228   4.117  0.2801  0.0025  0.0217
19185TIP3    H179046   1.424   2.243   4.064  0.2778  3.1572  0.8171
19185TIP3    H279047   1.273   2.236   4.056  0.5028 -2.2756 -0.5900
19186TIP3   OH279048   3.023   4.232  11.304 -0.1745  0.4447  0.0017
19186TIP3    H179049   3.005   4.162  11.242 -1.2021 -2.6672  3.6196
19186TIP3    H279050   2.937   4.270  11.323 -0.0856  0.3123  0.6942
19187TIP3   OH279051   3.813   6.618  16.825  0.0527  0.0659  0.4986
19187TIP3    H179052   3.866   6.695  16.804  0.4641 -0.7085 -1.4506
19187TIP3    H279053   3.745   6.617  16.758 -0.5350 -0.7165  1.1016
19188TIP3   OH279054   2.522   5.585  12.534 -0.1592  0.4876  0.4647
19188TIP3    H179055   2.439   5.590  12.486  0.2195  3.5591  0.0087
19188TIP3    H279056   2.588   5.573  12.466  0.0475  1.2829  0.5186
19189TIP3   OH279057   5.289   6.064   0.524 -0.3477  1.1468  0.5941
19189TIP3    H179058   5.305   5.983   0.574 -1.5625  0.3895 -0.2076
19189TIP3    H279059   5.345   6.057   0.447  0.9821  1.9762  1.4696
19190TIP3   OH279060   1.562   5.232  14.996  0.6760 -0.2958  0.0870
19190TIP3    H179061   1.507   5.299  15.036 -0.4142 -1.4173  0.4913
19190TIP3    H279062   1.616   5.199  15.067  1.2294  0.1626 -0.1168
19191TIP3   OH279063   0.246   5.356   4.225  0.2650  0.3204  0.0942
19191TIP3    H179064   0.175   5.317   4.276  1.0317 -0.3419  0.6575
19191TIP3    H279065   0.324   5.348   4.280  0.5112  2.3413  0.0621
19192TIP3   OH279066   2.688   4.596   4.512 -0.0276 -0.0555 -0.2392
19192TIP3    H179067   2.715   4.688   4.522  0.7532 -0.5017  2.1163
19192TIP3    H279068   2.597   4.601   4.484 -0.8405  1.4685  2.4994
19193TIP3   OH279069   5.619   1.841   4.654  0.2283  0.3619  0.0652
19193TIP3    H179070   5.577   1.914   4.608  0.2963  0.3717  0.0200
19193TIP3    H279071   5.547   1.796   4.698  0.0735 -0.0616 -0.6183
19194TIP3   OH279072   5.711   3.679   1.909  0.0210  0.4056 -0.2292
19194TIP3    H179073   5.750   3.733   1.977  0.0910 -1.3235  1.1545
19194TIP3    H279074   5.781   3.668   1.844  0.7331  0.1449  0.5685
19195TIP3   OH279075   2.509   5.519   3.831 -0.3388  0.3040 -0.3614
19195TIP3    H179076   2.434   5.576   3.811  0.7215  1.5270 -0.9391
19195TIP3    H279077   2.569   5.576   3.879  0.0265 -0.7988  0.4954
19196TIP3   OH279078   2.158   3.630   4.557 -0.1239 -0.0996  0.1728
19196TIP3    H179079   2.172   3.610   4.464 -0.3850  3.9469 -0.8179
19196TIP3    H279080   2.245   3.654   4.589 -0.0653 -1.3343  0.9939
19197TIP3   OH279081   5.924   3.684  16.387  0.2534  0.4055  0.3114
19197TIP3    H179082   5.870   3.741  16.441  1.3592  0.9169  0.8907
19197TIP3    H279083   6.005   3.732  16.375  0.5579 -0.3254 -0.6110
19198TIP3   OH279084   0.934   5.474   4.059 -0.2635  0.5011 -0.3112
19198TIP3    H179085   0.898   5.542   4.002 -0.3153  1.0280  0.3480
19198TIP3    H279086   0.872   5.401   4.051 -1.0346  1.1017  0.1754
19199TIP3   OH279087   3.299   2.060   3.401 -0.4015 -0.2168 -0.0478
19199TIP3    H179088   3.265   2.111   3.327  1.4519  0.1606 -0.6500
19199TIP3    H279089   3.321   2.125   3.467  1.0734 -0.3028 -0.4492
19200TIP3   OH279090   3.738   2.020   3.188 -0.6289 -0.2458  0.1137
19200TIP3    H179091   3.664   1.981   3.234 -0.6251 -0.5130 -0.1133
19200TIP3    H279092   3.774   1.950   3.134  1.3461 -0.8518  2.1205
19201TIP3   OH279093   2.292   2.805   1.781 -0.0286  0.5829  0.6079
19201TIP3    H179094   2.258   2.772   1.864  0.5575  0.0592  0.6379
19201TIP3    H279095   2.235   2.880   1.761 -2.0490 -1.0501 -0.0073
19202TIP3   OH279096   5.289   2.161  12.782 -0.4863  0.3137  0.0076
19202TIP3    H179097   5.338   2.230  12.736 -0.6137 -0.5423 -1.4481
19202TIP3    H279098   5.198   2.176  12.757 -0.4501 -0.7026 -0.7535
19203TIP3   OH279099   0.906   6.026  13.182  0.1860  0.7859 -0.2085
19203TIP3    H179100   0.959   6.067  13.251  1.0596 -0.0547 -0.3728
19203TIP3    H279101   0.823   6.075  13.184  0.2179  0.8253  1.3905
19204TIP3   OH279102   0.445   3.655  13.330 -0.3413  0.2911 -0.1071
19204TIP3    H179103   0.532   3.680  13.299 -0.1094 -1.1646 -0.6900
19204TIP3    H279104   0.459   3.627  13.421 -0.4419  1.3230  0.2344
19205TIP3   OH279105   2.370   5.668   5.939  0.2710 -0.0332  0.2302
19205TIP3    H179106   2.309   5.723   5.988 -1.3832 -0.6102 -1.1716
19205TIP3    H279107   2.387   5.594   5.997  1.6658  1.3667  1.6799
19206TIP3   OH279108   3.156   5.641  13.701  0.0514 -0.0965  0.0560
19206TIP3    H179109   3.139   5.580  13.772 -0.6963  0.6903  0.5549
19206TIP3    H279110   3.223   5.700  13.735 -2.7278  2.4006  1.3814
19207TIP3   OH279111   2.237   4.056   3.892  0.5833  0.4522  0.1604
19207TIP3    H179112   2.314   4.084   3.844 -0.2226  0.9206 -0.8793
19207TIP3    H279113   2.170   4.121   3.870 -0.8453 -1.3794 -1.0250
19208TIP3   OH279114   1.464   5.624   2.691 -0.4079  0.3565 -0.2142
19208TIP3    H179115   1.514   5.670   2.622 -0.6747  0.0502 -0.6125
19208TIP3    H279116   1.508   5.650   2.772  0.9664 -0.6252 -0.6241
19209TIP3   OH279117   1.778   4.068  16.489 -0.1881 -0.1282  0.3742
19209TIP3    H179118   1.727   3.987  16.484  1.1338 -1.0126  1.0434
19209TIP3    H279119   1.778   4.090  16.582  1.4784 -0.6980  0.5331
19210TIP3   OH279120   2.053   3.657   2.792 -0.2267 -0.1004 -0.2081
19210TIP3    H179121   2.065   3.656   2.886  0.3932  0.0175 -0.2875
19210TIP3    H279122   1.962   3.684   2.779  0.3155  1.9628  0.2779
19211TIP3   OH279123   2.206   2.369   1.801  0.3326  0.5698  0.0668
19211TIP3    H179124   2.114   2.393   1.815  0.9227  1.5447  2.4386
19211TIP3    H279125   2.203   2.280   1.768 -1.4377  0.2974  0.9033
19212TIP3   OH279126   3.132   4.566  12.150 -0.3825  0.2348  0.5609
19212TIP3    H179127   3.183   4.520  12.084  0.7896  1.6714  0.4490
19212TIP3    H279128   3.053   4.594  12.104  0.3079  1.0012 -0.1787
19213TIP3   OH279129   1.515   1.357   4.584 -0.3850  0.3604  0.2838
19213TIP3    H179130   1.552   1.445   4.587 -0.0468  0.2764 -1.2407
19213TIP3    H279131   1.479   1.344   4.672 -2.5104  2.8928 -0.1317
19214TIP3   OH279132   0.991   2.977  12.815 -0.1287  0.3723 -0.4965
19214TIP3    H179133   0.961   2.935  12.735  1.5976  0.6103 -1.3086
19214TIP3    H279134   1.086   2.986  12.802  0.2051  0.1073  1.7196
19215TIP3   OH279135   3.998   1.695   2.847 -0.0942 -0.1186  0.4339
19215TIP3    H179136   3.944   1.679   2.769 -1.0261 -0.5917  1.1673
19215TIP3    H279137   4.061   1.761   2.819 -0.2043 -0.5361 -0.8279
19216TIP3   OH279138   2.284   4.882  16.399 -0.2834 -0.3535 -0.3029
19216TIP3    H179139   2.358   4.941  16.409 -0.2417 -0.1550 -1.7257
19216TIP3    H279140   2.255   4.864  16.489  1.0383  0.1245  0.2269
19217TIP3   OH279141   1.781   2.135   6.011  0.0856  0.1562  0.6618
19217TIP3    H179142   1.719   2.152   6.082 -0.2319  0.3827  0.3362
19217TIP3    H279143   1.784   2.217   5.962 -1.2434 -0.6109 -0.7676
19218TIP3   OH279144   0.541   1.373  12.971 -0.0425  0.1587  0.6013
19218TIP3    H179145   0.466   1.432  12.961 -0.6756 -0.9988 -1.7666
19218TIP3    H279146   0.521   1.322  13.050 -0.1403  2.1430  1.8780
19219TIP3   OH279147   4.888   0.347  14.785 -0.1609 -0.5498  0.0405
19219TIP3    H179148   4.822   0.284  14.814 -0.0995  0.2535  1.9954
19219TIP3    H279149   4.969   0.317  14.828  0.1707  0.0140 -0.1910
19220TIP3   OH279150   2.050   0.264   2.265 -0.9244 -0.0486 -0.3793
19220TIP3    H179151   2.085   0.189   2.217 -0.0083  0.1142  0.0119
19220TIP3    H279152   2.079   0.340   2.216 -1.1837  0.0733 -0.3433
19221TIP3   OH279153   0.472   2.936  14.905 -0.4253 -0.3479 -0.4458
19221TIP3    H179154   0.419   2.964  14.830  2.3075 -0.5357 -2.5375
19221TIP3    H279155   0.553   2.986  14.897  0.8786 -2.1636  1.0029
19222TIP3   OH279156   4.403   6.623  14.276 -0.0210 -0.4038  0.6186
19222TIP3    H179157   4.498   6.631  14.265  0.0288 -1.3449  0.2963
19222TIP3    H279158   4.375   6.708  14.309  0.8083  0.1960 -0.2031
19223TIP3   OH279159   6.678   2.866  13.555 -0.0551 -0.0975 -0.5546
19223TIP3    H179160   6.639   2.925  13.619  0.4730  0.9103 -1.1431
19223TIP3    H279161   6.707   2.791  13.607 -0.6266  0.2078  0.2225
19224TIP3   OH279162   0.946   4.356   6.212 -0.1767  0.4385 -0.5436
19224TIP3    H179163   0.954   4.321   6.301  1.0709  0.5741 -0.5949
19224TIP3    H279164   1.024   4.410   6.201 -0.1823  0.1925 -1.8219
19225TIP3   OH279165   2.164   1.448   1.428  0.4197  0.3061 -0.1808
19225TIP3    H179166   2.153   1.506   1.353 -2.1334  0.5981  0.3515
19225TIP3    H279167   2.223   1.495   1.486 -1.1152  2.1357 -0.0459
19226TIP3   OH279168   4.068   2.051  10.995 -0.0338  0.3980 -0.2506
19226TIP3    H179169   4.053   2.104  10.917  1.9609 -0.1580 -1.0434
19226TIP3    H279170   4.071   2.114  11.067 -2.3537  0.8692 -0.5218
19227TIP3   OH279171   4.779   2.108  13.345 -0.3816 -0.2926 -0.0530
19227TIP3    H179172   4.856   2.129  13.398  0.7908 -0.4155 -1.6828
19227TIP3    H279173   4.706   2.117  13.406  1.0772 -2.1048  2.0461
19228TIP3   OH279174   1.882   4.055  13.366  0.3566 -0.3577 -0.0054
19228TIP3    H179175   1.847   4.076  13.279  0.9621 -0.1988 -0.2098
19228TIP3    H279176   1.907   4.140  13.403  3.5589 -0.7421 -1.1541
19229TIP3   OH279177   6.453   2.340   3.576 -0.6047 -0.1770  0.1490
19229TIP3    H179178   6.465   2.245   3.568 -0.1006 -0.1662  0.7931
19229TIP3    H279179   6.475   2.374   3.489  2.5182 -0.3047  0.8497
19230TIP3   OH279180   4.254   4.985  11.133 -0.3565  0.0025 -0.0421
19230TIP3    H179181   4.216   5.070  11.155  0.9471  0.7065 -0.4530
19230TIP3    H279182   4.287   4.996  11.044  2.2580 -0.0811  0.8946
19231TIP3   OH279183   0.059   4.924   4.095 -0.2673  0.1838 -0.5880
19231TIP3    H179184   0.065   4.841   4.048  0.7988 -0.2197  0.2397
19231TIP3    H279185   0.006   4.904   4.173  1.5907 -0.2099  0.6139
19232TIP3   OH279186   3.801   6.677   3.090  0.3004  0.1626  0.4097
19232TIP3    H179187   3.716   6.720   3.081  0.1508 -0.0592  0.7381
19232TIP3    H279188   3.781   6.595   3.135  0.7153  0.2024  0.6633
19233TIP3   OH279189   5.338   4.006  13.571 -0.1690  0.2604  0.4461
19233TIP3    H179190   5.270   4.020  13.636  0.5295  3.3511  0.5718
19233TIP3    H279191   5.412   3.972  13.621 -0.5585 -0.0680  0.8053
19234TIP3   OH279192   3.505   2.122   5.489  0.2454 -0.0346 -0.3129
19234TIP3    H179193   3.479   2.173   5.566  1.3993 -0.1266  0.1386
19234TIP3    H279194   3.439   2.053   5.483 -0.8039  0.9580 -0.3879
19235TIP3   OH279195   0.887   5.592   5.838 -0.5232  0.4152  0.1926
19235TIP3    H179196   0.855   5.538   5.766 -1.6044  1.4863 -0.1630
19235TIP3    H279197   0.957   5.645   5.800 -0.0143 -0.1647  0.3327
19236TIP3   OH279198   6.025   0.585   5.008  0.2355  0.0253 -0.3746
19236TIP3    H179199   6.068   0.548   4.931 -1.6063 -0.5911 -1.1254
19236TIP3    H279200   5.950   0.529   5.023 -0.1451  0.9069  1.1140
19237TIP3   OH279201   1.020   2.078   4.078  0.2925 -0.2249  0.1904
19237TIP3    H179202   0.938   2.088   4.031  0.5198  1.3868  0.1013
19237TIP3    H279203   1.085   2.059   4.010  0.3503  0.5772  0.0152
19238TIP3   OH279204   6.470   6.194  13.728 -0.1310  0.0556 -0.0992
19238TIP3    H179205   6.461   6.156  13.640 -0.5893  0.8817 -0.4169
19238TIP3    H279206   6.382   6.222  13.752 -0.1851 -1.0670  1.0549
19239TIP3   OH279207   2.671   1.459   1.597  0.2501 -0.3203  0.3381
19239TIP3    H179208   2.744   1.413   1.640 -0.7355 -2.1928  0.0761
19239TIP3    H279209   2.604   1.466   1.664  0.6589  1.4606  0.5938
19240TIP3   OH279210   3.139   5.128  10.726 -0.0827 -0.1734  0.1489
19240TIP3    H179211   3.130   5.049  10.780  0.6223  0.1101  0.6973
19240TIP3    H279212   3.079   5.191  10.766 -0.4671 -0.3572 -0.1408
19241TIP3   OH279213   3.735   5.173  15.362  0.7344 -0.2046  0.1112
19241TIP3    H179214   3.731   5.264  15.332  1.2470 -0.1311  0.2594
19241TIP3    H279215   3.827   5.148  15.351  0.6015 -0.6965  0.0989
19242TIP3   OH279216   4.251   4.065  13.767  0.1119 -0.1128 -0.4513
19242TIP3    H179217   4.189   4.126  13.808  0.5562  0.9686 -1.3535
19242TIP3    H279218   4.337   4.097  13.794  0.3414 -0.4953 -0.7253
19243TIP3   OH279219   4.020   5.053  14.421 -0.1408 -0.2017  0.4194
19243TIP3    H179220   3.977   4.972  14.394 -1.5698 -0.3919  3.0315
19243TIP3    H279221   3.966   5.085  14.494  1.7676  1.8156  0.9962
19244TIP3   OH279222   4.570   4.274  16.931  0.6476  0.1351  0.1672
19244TIP3    H179223   4.511   4.350  16.922 -0.3105 -0.7015 -0.7093
19244TIP3    H279224   4.635   4.285  16.862  0.7234  0.3540  0.2735
19245TIP3   OH279225   1.561   5.981   1.635  0.0618 -0.0090  0.1619
19245TIP3    H179226   1.618   6.053   1.663  0.5482 -0.0508 -0.6987
19245TIP3    H279227   1.564   5.918   1.708 -1.1627  1.2729  1.3629
19246TIP3   OH279228   1.874   1.721   4.909  0.1490 -0.7030  0.1008
19246TIP3    H179229   1.849   1.789   4.846  0.1287  0.3428  1.2236
19246TIP3    H279230   1.938   1.668   4.862 -0.7143 -0.6181 -1.1974
19247TIP3   OH279231   1.600   4.682  12.571 -0.0533 -0.5335  0.4437
19247TIP3    H179232   1.584   4.600  12.525  0.9348 -0.4167 -0.1257
19247TIP3    H279233   1.654   4.657  12.646 -0.9242 -0.5969  1.0595
19248TIP3   OH279234   4.376   5.351   1.423 -0.0420 -0.0884 -0.8030
19248TIP3    H179235   4.434   5.307   1.361  0.9022 -1.6599  1.1560
19248TIP3    H279236   4.431   5.368   1.499 -1.3103  1.4000 -0.1936
19249TIP3   OH279237   1.424   1.488  11.535  0.1912  0.2152  0.6885
19249TIP3    H179238   1.417   1.515  11.443  0.9936  0.5221  0.7142
19249TIP3    H279239   1.447   1.395  11.530 -2.8415 -0.5976  0.6036
19250TIP3   OH279240   2.732   5.351  16.974 -0.3479 -0.6215 -0.6849
19250TIP3    H179241   2.726   5.261  16.942  1.4026 -0.5417 -1.3090
19250TIP3    H279242   2.798   5.348  17.043 -0.5668  0.1059 -0.4391
19251TIP3   OH279243   2.856   0.300  12.277 -0.2236 -0.2936  0.2084
19251TIP3    H179244   2.762   0.315  12.283  0.0291  0.7414  1.7189
19251TIP3    H279245   2.866   0.241  12.202 -2.0529 -0.2977 -0.0494
19252TIP3   OH279246   3.610   0.891  16.121  0.3788 -0.2070  0.0171
19252TIP3    H179247   3.553   0.910  16.196  1.9002  2.1700  0.6282
19252TIP3    H279248   3.573   0.812  16.083 -2.2256  0.2236  1.4933
19253TIP3   OH279249   0.449   6.249   0.147  0.1201 -0.0889  0.0248
19253TIP3    H179250   0.425   6.311   0.217 -0.1967  0.2129 -0.3449
19253TIP3    H279251   0.458   6.165   0.192 -0.0633  0.1050  0.4336
19254TIP3   OH279252   4.401   5.592   5.100 -0.6522 -0.0002  0.4055
19254TIP3    H179253   4.479   5.643   5.079 -0.9485 -0.0507 -0.8689
19254TIP3    H279254   4.435   5.507   5.127 -0.2356  0.2942  0.8407
19255TIP3   OH279255   3.568   2.780   2.409 -0.6186  0.0296  0.0646
19255TIP3    H179256   3.485   2.807   2.449 -0.9918  0.4953 -0.9855
19255TIP3    H279257   3.605   2.862   2.376 -0.8524 -0.4798 -1.5003
19256TIP3   OH279258   4.031   6.231   1.952 -0.2632  0.5141 -0.0811
19256TIP3    H179259   4.073   6.145   1.952 -0.6254  0.3390 -0.1206
19256TIP3    H279260   3.941   6.214   1.979 -0.2013  0.9441  0.4042
19257TIP3   OH279261   5.665   0.399   0.939 -0.4586 -0.0411 -0.0025
19257TIP3    H179262   5.614   0.469   0.898  2.0044  0.8505 -1.7327
19257TIP3    H279263   5.710   0.357   0.866  0.0279 -1.8311  1.2970
19258TIP3   OH279264   3.816   2.165  10.802 -0.1074 -0.2801  0.1258
19258TIP3    H179265   3.888   2.228  10.805  0.3185 -0.7340 -0.4301
19258TIP3    H279266   3.817   2.131  10.712  0.7377 -2.2928  0.8514
19259TIP3   OH279267   6.077   2.390   0.811 -0.4928  0.3292  0.3408
19259TIP3    H179268   6.025   2.328   0.760 -0.0778 -0.7017  1.1497
19259TIP3    H279269   6.056   2.476   0.773 -4.0279  0.1557  1.6869
19260TIP3   OH279270   3.031   1.409   2.377 -0.3480  0.1437 -0.2030
19260TIP3    H179271   3.030   1.429   2.284 -3.0308  0.0975 -0.2263
19260TIP3    H279272   2.972   1.473   2.416  1.2334  0.5605  1.5730
19261TIP3   OH279273   5.484   0.059   5.456  0.4289 -0.1360 -0.2728
19261TIP3    H179274   5.515  -0.019   5.500  0.0708  0.0815  0.3688
19261TIP3    H279275   5.397   0.036   5.423  0.8241 -0.4026 -1.1580
19262TIP3   OH279276   0.982   1.713  11.428  0.0250  0.2956  0.3630
19262TIP3    H179277   0.961   1.806  11.424 -1.6520 -0.1004 -0.9477
19262TIP3    H279278   1.011   1.698  11.518 -1.6687  1.7014  1.1755
19263TIP3   OH279279   3.385   3.341  13.815  0.3205  0.1931  0.4549
19263TIP3    H179280   3.407   3.402  13.744  1.4197 -1.2371 -0.4515
19263TIP3    H279281   3.435   3.374  13.891  2.0872 -0.4023 -0.4166
19264TIP3   OH279282   0.899   4.539   1.340 -0.0003  0.1432  0.3226
19264TIP3    H179283   0.944   4.617   1.307 -0.9211  0.5454 -0.0083
19264TIP3    H279284   0.905   4.547   1.435  0.7571  0.1087  0.2826
19265TIP3   OH279285   6.264   6.236  12.570 -1.0576 -0.0552  0.5391
19265TIP3    H179286   6.342   6.182  12.560 -0.5924  0.4530  1.3755
19265TIP3    H279287   6.298   6.325  12.580 -1.6828  0.0115  2.1481
19266TIP3   OH279288   6.438   3.402  12.776  0.7172  0.1667  0.1480
19266TIP3    H179289   6.414   3.407  12.684  0.9773 -0.6050  0.0412
19266TIP3    H279290   6.374   3.458  12.820 -1.1401 -1.6389 -0.1785
19267TIP3   OH279291   1.550   0.762  14.804 -0.2489  0.6293  0.9048
19267TIP3    H179292   1.487   0.833  14.794  0.1207  0.8872  0.4371
19267TIP3    H279293   1.499   0.691  14.845 -1.6322 -0.2305 -2.1683
19268TIP3   OH279294   5.630   0.162   2.656  0.3454  0.5104 -0.2448
19268TIP3    H179295   5.645   0.232   2.592  1.3082 -0.8942 -1.6032
19268TIP3    H279296   5.716   0.144   2.692 -0.1071  0.8828  1.0304
19269TIP3   OH279297   2.937   0.670  11.939 -0.2610  0.0019  0.0494
19269TIP3    H179298   2.859   0.617  11.955 -1.1345 -0.0304 -3.6384
19269TIP3    H279299   2.907   0.760  11.948  0.1459 -0.0604  2.0521
19270TIP3   OH279300   5.284   6.595   1.389  0.3057 -0.6234  0.6215
19270TIP3    H179301   5.333   6.513   1.379 -0.1761 -0.8175 -0.2014
19270TIP3    H279302   5.269   6.625   1.299 -0.8845 -0.4461  0.8789
19271TIP3   OH279303   6.235   0.613  16.429 -0.0001  0.3573  0.9412
19271TIP3    H179304   6.255   0.573  16.344  0.4688  2.0246  0.2487
19271TIP3    H279305   6.196   0.542  16.480  1.3386 -1.1396 -0.0591
19272TIP3   OH279306   4.189   6.622   4.551 -0.7895  0.1906 -0.0171
19272TIP3    H179307   4.181   6.716   4.533  1.6379  0.7576  1.6113
19272TIP3    H279308   4.194   6.582   4.465 -0.1560  1.7414 -0.7252
19273TIP3   OH279309   3.840   1.065   0.061 -0.1874 -0.5772 -0.8859
19273TIP3    H179310   3.792   0.989   0.028  0.8833 -1.5053 -0.3663
19273TIP3    H279311   3.830   1.131  -0.007 -2.6647 -0.5352 -0.5273
19274TIP3   OH279312   1.358   3.845   5.058  0.0663  0.0356  0.1194
19274TIP3    H179313   1.397   3.759   5.041 -0.5895 -0.3929  0.7386
19274TIP3    H279314   1.366   3.892   4.976  0.7569 -0.4961 -0.1200
19275TIP3   OH279315   3.566   6.751  10.887 -0.7971 -0.5705  0.2717
19275TIP3    H179316   3.593   6.693  10.816 -0.9243 -0.3539  0.0442
19275TIP3    H279317   3.586   6.703  10.967 -1.8145 -1.3297  0.0697
19276TIP3   OH279318   4.339   3.790   0.537 -0.0243 -0.4136  0.3381
19276TIP3    H179319   4.364   3.879   0.560 -0.8114 -0.5246  1.6507
19276TIP3    H279320   4.268   3.801   0.474  0.5431 -0.1169 -0.2573
19277TIP3   OH279321   4.520   0.243  11.684  0.7114  0.0731  0.4085
19277TIP3    H179322   4.504   0.294  11.604  0.6384  0.2446  0.5325
19277TIP3    H279323   4.460   0.281  11.749 -0.8533 -1.5416 -0.0610
19278TIP3   OH279324   4.676   1.012   6.039 -0.5276 -0.3701 -0.1419
19278TIP3    H179325   4.625   1.001   6.119 -1.0786  0.7964 -0.3163
19278TIP3    H279326   4.618   1.062   5.981  0.6761  0.6345 -0.4859
19279TIP3   OH279327   4.063   6.431   5.291  0.3795  0.1452  0.3218
19279TIP3    H179328   4.041   6.400   5.203  1.3125  2.6036 -0.8063
19279TIP3    H279329   4.060   6.352   5.345 -1.5478 -1.1792 -1.6353
19280TIP3   OH279330   5.360   2.971  14.408  0.3537  0.8127  0.1957
19280TIP3    H179331   5.426   2.973  14.339 -1.0897  1.7685 -1.2014
19280TIP3    H279332   5.374   3.052  14.457  2.0774 -0.3721  1.7612
19281TIP3   OH279333   6.259   0.140  14.727  0.4420 -0.1918  0.3070
19281TIP3    H179334   6.193   0.150  14.659  0.5678 -2.0785 -0.1222
19281TIP3    H279335   6.223   0.186  14.803 -0.5731  0.2751 -0.4540
19282TIP3   OH279336   4.231   1.972   2.732  0.1983  0.5164  0.4998
19282TIP3    H179337   4.273   1.889   2.755 -1.0655 -0.8296 -1.8492
19282TIP3    H279338   4.146   1.969   2.775  0.3045  0.7798  0.7299
19283TIP3   OH279339   3.128   4.787   5.091 -0.3299 -0.7050 -0.3700
19283TIP3    H179340   3.196   4.842   5.129 -3.1857  1.3138  2.0880
19283TIP3    H279341   3.146   4.700   5.125  0.1675  0.1109  1.5753
19284TIP3   OH279342   3.893   3.813   5.319  0.4639 -0.1902  0.1686
19284TIP3    H179343   3.853   3.871   5.254  2.4254  0.6510 -0.3087
19284TIP3    H279344   3.971   3.859   5.349  0.7935 -1.5579  1.5035
19285TIP3   OH279345   4.901   1.881   4.574 -0.2198 -0.9362  0.0008
19285TIP3    H179346   4.822   1.828   4.579  0.4283 -1.8116  1.0559
19285TIP3    H279347   4.973   1.818   4.575  0.5023 -0.1462 -0.8902
19286TIP3   OH279348   2.536   0.128   0.763  0.0319 -0.1353 -0.2326
19286TIP3    H179349   2.631   0.129   0.765  0.0516 -0.8096 -0.5167
19286TIP3    H279350   2.510   0.218   0.781  0.6551 -0.5578  3.3206
19287TIP3   OH279351   6.755   3.723   1.560 -0.0420 -0.5876  0.5646
19287TIP3    H179352   6.694   3.697   1.491  0.6692 -1.1733  0.1390
19287TIP3    H279353   6.841   3.714   1.519  0.3578 -0.4355  1.3678
19288TIP3   OH279354   1.492   3.613  16.501 -0.8780  0.0914  0.3975
19288TIP3    H179355   1.473   3.555  16.427 -0.2553  0.6535 -0.2102
19288TIP3    H279356   1.406   3.639  16.534 -1.1617  0.5755 -0.7048
19289TIP3   OH279357   2.500   2.220   3.915  0.2753  0.3611 -0.5780
19289TIP3    H179358   2.411   2.196   3.941 -0.0767  1.0939 -1.0755
19289TIP3    H279359   2.555   2.152   3.952 -0.3254  0.8045  1.1523
19290TIP3   OH279360   5.833   4.589  15.648 -0.6237 -0.4702 -0.4702
19290TIP3    H179361   5.866   4.656  15.708 -0.6231 -0.8274 -0.0708
19290TIP3    H279362   5.738   4.592  15.657 -0.7124  0.4322 -1.4865
19291TIP3   OH279363   4.897   4.178  16.239  0.1090  0.0569 -0.3189
19291TIP3    H179364   4.939   4.183  16.325  2.0718  3.3249 -1.3527
19291TIP3    H279365   4.811   4.141  16.256  0.0853  1.5410  3.1879
19292TIP3   OH279366   4.003   2.219   1.768 -0.0520 -0.5540  0.2591
19292TIP3    H179367   3.940   2.150   1.747 -1.2418  1.0090 -1.4152
19292TIP3    H279368   4.083   2.193   1.723 -0.5168 -0.8072 -0.4305
19293TIP3   OH279369   4.776   2.138  13.810  0.7007  0.3501 -0.5355
19293TIP3    H179370   4.751   2.229  13.824  1.2837  0.6106 -1.1599
19293TIP3    H279371   4.697   2.088  13.829 -0.4223  1.1873 -2.8493
19294TIP3   OH279372   0.012   5.329  14.278 -0.1708 -0.3985 -0.5090
19294TIP3    H179373   0.102   5.297  14.281 -0.2761 -0.5634  1.3972
19294TIP3    H279374   0.020   5.425  14.283 -0.1706 -0.5036  2.0784
19295TIP3   OH279375   3.604   4.647   0.049  0.4832  0.0363 -0.1403
19295TIP3    H179376   3.541   4.594   0.099  1.3168 -0.9680 -0.1465
19295TIP3    H279377   3.567   4.651  -0.039  0.2001 -0.1668 -0.0332
19296TIP3   OH279378   0.054   5.102   1.838 -0.0595  0.4872 -0.1367
19296TIP3    H179379   0.007   5.166   1.893 -0.3874  1.3426 -1.4017
19296TIP3    H279380   0.021   5.017   1.868  0.3841  0.8845  1.5767
19297TIP3   OH279381   2.204   3.223  14.731  0.3813 -0.3564 -0.3416
19297TIP3    H179382   2.126   3.166  14.724  1.6924 -2.0982 -1.3135
19297TIP3    H279383   2.275   3.163  14.753  1.1370  1.5028  2.4785
19298TIP3   OH279384   1.684   4.516  13.983  0.4897 -0.0452  0.1400
19298TIP3    H179385   1.623   4.539  13.913  0.0660  0.4873  0.6871
19298TIP3    H279386   1.629   4.498  14.058  0.8806 -1.6797  0.0554
19299TIP3   OH279387   2.692   6.681  16.729 -0.2513 -0.9645  0.1764
19299TIP3    H179388   2.688   6.760  16.675 -0.3690  0.4043  2.1253
19299TIP3    H279389   2.634   6.700  16.803  3.2021 -1.0186  3.0119
19300TIP3   OH279390   4.782   0.380  16.546 -0.1784 -0.3488  0.2370
19300TIP3    H179391   4.709   0.418  16.497  1.4989 -0.6696 -2.6019
19300TIP3    H279392   4.818   0.454  16.595  0.2398  0.7805 -1.7045
19301TIP3   OH279393   3.210   5.810   4.080  0.1604  0.2273  0.0581
19301TIP3    H179394   3.161   5.871   4.134 -0.7957 -0.2073 -0.2994
19301TIP3    H279395   3.167   5.813   3.995  1.0332  0.1682 -0.3884
19302TIP3   OH279396   0.726   2.965   3.118 -0.3701 -0.7471  0.0485
19302TIP3    H179397   0.661   2.896   3.108 -0.7273 -0.5949  1.1814
19302TIP3    H279398   0.744   2.968   3.212 -1.0310  1.3045  0.1445
19303TIP3   OH279399   0.694   4.185   6.597 -0.0886 -0.2491 -0.1078
19303TIP3    H179400   0.736   4.122   6.539  0.9949  0.7603 -0.4455
19303TIP3    H279401   0.619   4.138   6.634  1.1972 -2.0010  0.3109
19304TIP3   OH279402   5.674   3.107   0.044 -0.5270  0.0510 -0.0213
19304TIP3    H179403   5.682   3.093   0.138 -0.7437 -1.8526 -0.2742
19304TIP3    H279404   5.763   3.097   0.010 -0.4246  0.8793 -0.0053
19305TIP3   OH279405   2.388   2.980  14.018 -0.1056 -0.1546  0.1088
19305TIP3    H179406   2.450   3.010  13.951 -0.7252  0.8313 -0.0319
19305TIP3    H279407   2.443   2.936  14.083  0.7855  1.0515  0.1792
19306TIP3   OH279408   1.049   4.814  13.800 -0.2425 -0.3427  0.4031
19306TIP3    H179409   1.131   4.815  13.751 -0.1728  0.0026  0.5264
19306TIP3    H279410   1.040   4.723  13.830  0.7060 -0.1166  1.4093
19307TIP3   OH279411   2.687   6.600  12.043 -0.4984  0.1206  0.1859
19307TIP3    H179412   2.624   6.644  12.100 -1.1539 -0.6873  0.1019
19307TIP3    H279413   2.769   6.648  12.056 -0.8764  0.5353  1.0870
19308TIP3   OH279414   3.394   0.500  15.738  0.3664 -0.2045 -0.5721
19308TIP3    H179415   3.420   0.416  15.698  1.3033 -0.1667 -0.0513
19308TIP3    H279416   3.345   0.474  15.816  0.2493 -0.2707 -0.6675
19309TIP3   OH279417   3.655   0.887  13.286 -0.1744 -0.1076  0.4858
19309TIP3    H179418   3.624   0.891  13.196  1.2589 -1.1354 -0.0574
19309TIP3    H279419   3.689   0.975  13.304  0.0720 -0.0662 -0.1653
19310TIP3   OH279420   6.369   4.593   3.398 -0.2125 -0.0194  0.0498
19310TIP3    H179421   6.285   4.597   3.442 -0.5061  0.8663 -0.5868
19310TIP3    H279422   6.349   4.560   3.310 -0.1742  2.1142 -0.7813
19311TIP3   OH279423   1.450   5.231   1.523  0.7650 -0.0334 -0.5519
19311TIP3    H179424   1.424   5.140   1.512  0.2852  0.1956 -1.3941
19311TIP3    H279425   1.436   5.249   1.616 -2.0660  0.0574 -0.9428
19312TIP3   OH279426   2.471   4.575  13.055  0.0406  0.8521  0.1127
19312TIP3    H179427   2.551   4.610  13.016 -0.1431 -0.5058 -1.5169
19312TIP3    H279428   2.445   4.504  12.997 -1.4792  0.2441  1.5049
19313TIP3   OH279429   2.896   1.390   2.759 -0.5848  0.1392 -0.0627
19313TIP3    H179430   2.873   1.310   2.711 -0.1110 -1.0793  1.6832
19313TIP3    H279431   2.857   1.378   2.846  0.3941  1.3287  0.5647
19314TIP3   OH279432   6.432   6.491  13.244 -0.0704  0.3646 -0.1177
19314TIP3    H179433   6.517   6.532  13.229  0.3728 -0.3216  0.4774
19314TIP3    H279434   6.407   6.456  13.159 -0.3618  1.6897 -0.5847
19315TIP3   OH279435   6.014   1.086   6.321 -0.1735 -0.6142  0.2075
19315TIP3    H179436   6.012   1.061   6.413  0.7107  0.7023  0.5907
19315TIP3    H279437   6.027   1.181   6.322 -0.6007 -0.5288 -1.2673
19316TIP3   OH279438   3.582   4.938   4.438 -0.4066 -0.5034 -0.0411
19316TIP3    H179439   3.509   4.997   4.457 -0.5657 -0.6969 -0.0507
19316TIP3    H279440   3.616   4.915   4.524  0.6881  0.8906 -0.0905
19317TIP3   OH279441   5.660   1.467  14.220  0.1064  0.0401 -0.7627
19317TIP3    H179442   5.743   1.498  14.257 -0.4649 -0.4499  0.9653
19317TIP3    H279443   5.635   1.536  14.159  2.0391 -0.0440 -1.6968
19318TIP3   OH279444   1.798   1.819   5.448 -0.1582  0.3657 -0.4797
19318TIP3    H179445   1.763   1.736   5.414  1.0950 -0.0424 -0.8141
19318TIP3    H279446   1.892   1.806   5.448  0.0419  1.7961 -0.4999
19319TIP3   OH279447   1.561   2.858   0.651 -0.4853  0.3566  0.1994
19319TIP3    H179448   1.544   2.859   0.557 -2.5716 -0.7252  0.5314
19319TIP3    H279449   1.493   2.914   0.688 -0.5079 -0.3116  1.1864
19320TIP3   OH279450   3.225   0.687   2.043 -0.5428  0.3652  0.5396
19320TIP3    H179451   3.170   0.685   2.121  0.5766 -1.5994  1.3075
19320TIP3    H279452   3.284   0.613   2.053  1.2193  1.4992 -1.0235
19321TIP3   OH279453   0.171   4.451   1.049  0.9395  0.2201 -0.1835
19321TIP3    H179454   0.258   4.437   1.085  0.7781 -2.4776 -0.7064
19321TIP3    H279455   0.164   4.386   0.979 -1.6130  0.1238  0.1214
19322TIP3   OH279456   5.559   1.993  16.082 -0.6581  0.1342  0.1947
19322TIP3    H179457   5.505   1.987  16.161 -2.0716 -1.0359 -0.8207
19322TIP3    H279458   5.560   2.086  16.061  0.1279  0.5132  1.8482
19323TIP3   OH279459   6.171   5.357  14.706  0.5000 -0.4492  0.2402
19323TIP3    H179460   6.219   5.389  14.630  0.0336  1.3564  0.6648
19323TIP3    H279461   6.238   5.330  14.768  0.9573  0.6690  0.2495
19324TIP3   OH279462   6.259   4.999   1.874 -0.0116  0.1807 -0.3631
19324TIP3    H179463   6.304   4.916   1.886 -0.1367  0.4988  2.5010
19324TIP3    H279464   6.323   5.054   1.829  0.8257 -0.7942 -0.3938
19325TIP3   OH279465   3.627   3.737  13.404  0.5945 -0.0062 -0.5359
19325TIP3    H179466   3.639   3.767  13.314 -0.2667 -0.4683 -0.8110
19325TIP3    H279467   3.586   3.811  13.448 -0.2705 -0.2771 -0.8752
19326TIP3   OH279468   0.234   3.736   1.939 -0.3178  0.0694  0.0588
19326TIP3    H179469   0.271   3.737   2.027  0.2591 -1.1884 -0.1606
19326TIP3    H279470   0.143   3.763   1.951  0.1444  1.2903  0.8554
19327TIP3   OH279471   6.200   5.100   2.224 -0.1181 -0.1015 -0.8762
19327TIP3    H179472   6.104   5.097   2.221 -0.1047 -0.4631 -0.9352
19327TIP3    H279473   6.223   5.044   2.298  0.0129  0.6363 -0.3522
19328TIP3   OH279474   4.798   1.329  11.978  0.6452  0.1543  0.1531
19328TIP3    H179475   4.796   1.252  12.035  0.9636  1.2483  1.6661
19328TIP3    H279476   4.706   1.354  11.967  0.6338  0.4039  0.8188
19329TIP3   OH279477   4.617   3.073  16.427  0.1014 -0.0298 -0.5502
19329TIP3    H179478   4.561   3.098  16.354  0.2964  0.9240 -0.3749
19329TIP3    H279479   4.639   2.981  16.410  0.5521  0.3241 -1.9523
19330TIP3   OH279480   2.180   5.729  12.820 -0.3412  0.6261 -0.5000
19330TIP3    H179481   2.163   5.648  12.771 -1.1611 -0.0983  0.9361
19330TIP3    H279482   2.271   5.750  12.802  0.2876 -1.4000  0.2058
19331TIP3   OH279483   4.017   6.162   3.829 -0.2645 -0.4402 -0.3855
19331TIP3    H179484   4.004   6.082   3.881 -1.9234  0.2812  0.3475
19331TIP3    H279485   4.081   6.137   3.762 -0.6674 -2.3562 -0.0852
19332TIP3   OH279486   2.074   0.980   4.929 -0.2512  0.0294  0.0000
19332TIP3    H179487   2.159   0.995   4.969 -0.0804  0.7070 -0.6156
19332TIP3    H279488   2.068   0.885   4.921  0.3202 -0.0349  0.3130
19333TIP3   OH279489   4.111   1.325   3.080  0.2857 -0.1970  0.3227
19333TIP3    H179490   4.114   1.291   2.991 -1.8815  2.4292 -0.8122
19333TIP3    H279491   4.061   1.260   3.129 -0.9482 -0.3191 -1.0559
19334TIP3   OH279492   4.863   0.167   3.162 -0.2817 -0.0596  0.3467
19334TIP3    H179493   4.942   0.208   3.197  0.5282 -0.1958 -1.2932
19334TIP3    H279494   4.857   0.083   3.209  0.8168 -0.2636  0.1342
19335TIP3   OH279495   5.339   3.332   6.429 -0.1414 -0.5460  0.1255
19335TIP3    H179496   5.365   3.246   6.462  1.3528 -0.1746 -0.0597
19335TIP3    H279497   5.390   3.394   6.482  0.2128  0.1507 -1.0302
19336TIP3   OH279498   6.741   3.449   0.702  0.1368 -0.0026 -0.0621
19336TIP3    H179499   6.733   3.473   0.610 -0.6742  0.1444  0.0488
19336TIP3    H279500   6.788   3.522   0.742  1.6451 -0.6487 -0.6044
19337TIP3   OH279501   1.853   4.618   0.822 -0.3511 -0.3563  0.4286
19337TIP3    H179502   1.817   4.686   0.878  1.2484  0.1916  0.8277
19337TIP3    H279503   1.922   4.577   0.874 -0.2498 -1.2356 -0.3741
19338TIP3   OH279504   3.098   5.085  16.083  0.3172  0.2224  0.5742
19338TIP3    H179505   3.067   5.137  16.157  0.2026  0.2925  0.4762
19338TIP3    H279506   3.026   5.087  16.020  0.2909 -0.0957  0.5911
19339TIP3   OH279507   0.382   1.107  15.321  0.5481  0.7067 -0.3208
19339TIP3    H179508   0.377   1.012  15.321 -1.4417  0.7906 -0.7960
19339TIP3    H279509   0.372   1.131  15.413  0.4444  0.4849 -0.2737
19340TIP3   OH279510   3.755   4.004   2.170  0.0187 -0.5390 -0.2801
19340TIP3    H179511   3.785   3.973   2.085  0.6385 -0.7541  0.0128
19340TIP3    H279512   3.832   4.047   2.208 -1.3192  3.2347 -1.5344
19341TIP3   OH279513   6.723   1.510  15.110  0.1758  0.6237 -0.6495
19341TIP3    H179514   6.764   1.548  15.033 -0.5373 -0.7109 -1.7251
19341TIP3    H279515   6.721   1.416  15.092  1.3121  0.1149  1.6381
19342TIP3   OH279516   6.567   4.140  12.738 -0.2078 -0.2573 -0.0671
19342TIP3    H179517   6.571   4.062  12.682 -0.3335 -0.3532  0.0584
19342TIP3    H279518   6.614   4.114  12.817  0.8744  0.2180 -0.5333
19343TIP3   OH279519   6.339   5.485   4.671 -0.4869 -0.4610 -0.3773
19343TIP3    H179520   6.247   5.509   4.661 -0.2480  0.2005 -1.0393
19343TIP3    H279521   6.382   5.568   4.692  0.0434 -0.6698 -0.6422
19344TIP3   OH279522   5.290   2.874   0.421 -0.2005 -0.1560 -0.4515
19344TIP3    H179523   5.315   2.955   0.376  0.8823 -0.9867 -1.3815
19344TIP3    H279524   5.371   2.823   0.424 -1.0337 -1.5050 -0.5094
19345TIP3   OH279525   3.081   6.370   2.577  0.9774 -0.3349  0.1360
19345TIP3    H179526   3.019   6.408   2.515 -0.5102 -1.8918  0.6296
19345TIP3    H279527   3.146   6.325   2.523  0.2121 -0.8898 -0.3340
19346TIP3   OH279528   5.877   0.828  13.101 -0.5167 -0.6590  0.1742
19346TIP3    H179529   5.915   0.915  13.109  0.7911 -1.1182 -0.9227
19346TIP3    H279530   5.913   0.779  13.176 -2.8849  0.2832  2.0222
19347TIP3   OH279531   2.653   0.519  16.252  0.1444  0.4156 -0.4893
19347TIP3    H179532   2.740   0.558  16.255  1.3561 -2.3643  3.4989
19347TIP3    H279533   2.659   0.450  16.187  0.9693  0.1079 -0.0859
19348TIP3   OH279534   6.263   1.217   5.830  0.1059  0.2090  0.1229
19348TIP3    H179535   6.233   1.302   5.861 -0.0625  0.0799  0.3219
19348TIP3    H279536   6.183   1.172   5.802  0.3091  0.5265 -1.0169
19349TIP3   OH279537   4.821   1.433  16.598 -0.8313 -0.2525 -0.0026
19349TIP3    H179538   4.880   1.372  16.642 -1.1856 -0.6281 -0.0473
19349TIP3    H279539   4.877   1.508  16.577 -0.7554  0.1111  1.4397
19350TIP3   OH279540   0.388   6.293  14.800 -0.4644 -0.3696 -0.2914
19350TIP3    H179541   0.297   6.267  14.816 -0.0612 -1.0950  0.9334
19350TIP3    H279542   0.383   6.387  14.784 -1.3840 -0.2924  0.3738
19351TIP3   OH279543   2.135   2.895  12.619 -0.5671  0.1175 -0.3612
19351TIP3    H179544   2.216   2.946  12.614  0.2539 -1.1108  0.1555
19351TIP3    H279545   2.066   2.956  12.591  0.5269  1.1807 -0.7669
19352TIP3   OH279546   1.584   4.496   5.530  0.2983  0.5354 -0.8846
19352TIP3    H179547   1.596   4.490   5.435 -1.1142 -1.8732 -0.9498
19352TIP3    H279548   1.648   4.434   5.566  0.2185  0.7852 -0.3021
19353TIP3   OH279549   3.239   5.958  17.032 -0.5376 -0.2517 -0.8663
19353TIP3    H179550   3.257   5.955  16.938  2.5617  1.8118 -0.3641
19353TIP3    H279551   3.304   5.899  17.071 -0.0211  1.0466  0.2439
19354TIP3   OH279552   1.161   5.380  16.839 -0.9082 -0.0125 -0.5952
19354TIP3    H179553   1.145   5.297  16.883 -2.6911  0.9670  0.7208
19354TIP3    H279554   1.171   5.443  16.911 -2.4707  1.3806 -1.5629
19355TIP3   OH279555   2.974   5.912  15.398  0.1759 -0.0788 -0.3036
19355TIP3    H179556   2.883   5.938  15.415 -0.2009  0.3305 -2.7391
19355TIP3    H279557   2.967   5.833  15.345  1.2397  0.0575 -0.6639
19356TIP3   OH279558   5.604   1.212   1.660  0.1468  0.3565 -0.0786
19356TIP3    H179559   5.599   1.222   1.565 -1.4848  0.4917  0.0025
19356TIP3    H279560   5.692   1.178   1.677 -0.6764 -2.8935 -1.9346
19357TIP3   OH279561   1.695   4.638   6.673 -0.2265  0.0121 -0.1249
19357TIP3    H179562   1.788   4.641   6.651 -0.0622  3.0862  0.7724
19357TIP3    H279563   1.650   4.638   6.588  0.5570  0.5875 -0.5423
19358TIP3   OH279564   2.074   6.588  17.192 -0.1773 -0.4744 -0.0261
19358TIP3    H179565   2.141   6.657  17.194  0.8512 -1.4006 -1.2534
19358TIP3    H279566   2.121   6.509  17.219 -1.0215 -0.9415  0.0850
19359TIP3   OH279567   0.696   1.658  11.917 -0.5271 -0.2261 -0.2460
19359TIP3    H179568   0.615   1.620  11.882 -1.5266  1.1853  0.5142
19359TIP3    H279569   0.687   1.653  12.012  0.5980 -0.7033 -0.1511
19360TIP3   OH279570   4.664   0.160  14.201 -0.2006 -0.9772 -0.7932
19360TIP3    H179571   4.609   0.191  14.272 -0.8074 -0.9127 -1.2923
19360TIP3    H279572   4.700   0.240  14.162 -2.0359 -0.8491 -2.3011
19361TIP3   OH279573   3.934   1.833   1.314 -0.2044  0.8652  0.2995
19361TIP3    H179574   3.897   1.868   1.233 -0.7529 -0.7253 -0.1619
19361TIP3    H279575   4.029   1.839   1.301 -0.2654 -0.9907 -1.2172
19362TIP3   OH279576   4.194   4.110   4.499  0.1599  1.0350 -0.2064
19362TIP3    H179577   4.221   4.102   4.407  1.1723  1.2580  0.0683
19362TIP3    H279578   4.134   4.185   4.499 -0.9457  0.1707 -0.9203
19363TIP3   OH279579   3.498   5.434  17.065 -0.0972  0.2176 -0.0778
19363TIP3    H179580   3.459   5.412  16.981 -1.4139  3.0106 -0.2442
19363TIP3    H279581   3.441   5.391  17.129  0.4514 -1.2484 -0.5435
19364TIP3   OH279582   1.965   0.766  12.041 -0.0975 -0.1701  0.1784
19364TIP3    H179583   1.923   0.775  12.126  0.5211  0.5356  0.4130
19364TIP3    H279584   1.967   0.854  12.004 -0.8783 -0.5583 -0.8237
19365TIP3   OH279585   0.972   5.825   3.041  0.5749 -0.3756  0.4116
19365TIP3    H179586   1.060   5.860   3.051  1.2332 -1.6337 -0.9331
19365TIP3    H279587   0.984   5.732   3.022 -0.8171  0.2659 -4.2058
19366TIP3   OH279588   6.665   3.435  15.863 -0.6881 -0.0333  0.4889
19366TIP3    H179589   6.733   3.367  15.864 -0.7013 -0.0491  0.2966
19366TIP3    H279590   6.594   3.398  15.914 -0.6972 -0.1686  0.3797
19367TIP3   OH279591   5.000   6.360   4.246  0.1127  0.0320 -0.6276
19367TIP3    H179592   4.974   6.400   4.163  0.3969 -1.1696 -1.3068
19367TIP3    H279593   4.983   6.428   4.312 -0.8667  0.7038 -1.5636
19368TIP3   OH279594   1.851   5.898  13.720  0.0748  0.1371  0.3664
19368TIP3    H179595   1.773   5.846  13.740 -0.5695  1.7227  2.0734
19368TIP3    H279596   1.825   5.988  13.738  1.4426  0.9901 -1.7313
19369TIP3   OH279597   3.963   5.769  14.909  0.0899  0.3774 -0.2477
19369TIP3    H179598   3.944   5.723  14.828 -2.0076  0.5940  0.0949
19369TIP3    H279599   3.957   5.861  14.887 -0.0984  0.4428  0.0706
19370TIP3   OH279600   3.291   0.217  13.464  0.5659 -0.4838 -0.7861
19370TIP3    H179601   3.222   0.247  13.523 -1.3647 -2.5864 -1.9012
19370TIP3    H279602   3.335   0.147  13.512 -0.3514 -1.5001 -1.3884
19371TIP3   OH279603   2.579   0.308  12.267  0.0895  0.6662 -0.0420
19371TIP3    H179604   2.582   0.346  12.355 -1.5987 -0.9526  0.7504
19371TIP3    H279605   2.495   0.336  12.231  1.3674  2.4804 -1.7260
19372TIP3   OH279606   5.815   6.676  13.064  0.5930  0.2316 -0.0970
19372TIP3    H179607   5.822   6.657  12.971  3.8625  2.9026 -0.4743
19372TIP3    H279608   5.722   6.696  13.078  0.3152  1.1628 -3.0609
19373TIP3   OH279609   0.997   4.264  12.867 -0.1388 -0.3037 -0.6111
19373TIP3    H179610   0.933   4.289  12.933  0.8804  0.4059  0.1367
19373TIP3    H279611   1.033   4.348  12.837  1.8327 -0.7562  0.4035
19374TIP3   OH279612   2.833   6.279  11.908 -0.3472 -0.6596 -0.2971
19374TIP3    H179613   2.748   6.274  11.952 -0.0475 -4.1123  0.0139
19374TIP3    H279614   2.810   6.289  11.815 -1.1278 -2.1252 -0.2767
19375TIP3   OH279615   2.725   1.328   6.021 -0.1996  0.1009  0.4059
19375TIP3    H179616   2.775   1.408   6.009 -1.6432  0.9145 -0.3483
19375TIP3    H279617   2.786   1.257   6.000  0.2621  1.1242 -1.7623
19376TIP3   OH279618   6.438   0.452   4.749  0.0691 -0.0386 -0.1663
19376TIP3    H179619   6.478   0.539   4.746  1.3537 -0.5420  1.4727
19376TIP3    H279620   6.506   0.393   4.716 -0.8096 -0.4159 -1.3115
19377TIP3   OH279621   2.088   5.365  10.997 -0.2546 -0.6229 -0.3987
19377TIP3    H179622   2.012   5.382  11.053  2.5636  0.6220  3.2703
19377TIP3    H279623   2.103   5.447  10.950 -0.3022 -0.3559  0.0473
19378TIP3   OH279624   5.094   1.829  15.898 -0.7214 -0.0161  0.4302
19378TIP3    H179625   5.014   1.797  15.938  1.1213 -3.1717  1.8160
19378TIP3    H279626   5.141   1.872  15.969 -0.8586  1.2553 -0.2251
19379TIP3   OH279627   2.222   3.288   4.433  0.1603 -0.0404  0.5566
19379TIP3    H179628   2.137   3.269   4.391  0.6218 -2.0944  0.4844
19379TIP3    H279629   2.283   3.298   4.360  0.3298 -0.3845  0.6490
19380TIP3   OH279630   5.820   3.975   1.980 -0.1681 -0.1852  0.0751
19380TIP3    H179631   5.779   3.972   1.893  0.1208 -1.7902 -0.0239
19380TIP3    H279632   5.908   3.940   1.966  0.0135 -0.0794  0.9411
19381TIP3   OH279633   0.541   4.106  15.100 -0.6719 -0.6229 -0.2872
19381TIP3    H179634   0.539   4.171  15.029 -2.9489 -0.3357  0.0275
19381TIP3    H279635   0.625   4.122  15.143  0.5057 -0.4357 -2.5514
19382TIP3   OH279636   5.788   4.313  15.110 -0.4037 -0.3527 -0.4424
19382TIP3    H179637   5.736   4.272  15.179 -0.5064 -0.7461 -0.7496
19382TIP3    H279638   5.804   4.402  15.142  0.3537 -0.8239  0.5138
19383TIP3   OH279639   6.819   2.116  14.047 -0.2895  0.3028  0.6403
19383TIP3    H179640   6.815   2.035  14.097 -0.7738 -0.3610 -0.4492
19383TIP3    H279641   6.733   2.122  14.005  1.2448 -0.9251 -2.8281
19384TIP3   OH279642   6.200   0.855   4.486  0.0110 -0.2621  0.3619
19384TIP3    H179643   6.250   0.934   4.467 -0.1469 -0.5178 -1.1168
19384TIP3    H279644   6.117   0.868   4.441 -1.2185  0.0799  2.6357
19385TIP3   OH279645   2.433   5.617   4.620  0.2313  0.3158  0.3079
19385TIP3    H179646   2.489   5.617   4.697 -0.6107  0.1868  0.9192
19385TIP3    H279647   2.472   5.552   4.562  0.0686 -0.5723  1.1925
19386TIP3   OH279648   5.371   3.690   5.786  0.3619  0.2239  0.1494
19386TIP3    H179649   5.302   3.640   5.743  0.8687 -1.7825  1.5991
19386TIP3    H279650   5.366   3.664   5.878  1.9742  1.2827  0.5541
19387TIP3   OH279651   2.552   1.551  12.736  0.5228 -0.0093  0.1898
19387TIP3    H179652   2.571   1.462  12.765  1.2302  0.1316  0.1589
19387TIP3    H279653   2.467   1.544  12.692 -0.0344 -0.4287  1.3019
19388TIP3   OH279654   0.470   6.034   0.285  0.0275  0.0349  0.4472
19388TIP3    H179655   0.529   5.966   0.252 -1.4045 -1.0649  0.1511
19388TIP3    H279656   0.386   5.990   0.298 -0.3438  1.2239  2.3517
19389TIP3   OH279657   4.847   6.390   3.893  0.1217  0.1892  0.3750
19389TIP3    H179658   4.906   6.317   3.909  2.3416  1.9431  0.4318
19389TIP3    H279659   4.860   6.411   3.800  0.6642  1.5008  0.7415
19390TIP3   OH279660   0.055   0.102  14.858  0.3180  0.3559 -0.2031
19390TIP3    H179661   0.072   0.017  14.819  0.8434 -0.7749  2.3853
19390TIP3    H279662  -0.032   0.093  14.898  0.1834  1.1751 -0.3053
19391TIP3   OH279663   0.102   6.655  12.567 -0.3289 -0.4255 -0.6616
19391TIP3    H179664   0.135   6.703  12.643 -0.2578 -0.2225 -0.8218
19391TIP3    H279665   0.043   6.717  12.523  0.5930 -0.1198 -1.4658
19392TIP3   OH279666   4.709   3.631  12.789 -0.2913  0.2139 -0.1539
19392TIP3    H179667   4.628   3.581  12.778  0.1057 -0.8837  1.6692
19392TIP3    H279668   4.775   3.580  12.742  0.0576 -0.9019  1.4753
19393TIP3   OH279669   6.419   6.775  14.806  0.3653  0.1389  0.3871
19393TIP3    H179670   6.454   6.757  14.719  1.8890  0.2441  0.9629
19393TIP3    H279671   6.359   6.849  14.793  1.8646  1.2743 -0.3199
19394TIP3   OH279672   1.774   0.441  15.717 -0.6021  0.2827 -0.0117
19394TIP3    H179673   1.766   0.489  15.635 -1.6205  0.4307  0.1714
19394TIP3    H279674   1.782   0.508  15.784  1.4386  0.1578 -0.0871
19395TIP3   OH279675   0.793   3.186  11.787 -0.0251  0.1465 -0.1764
19395TIP3    H179676   0.715   3.224  11.826 -0.2124 -0.7105  0.3021
19395TIP3    H279677   0.780   3.091  11.794  0.9473 -0.0051 -0.3007
19396TIP3   OH279678   1.438   2.639  11.120  0.1750  0.7640  0.3183
19396TIP3    H179679   1.442   2.634  11.025 -3.0150  1.1473  0.1143
19396TIP3    H279680   1.421   2.549  11.148  0.5435  0.7507  0.5085
19397TIP3   OH279681   0.412   5.137  13.943  0.1034  0.0328 -0.0630
19397TIP3    H179682   0.465   5.169  14.015 -0.4056  0.4316  0.1419
19397TIP3    H279683   0.371   5.216  13.907  0.9538 -0.0536 -1.2787
19398TIP3   OH279684   4.705   5.156  15.603  0.5398  0.2957  0.3786
19398TIP3    H179685   4.652   5.235  15.593  0.4443  0.0945 -0.7463
19398TIP3    H279686   4.669   5.112  15.680  0.0014  0.8779  0.4601
19399TIP3   OH279687   5.574   5.898   1.928 -0.5793 -0.3156 -0.3750
19399TIP3    H179688   5.496   5.844   1.934 -1.2743  0.5679 -1.1612
19399TIP3    H279689   5.599   5.894   1.836 -0.8373  0.9533 -0.5127
19400TIP3   OH279690   2.700   3.230   6.351 -0.2937  0.2167  0.0024
19400TIP3    H179691   2.791   3.202   6.362 -0.3587  0.1248  0.2947
19400TIP3    H279692   2.706   3.307   6.294 -0.1406 -0.6024 -1.1156
19401TIP3   OH279693   5.036   5.359  17.119  0.1967  0.2050  0.4549
19401TIP3    H179694   5.063   5.318  17.201 -1.0697  0.4466  1.0079
19401TIP3    H279695   5.000   5.443  17.145 -1.4332 -0.2763 -0.2004
19402TIP3   OH279696   0.634   6.054   1.769 -0.1720 -0.2692  0.5819
19402TIP3    H179697   0.671   5.967   1.784  2.0156  0.6039  0.4487
19402TIP3    H279698   0.613   6.056   1.676  0.6371 -0.3426  0.3958
19403TIP3   OH279699   3.802   1.998   6.056  0.5561  0.3555  0.2059
19403TIP3    H179700   3.708   1.990   6.072  0.4616 -0.1159 -0.5731
19403TIP3    H279701   3.842   1.938   6.119  0.3757  1.0947  1.0276
19404TIP3   OH279702   4.328   0.068   2.087 -0.9171 -0.9101 -0.1826
19404TIP3    H179703   4.293   0.120   2.015 -1.1499 -0.3842  0.3108
19404TIP3    H279704   4.407   0.115   2.115 -0.8688 -1.0727 -0.0420
19405TIP3   OH279705   1.155   5.609  13.142 -0.1444  0.0706  0.6898
19405TIP3    H179706   1.094   5.537  13.123  0.1473  0.0533 -0.2027
19405TIP3    H279707   1.157   5.661  13.061 -1.7351  2.1094  1.9431
19406TIP3   OH279708   4.535   5.957  15.574  0.0149 -0.2542  0.4497
19406TIP3    H179709   4.455   5.951  15.521  0.2424 -0.9880  0.1847
19406TIP3    H279710   4.601   5.988  15.512 -0.2696  1.3027  0.8921
19407TIP3   OH279711   2.603   2.364  16.178 -0.4695 -0.7316  0.5300
19407TIP3    H179712   2.521   2.321  16.203 -1.1690  0.5941  0.5483
19407TIP3    H279713   2.671   2.305  16.210 -1.4058 -1.7184  0.7514
19408TIP3   OH279714   1.245   4.439   5.287  0.0616  0.1154 -1.1582
19408TIP3    H179715   1.180   4.370   5.302  1.5487 -0.8720  1.0134
19408TIP3    H279716   1.325   4.392   5.265  0.3712  1.2787 -2.5432
19409TIP3   OH279717   0.283   1.322   0.322 -0.1651  0.4791 -0.1151
19409TIP3    H179718   0.346   1.380   0.279 -1.7225  1.5867 -0.9528
19409TIP3    H279719   0.205   1.376   0.334 -2.9596 -2.3723 -4.1457
19410TIP3   OH279720   4.258   1.817  13.434 -0.2635 -0.3840  0.0146
19410TIP3    H179721   4.236   1.724  13.431 -0.5337 -0.3301  0.3040
19410TIP3    H279722   4.204   1.856  13.365 -1.4143 -0.1849  1.0148
19411TIP3   OH279723   0.587   1.591   5.323  0.7318 -0.2240 -0.3617
19411TIP3    H179724   0.638   1.551   5.252  0.9516  0.2114 -0.4527
19411TIP3    H279725   0.644   1.661   5.357  0.6608 -0.4872  0.2979
19412TIP3   OH279726   0.775   3.370  13.342  0.6998 -0.2582  0.1872
19412TIP3    H179727   0.772   3.289  13.291 -0.0639 -0.1690  0.0892
19412TIP3    H279728   0.783   3.439  13.276 -2.1319 -0.0001  0.0450
19413TIP3   OH279729   0.597   3.767   5.491  0.0672  0.1809  0.6129
19413TIP3    H179730   0.554   3.826   5.429 -1.2475  0.0314  1.3673
19413TIP3    H279731   0.627   3.693   5.438 -0.8711  0.1545  0.1145
19414TIP3   OH279732   1.993   4.854  16.989 -0.1923  0.0643 -0.1035
19414TIP3    H179733   2.064   4.874  17.050  0.9631 -2.2307 -0.6118
19414TIP3    H279734   2.034   4.858  16.902 -0.7048 -1.0548 -0.4114
19415TIP3   OH279735   4.735   2.671  13.584 -0.3367  0.7480 -0.1783
19415TIP3    H179736   4.645   2.643  13.603  0.1922 -1.1589 -0.4335
19415TIP3    H279737   4.726   2.721  13.503 -1.3621  1.7640  0.5380
19416TIP3   OH279738   1.743   0.156   5.719 -0.1995 -0.2824 -0.1751
19416TIP3    H179739   1.836   0.148   5.695  0.2003  1.3086  0.7793
19416TIP3    H279740   1.742   0.148   5.814 -0.9176  0.8499 -0.0866
19417TIP3   OH279741   3.931   3.718  13.463  0.0457 -0.1546 -0.3058
19417TIP3    H179742   3.914   3.791  13.522 -0.3145  0.0479 -0.6559
19417TIP3    H279743   3.859   3.721  13.400 -0.4814 -1.3605  0.2198
19418TIP3   OH279744   1.418   0.777  11.828 -0.2111  0.1568  0.9213
19418TIP3    H179745   1.343   0.827  11.858 -0.7592 -1.5926  2.5689
19418TIP3    H279746   1.392   0.685  11.839  0.8588 -0.5217 -1.7803
19419TIP3   OH279747   6.182   0.602   4.605 -0.2634 -0.3717  0.4634
19419TIP3    H179748   6.196   0.671   4.540  0.5730  1.2107  2.2479
19419TIP3    H279749   6.110   0.634   4.659  0.4763 -0.6286  1.6265
19420TIP3   OH279750   6.534   3.167   2.080 -0.0051  0.0735 -0.1117
19420TIP3    H179751   6.496   3.090   2.122  1.3002  0.2715  1.4989
19420TIP3    H279752   6.489   3.241   2.120  0.5959  0.2314  0.2803
19421TIP3   OH279753   0.849   3.253  15.781 -0.3568  0.1951  0.0040
19421TIP3    H179754   0.805   3.280  15.700 -1.4957 -0.2879  0.4429
19421TIP3    H279755   0.850   3.157  15.777 -3.6828 -0.0106  2.2063
19422TIP3   OH279756   5.830   5.974  15.402  0.6268 -0.1461 -0.2062
19422TIP3    H179757   5.835   5.972  15.306 -0.1481 -0.2259 -0.2474
19422TIP3    H279758   5.736   5.966  15.421  0.7366  0.3540  0.5460
19423TIP3   OH279759   3.940   2.873  14.335 -0.3102 -0.4778 -0.2590
19423TIP3    H179760   4.013   2.908  14.387 -1.3287  1.8564 -0.3062
19423TIP3    H279761   3.875   2.847  14.400 -0.0361 -1.1546 -0.2577
19424TIP3   OH279762   6.453   1.113   1.117 -0.1433  0.0258  0.0741
19424TIP3    H179763   6.452   1.168   1.195 -0.8014 -0.1712  0.2112
19424TIP3    H279764   6.368   1.129   1.075 -0.5227 -1.1970  0.3382
19425TIP3   OH279765   4.835   1.259  14.378  0.8710 -0.0045  0.7092
19425TIP3    H179766   4.840   1.340  14.328  0.4711  0.3580  1.2615
19425TIP3    H279767   4.923   1.248  14.415  1.2136 -0.3490 -0.1714
19426TIP3   OH279768   4.236   5.876  13.334  0.0553 -0.3733  0.1638
19426TIP3    H179769   4.261   5.915  13.417  0.0403 -0.0892  0.0353
19426TIP3    H279770   4.164   5.931  13.302 -1.0991 -1.4978  0.7875
19427TIP3   OH279771   1.000   2.487  13.467  0.2181 -0.3443  0.0941
19427TIP3    H179772   0.917   2.470  13.422 -0.7849  2.3103  0.8445
19427TIP3    H279773   1.063   2.500  13.396 -0.7153  0.8523 -0.5362
19428TIP3   OH279774   6.033   2.328  13.520  0.6712  0.0532  0.5589
19428TIP3    H179775   6.089   2.372  13.457  2.7764 -0.3999  2.0454
19428TIP3    H279776   5.952   2.309  13.472  1.6267  1.0890 -1.5109
19429TIP3   OH279777   3.835   1.496   4.733  0.0457  0.2832 -0.2117
19429TIP3    H179778   3.868   1.412   4.764 -0.6724  0.0457 -0.0842
19429TIP3    H279779   3.743   1.479   4.712  0.2172  0.7247 -1.3496
19430TIP3   OH279780   4.366   1.048   4.443 -0.4264 -0.2455  0.1287
19430TIP3    H179781   4.365   1.110   4.516  0.6505  1.1368 -1.0031
19430TIP3    H279782   4.431   1.084   4.382 -1.2548 -1.4188 -1.4783
19431TIP3   OH279783   1.290   1.779  10.894 -0.3395  0.3439  0.1155
19431TIP3    H179784   1.227   1.727  10.845  1.5926 -1.2689 -0.7339
19431TIP3    H279785   1.298   1.861  10.845 -0.5037 -0.1333 -0.7114
19432TIP3   OH279786   2.061   4.622   2.611 -0.5823 -0.4210 -0.4063
19432TIP3    H179787   2.132   4.680   2.639 -1.0536  1.5652 -3.1254
19432TIP3    H279788   2.102   4.535   2.606  1.1747  0.3682 -0.1644
19433TIP3   OH279789   2.459   1.475   2.364  0.9032 -0.2223  0.6467
19433TIP3    H179790   2.514   1.477   2.285 -0.4621  0.2857 -0.2974
19433TIP3    H279791   2.449   1.381   2.383 -1.4368 -0.4880 -1.6757
19434TIP3   OH279792   4.282   3.685   0.758  0.0743  0.5529 -0.2621
19434TIP3    H179793   4.313   3.772   0.785  2.2546 -0.0402 -0.7708
19434TIP3    H279794   4.323   3.671   0.673 -1.6119 -0.3030 -0.9574
19435TIP3   OH279795   5.065   0.579  12.836 -0.7426  0.4342  0.0580
19435TIP3    H179796   5.063   0.572  12.741  1.0234 -2.1469  0.1549
19435TIP3    H279797   5.027   0.496  12.867 -1.0707  1.1365  1.5993
19436TIP3   OH279798   5.094   3.095   3.885  0.0447 -0.1184 -0.3099
19436TIP3    H179799   5.028   3.152   3.924  0.3923  1.3154 -1.7596
19436TIP3    H279800   5.069   3.006   3.911 -1.4910  0.5558  0.5245
19437TIP3   OH279801   0.999   6.708   1.292  0.5571 -0.5018 -0.2840
19437TIP3    H179802   1.018   6.751   1.376  0.1652 -2.0639  0.6353
19437TIP3    H279803   0.946   6.771   1.244  2.1132  1.0476 -0.0089
19438TIP3   OH279804   2.385   2.993  12.474  0.4271  0.2225  0.7366
19438TIP3    H179805   2.325   3.063  12.500  0.0759 -0.1658  0.9784
19438TIP3    H279806   2.412   3.016  12.385  1.0583  1.1676  1.1645
19439TIP3   OH279807   1.480   6.396  11.121 -0.2444  0.4515 -1.1401
19439TIP3    H179808   1.472   6.419  11.029 -1.2482  0.4911 -1.0512
19439TIP3    H279809   1.414   6.449  11.165  0.5645  0.8095 -0.3266
19440TIP3   OH279810   6.445   1.159  14.805  1.0514 -0.0197 -0.0091
19440TIP3    H179811   6.440   1.121  14.717  0.5976  0.9012 -0.3951
19440TIP3    H279812   6.460   1.252  14.790 -1.0221  0.4780  0.8426
19441TIP3   OH279813   0.794   4.363   4.431  0.2439 -0.2290 -0.9136
19441TIP3    H179814   0.739   4.336   4.357 -1.0230  2.0180 -0.8110
19441TIP3    H279815   0.882   4.333   4.406 -0.4251 -0.8422 -2.6391
19442TIP3   OH279816   6.437   6.138  12.822  0.2871 -0.0834  0.2235
19442TIP3    H179817   6.430   6.052  12.781  0.9456  0.7148 -1.6187
19442TIP3    H279818   6.527   6.165  12.806 -0.1366  1.2886  0.0788
19443TIP3   OH279819   1.809   2.403  16.658 -0.1906  0.0262  0.3487
19443TIP3    H179820   1.743   2.384  16.725  1.2865 -3.1183  1.0083
19443TIP3    H279821   1.893   2.389  16.702  0.8678  0.3346 -1.5062
19444TIP3   OH279822   6.139   4.653  13.415 -0.2263 -0.8096  0.0914
19444TIP3    H179823   6.198   4.592  13.370  1.0114 -0.0048  0.6082
19444TIP3    H279824   6.160   4.644  13.508 -1.2647 -0.8705  0.3297
19445TIP3   OH279825   4.861   0.706   5.090  0.5159 -0.0795 -0.5801
19445TIP3    H179826   4.922   0.644   5.049  0.6366  0.5182 -1.3288
19445TIP3    H279827   4.914   0.754   5.153 -0.1638 -2.5454  1.9716
19446TIP3   OH279828   4.626   5.508  14.939 -0.6386 -0.2375 -0.1938
19446TIP3    H179829   4.681   5.498  15.017  1.6773 -1.3577 -1.8871
19446TIP3    H279830   4.577   5.426  14.933 -0.8196 -0.1495  0.0773
19447TIP3   OH279831   0.182   1.144  13.036  0.3655 -0.2308  1.0474
19447TIP3    H179832   0.172   1.174  12.946  2.6194  0.7792  1.1020
19447TIP3    H279833   0.127   1.204  13.087  3.2275  2.6063  0.9156
19448TIP3   OH279834   3.873   6.362  13.950  0.8498 -0.3116  0.0413
19448TIP3    H179835   3.788   6.355  13.906  0.2391 -2.3378  1.5075
19448TIP3    H279836   3.910   6.274  13.948  0.6819 -0.5535  3.8013
19449TIP3   OH279837   6.186   0.850   6.565  0.7729 -0.2129 -0.3728
19449TIP3    H179838   6.093   0.829   6.564  1.0793 -1.7133  0.5385
19449TIP3    H279839   6.226   0.781   6.512  1.1227  1.8127 -2.8536
19450TIP3   OH279840   4.994   2.203   5.473 -0.2312 -0.1918 -0.9855
19450TIP3    H179841   4.996   2.298   5.486  1.1024 -0.2173 -0.9093
19450TIP3    H279842   5.074   2.184   5.425  0.2701 -1.4713  0.3162
19451TIP3   OH279843   0.770   2.205   5.087 -0.2774  0.0461  0.0614
19451TIP3    H179844   0.816   2.219   5.004 -0.9203 -0.6977 -0.4247
19451TIP3    H279845   0.736   2.116   5.081 -1.6321  0.5238  0.4882
19452TIP3   OH279846   5.009   6.401  16.050  0.2347 -0.1722  0.7234
19452TIP3    H179847   4.942   6.338  16.023 -0.4991  1.2725 -0.9000
19452TIP3    H279848   5.052   6.360  16.125 -1.2668 -1.9095  0.6526
19453TIP3   OH279849   1.721   4.014   4.651 -0.5725 -0.0842 -0.1514
19453TIP3    H179850   1.786   4.039   4.586 -1.3085  1.8013 -0.1826
19453TIP3    H279851   1.670   3.945   4.609  0.0574 -0.0952 -0.9073
19454TIP3   OH279852   4.132   3.704  13.301  0.2938 -0.4033  0.2076
19454TIP3    H179853   4.144   3.797  13.280  0.1894 -0.8798 -2.0878
19454TIP3    H279854   4.060   3.703  13.365  0.3851  1.0905  0.3555
19455TIP3   OH279855   2.315   4.787   2.287  0.0507 -0.9590  0.2265
19455TIP3    H179856   2.372   4.814   2.359 -1.9987 -1.6636  2.1807
19455TIP3    H279857   2.264   4.865   2.267 -0.8482 -1.3320  1.0019
19456TIP3   OH279858   2.522   3.489  14.396 -0.0560  0.0894  0.0561
19456TIP3    H179859   2.435   3.527  14.403 -0.4210 -0.9089  1.1986
19456TIP3    H279860   2.548   3.503  14.305 -1.6861 -0.1994 -0.4632
19457TIP3   OH279861   6.811   3.706   2.174 -0.4248  0.1677  0.2283
19457TIP3    H179862   6.779   3.761   2.102  1.0487 -0.4813 -0.9684
19457TIP3    H279863   6.803   3.617   2.140  1.9987 -0.0449  0.1189
19458TIP3   OH279864   6.014   5.616  15.802  0.3968 -0.1045 -0.1282
19458TIP3    H179865   6.081   5.668  15.845  1.0048 -0.2832 -0.8591
19458TIP3    H279866   6.035   5.621  15.709 -0.1348 -0.8057 -0.2891
19459TIP3   OH279867   3.867   4.182  11.138  0.6206  0.1348 -0.5940
19459TIP3    H179868   3.871   4.091  11.109  0.3688  0.6174 -2.1797
19459TIP3    H279869   3.941   4.224  11.095  0.0150  0.9544 -0.8466
19460TIP3   OH279870   2.558   2.677  13.354 -0.0278  1.0162  0.0071
19460TIP3    H179871   2.490   2.648  13.415  0.8559 -0.5703  0.2637
19460TIP3    H279872   2.588   2.597  13.312  0.7415  1.8713 -1.0894
19461TIP3   OH279873   5.582   3.006   5.360  0.4078 -0.3827  0.5773
19461TIP3    H179874   5.527   2.973   5.289 -0.4713 -1.1539  1.6146
19461TIP3    H279875   5.651   2.940   5.371 -1.0801 -1.6797  2.3343
19462TIP3   OH279876   6.753   3.121  11.301 -0.4278 -0.1435  0.0989
19462TIP3    H179877   6.713   3.206  11.322 -0.8881 -0.7662  1.8026
19462TIP3    H279878   6.685   3.057  11.320  1.2029 -1.1956  2.6421
19463TIP3   OH279879   2.255   1.973   0.051 -0.2173  0.7222  0.2709
19463TIP3    H179880   2.198   2.049   0.043  0.8266  1.4594 -0.2181
19463TIP3    H279881   2.315   1.979  -0.024  0.5534  0.0072  0.8165
19464TIP3   OH279882   1.041   5.288   3.676 -0.2950 -0.3115  0.1128
19464TIP3    H179883   1.086   5.227   3.734  1.3292  2.7671  2.2313
19464TIP3    H279884   0.955   5.301   3.715  0.0599  0.2059  0.7270
19465TIP3   OH279885   3.981   1.089   2.367  0.1440 -0.0030 -0.4389
19465TIP3    H179886   3.913   1.128   2.422  1.1166  0.0866  0.7255
19465TIP3    H279887   3.993   1.153   2.297 -1.3381 -0.2707 -0.9600
19466TIP3   OH279888   1.104   4.904  12.475 -0.6650  0.1668  0.1141
19466TIP3    H179889   1.109   4.882  12.382  0.4944 -0.1841  0.2549
19466TIP3    H279890   1.035   4.970  12.480 -0.1348  0.8337 -1.1263
19467TIP3   OH279891   2.029   5.405  13.279 -0.4410  0.3104 -0.0414
19467TIP3    H179892   2.039   5.321  13.324  0.0478  1.4083  1.9548
19467TIP3    H279893   2.077   5.394  13.197  0.4333 -1.0446  0.6347
19468TIP3   OH279894   1.452   6.027   3.562  0.2670 -0.2691 -0.0639
19468TIP3    H179895   1.499   5.988   3.635 -0.4473 -0.9464  0.0368
19468TIP3    H279896   1.437   5.954   3.501  0.7601  0.2655 -0.8324
19469TIP3   OH279897   0.094   4.770   6.646  0.3204  0.5688  0.3313
19469TIP3    H179898   0.124   4.778   6.736  0.1803  2.3322  0.2212
19469TIP3    H279899   0.137   4.690   6.614 -1.2852 -1.2660  2.5856
19470TIP3   OH279900   5.610   1.913  15.286  1.0277 -0.2327  0.9678
19470TIP3    H179901   5.531   1.868  15.256  1.7247 -1.4423  0.9116
19470TIP3    H279902   5.640   1.962  15.210  2.8151 -3.3112 -0.4119
19471TIP3   OH279903   0.278   4.885  15.931  0.6052 -0.5918 -0.2000
19471TIP3    H179904   0.241   4.970  15.906  1.3355  0.2410  1.4121
19471TIP3    H279905   0.333   4.859  15.857  0.1541  0.2272 -0.8196
19472TIP3   OH279906   5.696   0.520  14.091 -0.4201 -0.0234  0.5147
19472TIP3    H179907   5.693   0.584  14.162  2.0492  0.4349  0.2694
19472TIP3    H279908   5.747   0.564  14.022  0.1844 -1.7468 -0.1624
19473TIP3   OH279909   1.681   5.742  11.631 -0.2035 -0.5238 -0.3640
19473TIP3    H179910   1.746   5.691  11.582 -1.2700 -0.8650 -1.4475
19473TIP3    H279911   1.609   5.680  11.647 -0.1205 -0.2482  1.1338
19474TIP3   OH279912   1.229   4.762  11.602  0.0009 -0.0451 -0.4092
19474TIP3    H179913   1.286   4.745  11.677  0.9414  2.0244 -0.6162
19474TIP3    H279914   1.251   4.692  11.539  0.6549 -0.6001  0.4214
19475TIP3   OH279915   1.128   2.608  13.254  0.1563  0.1538  0.0140
19475TIP3    H179916   1.036   2.589  13.231 -0.6068  1.2821  2.0890
19475TIP3    H279917   1.163   2.649  13.175 -1.4962  0.9373 -0.3465
19476TIP3   OH279918   0.527   5.022  13.359 -0.3634 -0.5376  0.1741
19476TIP3    H179919   0.486   5.084  13.299  0.8759 -1.9865 -2.2189
19476TIP3    H279920   0.601   5.070  13.397 -1.0041  0.2962  0.3763
19477TIP3   OH279921   3.621   1.976  15.237  0.1346  0.8991  0.5212
19477TIP3    H179922   3.648   1.885  15.248 -0.6722  0.3642 -1.5688
19477TIP3    H279923   3.702   2.025  15.229  0.5678  0.0577 -0.3941
19478TIP3   OH279924   2.256   5.146  16.158  0.0985  0.7361 -0.4952
19478TIP3    H179925   2.334   5.175  16.205  1.5571 -0.2529 -2.2462
19478TIP3    H279926   2.247   5.208  16.086  0.9437 -0.8155 -1.9602
19479TIP3   OH279927   5.133   0.372  13.428 -0.3567 -0.3540  0.1695
19479TIP3    H179928   5.105   0.296  13.376 -0.5735 -0.5333  0.5415
19479TIP3    H279929   5.219   0.395  13.393  0.0047 -1.1882  0.4909
19480TIP3   OH279930   1.243   5.837   4.319  0.1795  0.1371 -0.1323
19480TIP3    H179931   1.172   5.844   4.384  0.7008  1.6011  0.3108
19480TIP3    H279932   1.217   5.765   4.263 -0.3910 -1.0439  1.5988
19481TIP3   OH279933   6.228   2.022   2.573  0.1668 -0.0038  0.1921
19481TIP3    H179934   6.220   2.109   2.613 -1.9311  0.0100 -0.1974
19481TIP3    H279935   6.207   2.036   2.480 -1.8896 -1.1638  0.4379
19482TIP3   OH279936   6.034   3.506  16.706 -0.3421 -0.1934 -0.5516
19482TIP3    H179937   5.973   3.562  16.657 -0.6518  0.5711  0.6877
19482TIP3    H279938   6.000   3.418  16.694 -1.7125  0.2256  0.1195
19483TIP3   OH279939   3.350   6.170  14.613 -0.1496  0.2958  0.1604
19483TIP3    H179940   3.320   6.256  14.585 -1.8420 -0.3375 -0.0366
19483TIP3    H279941   3.302   6.152  14.693  1.3699  0.1931  1.0714
19484TIP3   OH279942   3.893   5.735   4.741  0.2366  0.1889  0.2585
19484TIP3    H179943   3.931   5.695   4.819  2.6252 -0.7970 -1.3324
19484TIP3    H279944   3.839   5.666   4.702  0.0749  0.2629  0.3507
19485TIP3   OH279945   3.977   5.034  16.890  0.3056 -0.2775  0.1084
19485TIP3    H179946   3.996   5.056  16.799  1.3749 -0.7045  0.2144
19485TIP3    H279947   4.028   5.097  16.941  0.5839 -0.7395  0.4068
19486TIP3   OH279948   1.936   4.520  13.919  0.6111  0.5179 -0.0856
19486TIP3    H179949   1.844   4.512  13.946  0.9721  1.1431  1.3639
19486TIP3    H279950   1.940   4.476  13.835 -0.0530 -3.7636  1.9736
19487TIP3   OH279951   3.013   1.424  13.213  0.7494  0.1159  0.1413
19487TIP3    H179952   3.050   1.346  13.172 -1.8535 -0.9295 -0.2966
19487TIP3    H279953   3.090   1.475  13.242  2.5077 -1.5007 -1.5700
19488TIP3   OH279954   5.799   0.418   5.104  0.2153  0.4169  0.1795
19488TIP3    H179955   5.716   0.386   5.069  0.6930 -1.2233  0.4743
19488TIP3    H279956   5.782   0.430   5.198  0.3579 -0.1319  0.2798
19489TIP3   OH279957   2.524   5.712  15.410 -1.2914  0.6118  0.0944
19489TIP3    H179958   2.442   5.755  15.386 -1.2556 -0.8903 -3.0288
19489TIP3    H279959   2.570   5.700  15.327  1.0827 -0.5884  1.5225
19490TIP3   OH279960   3.544   2.069   4.050  0.0767  0.5300 -0.0889
19490TIP3    H179961   3.637   2.052   4.032  0.6561  2.0684  1.3292
19490TIP3    H279962   3.508   2.092   3.964  1.0482  0.1631 -0.6162
19491TIP3   OH279963   6.738   6.672   3.530  0.2447 -0.6559 -0.4594
19491TIP3    H179964   6.778   6.610   3.591  0.7478 -0.1518 -0.2609
19491TIP3    H279965   6.808   6.693   3.468 -0.1832 -0.9566 -1.0496
19492TIP3   OH279966   2.684   1.083   0.535  0.6634  0.7803 -0.2397
19492TIP3    H179967   2.645   1.001   0.564  0.0506  1.0815 -0.1894
19492TIP3    H279968   2.704   1.069   0.442  1.5009  0.2307  0.0243
19493TIP3   OH279969   3.454   6.741   4.611  0.5756  0.3656  0.0181
19493TIP3    H179970   3.519   6.700   4.669 -0.7671 -1.2859  0.4145
19493TIP3    H279971   3.490   6.731   4.523  0.6508 -1.0060  0.1893
19494TIP3   OH279972   3.989   0.663   1.398  0.0266 -0.1026 -0.1481
19494TIP3    H179973   3.979   0.700   1.486 -0.9144 -0.3987 -0.1285
19494TIP3    H279974   4.010   0.739   1.343  1.0426  0.0251  0.3972
19495TIP3   OH279975   4.698   2.275  14.364  0.1384  0.5619  0.0212
19495TIP3    H179976   4.762   2.212  14.329  1.1836  1.6577 -0.0963
19495TIP3    H279977   4.656   2.312  14.287  1.2389  1.7454 -0.0258
19496TIP3   OH279978   1.728   5.301   3.171 -0.7349 -0.0043 -0.1293
19496TIP3    H179979   1.789   5.342   3.232 -1.3491 -1.2527  1.3700
19496TIP3    H279980   1.702   5.372   3.111  0.9191  0.9048  0.2116
19497TIP3   OH279981   2.510   3.835  14.539  0.3073  0.5635  0.5467
19497TIP3    H179982   2.462   3.799  14.613  0.6374 -0.6320  0.1858
19497TIP3    H279983   2.446   3.839  14.468  0.4886 -0.1425  0.3376
19498TIP3   OH279984   3.747   0.491  12.651 -0.1153  0.5237 -0.0769
19498TIP3    H179985   3.666   0.495  12.702  0.2304 -0.5638  0.5786
19498TIP3    H279986   3.814   0.528  12.709  0.4435 -1.5105  0.6320
19499TIP3   OH279987   0.241   0.459  12.359  0.4561  0.3351 -0.2310
19499TIP3    H179988   0.308   0.423  12.418  0.5700 -0.2166 -0.6887
19499TIP3    H279989   0.175   0.497  12.417  0.0950 -1.0516  0.2812
19500TIP3   OH279990   3.205   4.960  15.028  0.4050  0.2596  0.0797
19500TIP3    H179991   3.143   4.990  15.095 -0.0898  0.0912 -0.2962
19500TIP3    H279992   3.223   4.869  15.052 -0.6070 -0.1358 -0.6180
19501TIP3   OH279993   2.706   4.093   3.329  0.2819 -0.0455  0.1821
19501TIP3    H179994   2.753   4.053   3.255  0.2077 -1.0828  0.6942
19501TIP3    H279995   2.670   4.174   3.292  0.9269 -0.1459 -0.7061
19502TIP3   OH279996   3.209   3.198  14.336  0.1335 -0.1863 -0.1853
19502TIP3    H179997   3.150   3.161  14.270 -0.2422 -0.9896  0.6008
19502TIP3    H279998   3.151   3.230  14.405  0.6587 -1.8924  1.0607
19503TIP3   OH279999   4.225   4.876  15.808 -0.6232  0.4063 -0.1340
19503TIP3    H180000   4.134   4.894  15.782 -0.1585  1.8239 -0.8121
19503TIP3    H280001   4.259   4.960  15.838  0.8056  0.1249 -0.9051
19504TIP3   OH280002   2.714   2.119   4.121  0.0483  0.3149 -0.1996
19504TIP3    H180003   2.745   2.064   4.049  0.0045 -0.4027  0.3212
19504TIP3    H280004   2.766   2.199   4.114  1.1542 -0.3735 -0.0912
19505TIP3   OH280005   1.293   6.686   1.222  0.2837 -0.7721  0.0263
19505TIP3    H180006   1.210   6.709   1.264  0.7787 -1.8322  1.6663
19505TIP3    H280007   1.269   6.662   1.133 -0.9443  0.5884 -0.0289
19506TIP3   OH280008   1.762   0.793   5.905 -0.7996  0.3076  0.2881
19506TIP3    H180009   1.808   0.709   5.903 -0.7284  0.3064  1.6846
19506TIP3    H280010   1.782   0.829   5.991 -0.5482  1.9177 -0.4228
19507TIP3   OH280011   0.410   5.111   3.347 -0.4037  0.5298  0.4474
19507TIP3    H180012   0.387   5.193   3.389 -1.3654  0.0966  0.7655
19507TIP3    H280013   0.449   5.137   3.263 -0.6478  1.3069  0.5762
19508TIP3   OH280014   4.171   4.318  12.603  0.3788  0.2505  0.0634
19508TIP3    H180015   4.091   4.268  12.616  0.5037  0.3219  1.1995
19508TIP3    H280016   4.193   4.307  12.511 -0.6686 -0.1717 -0.1337
19509TIP3   OH280017   6.221   5.524   0.714  0.2471  0.1416 -0.1235
19509TIP3    H180018   6.192   5.435   0.732  0.2454  0.1414 -0.1271
19509TIP3    H280019   6.199   5.574   0.793 -0.7269  0.3741 -0.5336
19510TIP3   OH280020   6.486   0.792   5.709 -0.2045 -0.0558 -0.2627
19510TIP3    H180021   6.450   0.714   5.668 -2.8137  0.9785 -0.0784
19510TIP3    H280022   6.470   0.780   5.803  0.2258  0.2722 -0.1452
19511TIP3   OH280023   2.187   6.339   0.626 -0.0094 -0.3030 -0.2472
19511TIP3    H180024   2.194   6.338   0.531  2.0948  1.5937 -0.1727
19511TIP3    H280025   2.109   6.391   0.644 -1.3508 -2.0327 -0.9264
19512TIP3   OH280026   0.780   5.723  13.785 -0.5064  0.2334 -0.5989
19512TIP3    H180027   0.867   5.689  13.804 -1.4037 -1.7946  0.0068
19512TIP3    H280028   0.795   5.804  13.736  1.7326  0.7343  0.8506
19513TIP3   OH280029   1.994   4.309   0.113  0.0963 -0.2635  0.6302
19513TIP3    H180030   2.071   4.272   0.156  0.7418  1.0377  0.6470
19513TIP3    H280031   2.028   4.386   0.067 -1.0071 -0.3151 -0.2706
19514TIP3   OH280032   4.987   6.079  15.094  0.3709 -0.2933 -0.4547
19514TIP3    H180033   4.999   5.985  15.080 -0.3850 -0.1531 -2.2344
19514TIP3    H280034   5.021   6.095  15.181 -1.4435 -2.6083  0.7479
19515TIP3   OH280035   1.692   5.495  14.018  0.1282  0.3639  0.5428
19515TIP3    H180036   1.779   5.467  14.045 -0.1228 -1.5530 -0.5242
19515TIP3    H280037   1.658   5.544  14.093  1.6059  0.0018  1.4749
19516TIP3   OH280038   1.266   0.395  11.667 -0.3494 -0.2117  0.0657
19516TIP3    H180039   1.225   0.426  11.587 -0.1100  0.4715  0.2046
19516TIP3    H280040   1.357   0.380  11.643 -0.2236  0.2240  0.2708
19517TIP3   OH280041   2.456   6.355  11.722  0.1436  0.1112 -0.4430
19517TIP3    H180042   2.383   6.383  11.667 -0.1645 -1.2963 -0.7850
19517TIP3    H280043   2.533   6.363  11.666 -0.1017 -0.8217 -0.9369
19518TIP3   OH280044   3.021   1.473  11.384 -0.5694  0.3364  0.0343
19518TIP3    H180045   3.095   1.518  11.424 -0.5758  1.4935 -1.2268
19518TIP3    H280046   2.946   1.530  11.399 -1.0486 -0.3944  0.4964
19519TIP3   OH280047   5.648   1.938   5.819 -0.1269 -0.3727  0.3513
19519TIP3    H180048   5.732   1.981   5.801 -0.4705  0.3202  0.3641
19519TIP3    H280049   5.655   1.852   5.778  0.4234 -0.1452 -0.0355
19520TIP3   OH280050   6.516   0.606   5.062  0.7273 -0.3634 -0.1528
19520TIP3    H180051   6.589   0.618   5.122  1.2117  1.6256 -1.1106
19520TIP3    H280052   6.470   0.690   5.064  0.0474 -0.6979 -1.6418
19521TIP3   OH280053   3.991   6.001  10.386 -0.0228  0.8295 -0.3327
19521TIP3    H180054   4.065   5.989  10.327  0.6954  2.5024  0.2159
19521TIP3    H280055   3.926   5.936  10.356  1.6691 -0.7006 -0.7428
19522TIP3   OH280056   2.100   4.101  13.730  0.2358  0.6115  0.0211
19522TIP3    H180057   2.105   4.128  13.638  1.0442 -0.1843 -0.1790
19522TIP3    H280058   2.008   4.083  13.744  0.3788 -1.2594 -1.2312
19523TIP3   OH280059   2.847   3.919   1.262 -0.0620 -0.4633 -0.1570
19523TIP3    H180060   2.761   3.928   1.305  0.6945  1.0607  1.1136
19523TIP3    H280061   2.847   3.985   1.193  0.5346  0.3659  0.6268
19524TIP3   OH280062   5.430   0.641   1.084 -0.5392  0.1757  0.7450
19524TIP3    H180063   5.501   0.578   1.072 -1.5144 -0.9674  0.9148
19524TIP3    H280064   5.454   0.688   1.164  0.3935  0.3077  0.3995
19525TIP3   OH280065   3.135   5.881   4.523  0.8309  0.3714 -0.2153
19525TIP3    H180066   3.207   5.942   4.537  0.9918  0.1491 -0.0536
19525TIP3    H280067   3.178   5.801   4.491  0.7017  0.1003  0.2858
19526TIP3   OH280068   0.970   1.466  11.294  0.3477  0.1467 -0.1416
19526TIP3    H180069   1.051   1.508  11.264  0.9014  0.5400  1.8310
19526TIP3    H280070   0.911   1.538  11.315  0.6308 -0.0647  1.4478
19527TIP3   OH280071   5.285   5.107   1.352  0.1232 -0.3401  0.2652
19527TIP3    H180072   5.234   5.083   1.429  1.3467 -2.8812  0.3129
19527TIP3    H280073   5.328   5.026   1.325  2.6142  1.3213 -0.9188
19528TIP3   OH280074   4.198   0.544   4.885  0.1956  0.4446  0.2751
19528TIP3    H180075   4.120   0.538   4.940 -0.6409 -1.2405 -1.0172
19528TIP3    H280076   4.185   0.622   4.832 -0.3990  0.4418  0.4155
19529TIP3   OH280077   1.900   6.765   3.193  0.5086 -0.0009 -0.2082
19529TIP3    H180078   1.819   6.798   3.153 -0.2809  0.5479  1.7440
19529TIP3    H280079   1.917   6.682   3.149 -1.8469 -0.7536  0.2304
19530TIP3   OH280080   6.271   6.016   3.920 -0.6945 -0.0476 -0.2729
19530TIP3    H180081   6.212   6.091   3.923 -0.7706 -0.1244  0.2123
19530TIP3    H280082   6.315   6.017   4.005  0.4248  0.3499 -0.8461
19531TIP3   OH280083   0.251   3.533  12.797  0.0677  0.2179 -0.0237
19531TIP3    H180084   0.181   3.588  12.833  1.3665  1.4127  0.7403
19531TIP3    H280085   0.331   3.568  12.836  1.0854 -1.2176 -0.7821
19532TIP3   OH280086   4.456   0.064  12.980 -0.2362  0.0672 -0.5911
19532TIP3    H180087   4.430   0.141  13.030  0.6245  0.0810 -0.1484
19532TIP3    H280088   4.512   0.098  12.911  0.6608 -0.2190 -0.0139
19533TIP3   OH280089   0.807   3.616  11.914  0.1839 -0.4307  0.2560
19533TIP3    H180090   0.734   3.555  11.918 -0.1691 -0.1007 -0.9354
19533TIP3    H280091   0.839   3.610  11.824  0.6552  0.5499  0.3443
19534TIP3   OH280092   5.696   3.611  15.494 -0.0801 -0.1594 -0.4123
19534TIP3    H180093   5.789   3.586  15.496  0.1758  0.8064  0.2749
19534TIP3    H280094   5.653   3.546  15.551  0.8083  1.7460  2.5756
19535TIP3   OH280095   1.049   6.356  12.971 -0.7048  0.7923  0.3925
19535TIP3    H180096   1.038   6.451  12.968  0.1141  0.9455  1.6857
19535TIP3    H280097   1.142   6.342  12.952 -0.7432  0.2717  0.5789
19536TIP3   OH280098   3.649   4.945  13.154 -0.2030 -0.1396 -0.1353
19536TIP3    H180099   3.679   4.956  13.244  0.1596  1.2267 -0.4152
19536TIP3    H280100   3.603   5.026  13.133 -1.0435 -0.7919 -0.9059
19537TIP3   OH280101   1.285   2.366   4.471 -0.3781  0.6669  0.0320
19537TIP3    H180102   1.246   2.288   4.431  0.7761  0.1144 -0.0476
19537TIP3    H280103   1.236   2.380   4.552 -0.3979 -0.3292  0.1920
19538TIP3   OH280104   4.892   6.018  16.435 -0.3905 -0.3491  0.7800
19538TIP3    H180105   4.973   5.967  16.437 -0.4408 -0.4023  3.1596
19538TIP3    H280106   4.876   6.040  16.527 -1.1921  2.6837 -0.0518
19539TIP3   OH280107   1.153   0.317   1.519 -0.0240 -0.5603  0.1662
19539TIP3    H180108   1.103   0.375   1.462 -0.1599 -1.3402 -0.5136
19539TIP3    H280109   1.190   0.375   1.586 -0.1044  0.3109 -0.5413
19540TIP3   OH280110   1.559   3.238   1.263  0.3819 -0.5164 -0.0609
19540TIP3    H180111   1.586   3.147   1.272  0.0661 -0.5925  0.1622
19540TIP3    H280112   1.463   3.234   1.259  0.3454 -0.1709  0.3421
19541TIP3   OH280113   0.328   4.299   2.204  0.8671 -0.4909  0.1559
19541TIP3    H180114   0.410   4.273   2.245  2.3242  2.1082 -0.9359
19541TIP3    H280115   0.260   4.266   2.262  2.6942 -1.9512  1.5339
19542TIP3   OH280116   5.503   1.083   0.340  0.3823 -0.2290 -0.0670
19542TIP3    H180117   5.576   1.060   0.282  0.3838  0.4812 -0.3614
19542TIP3    H280118   5.429   1.031   0.308  0.6493 -0.6210 -0.0487
19543TIP3   OH280119   1.029   4.531   5.019 -0.4856  0.0429 -0.2110
19543TIP3    H180120   1.056   4.476   5.093  1.7527  0.5437 -0.6194
19543TIP3    H280121   1.013   4.617   5.057  0.3987  0.2311 -0.2561
19544TIP3   OH280122   2.886   1.124   5.918  0.9105  0.3680 -0.8203
19544TIP3    H180123   2.960   1.079   5.958 -0.2957 -0.4313  0.5773
19544TIP3    H280124   2.874   1.080   5.834 -0.7744 -2.6158  0.8681
19545TIP3   OH280125   2.068   0.950  12.765  0.3788 -0.6335  0.2511
19545TIP3    H180126   2.157   0.916  12.769  0.2873 -1.0370 -0.8823
19545TIP3    H280127   2.051   0.963  12.671 -0.8435 -0.8383  0.4303
19546TIP3   OH280128   3.973   1.694  11.412  0.1906 -0.4935  0.5574
19546TIP3    H180129   4.006   1.608  11.441  0.0979 -1.0630 -1.0060
19546TIP3    H280130   4.047   1.734  11.368  0.1286  0.1076  0.9955
19547TIP3   OH280131   0.243   3.782   1.453 -0.1117 -0.5898  0.4777
19547TIP3    H180132   0.221   3.862   1.501 -1.7791 -1.0642  0.5232
19547TIP3    H280133   0.303   3.735   1.511  0.6131  0.4496  0.5991
19548TIP3   OH280134   6.383   0.174  12.173  0.5431 -0.1622 -0.5430
19548TIP3    H180135   6.421   0.261  12.156  0.2276 -0.1457 -1.1847
19548TIP3    H280136   6.297   0.177  12.130  0.6161 -0.8654 -0.7349
19549TIP3   OH280137   2.934   3.860  14.935 -0.0643  0.1209 -0.2896
19549TIP3    H180138   2.860   3.844  14.876 -1.0514  0.7032  0.7706
19549TIP3    H280139   2.948   3.777  14.979 -0.7370  0.2576  0.2061
19550TIP3   OH280140   3.474   5.205  14.136 -0.1141  0.4025 -0.2546
19550TIP3    H180141   3.425   5.258  14.073 -0.1700 -1.2432 -1.6201
19550TIP3    H280142   3.565   5.215  14.109 -0.0964  0.0386 -0.3248
19551TIP3   OH280143   5.744   1.100  13.488  0.1729  0.3267  0.7718
19551TIP3    H180144   5.774   1.112  13.578  0.3931 -2.1787  1.0663
19551TIP3    H280145   5.769   1.181  13.443 -0.9911  2.0798  3.2299
19552TIP3   OH280146   5.894   2.953  16.814 -0.2909 -0.1977 -0.4372
19552TIP3    H180147   5.883   3.001  16.732  0.3223  1.7358  0.5742
19552TIP3    H280148   5.887   2.861  16.790  0.2481  0.3325 -2.7108
19553TIP3   OH280149   4.563   1.517   1.462 -1.3429 -0.0688  0.3773
19553TIP3    H180150   4.620   1.453   1.420 -0.4346  0.5006  0.7249
19553TIP3    H280151   4.513   1.556   1.390 -0.9039 -0.1899  0.0014
19554TIP3   OH280152   1.121   1.487  13.039  0.3085  0.3472 -0.1587
19554TIP3    H180153   1.027   1.502  13.026 -0.0108 -0.2577  1.3796
19554TIP3    H280154   1.162   1.571  13.021 -0.3980  0.3346 -1.9825
19555TIP3   OH280155   4.828   1.529  14.296 -0.1942 -0.6361  0.0256
19555TIP3    H180156   4.744   1.549  14.255  0.0052 -0.1838 -0.1675
19555TIP3    H280157   4.836   1.592  14.368  0.5781  0.2021 -0.7781
19556TIP3   OH280158   5.560   6.813   3.891  0.5943 -0.4016  0.5423
19556TIP3    H180159   5.565   6.765   3.808  0.9664 -0.6783  0.7238
19556TIP3    H280160   5.600   6.755   3.955  0.1274 -0.2683  0.9572
19557TIP3   OH280161   3.406   5.140   5.636 -0.3266  0.1216  0.4688
19557TIP3    H180162   3.382   5.048   5.648 -1.0362  0.0359 -1.4786
19557TIP3    H280163   3.470   5.140   5.565  0.7730  0.9945  1.4425
19558TIP3   OH280164   3.030   4.979   4.465 -0.3159 -0.0717 -0.2767
19558TIP3    H180165   2.953   5.036   4.463  0.1267  0.5376 -0.1029
19558TIP3    H280166   3.029   4.935   4.381 -2.2040 -1.8769  0.6190
19559TIP3   OH280167   4.923   4.904   3.207  0.1198  0.1428  0.2504
19559TIP3    H180168   4.898   4.821   3.165 -2.9009  1.8640 -1.4912
19559TIP3    H280169   4.986   4.943   3.147 -1.1790  0.7373 -0.7583
19560TIP3   OH280170   4.946   5.263  13.801 -0.1834 -0.3609 -0.1513
19560TIP3    H180171   4.992   5.213  13.734 -0.5180  0.4392 -0.9778
19560TIP3    H280172   4.956   5.355  13.775  0.2372  0.0089  1.2314
19561TIP3   OH280173   1.834   6.590  11.711  0.3470 -0.4371  0.1396
19561TIP3    H180174   1.766   6.613  11.776  0.6144  0.9650 -0.0548
19561TIP3    H280175   1.915   6.621  11.750  0.6390 -0.4780 -0.4321
19562TIP3   OH280176   4.957   2.828   1.206 -0.1461  0.0031  0.7859
19562TIP3    H180177   5.001   2.876   1.277  0.9330 -3.3529  2.5139
19562TIP3    H280178   4.881   2.787   1.248 -1.6238  1.0050 -0.8703
19563TIP3   OH280179   5.531   4.507   1.324  0.3314 -0.0256 -0.1589
19563TIP3    H180180   5.623   4.512   1.348 -0.0242  0.6853  1.0686
19563TIP3    H280181   5.527   4.547   1.237  1.1292  0.2395 -0.0770
19564TIP3   OH280182   5.304   2.248  17.086 -0.4091 -0.4578  0.4803
19564TIP3    H180183   5.223   2.215  17.126 -0.9317 -0.9331 -0.9367
19564TIP3    H280184   5.335   2.176  17.032  0.3533  0.1362  0.1138
19565TIP3   OH280185   1.928   3.062  14.688  0.1751 -0.1859 -0.0686
19565TIP3    H180186   1.839   3.072  14.722  0.2424 -2.5769  0.9175
19565TIP3    H280187   1.917   3.024  14.601  0.2159  0.3379 -0.3058
19566TIP3   OH280188   1.015   4.532   1.019  0.1154  0.0343  0.3145
19566TIP3    H180189   1.050   4.458   1.069  1.8704  1.0955  0.6843
19566TIP3    H280190   0.928   4.546   1.055  0.0998 -1.3009  0.8238
19567TIP3   OH280191   0.446   3.007   0.132  0.0852  0.0407 -0.1717
19567TIP3    H180192   0.491   2.970   0.057  1.3431 -2.8380  1.9085
19567TIP3    H280193   0.353   3.003   0.109  0.2640 -3.4645 -0.4983
19568TIP3   OH280194   6.786   5.604  12.831  0.5783  0.4224  0.1060
19568TIP3    H180195   6.868   5.609  12.782  0.4218 -0.2544 -0.2406
19568TIP3    H280196   6.723   5.569  12.768  0.0174  0.9731  0.3613
19569TIP3   OH280197   3.780   1.962   2.796 -0.0627  0.9008 -0.1374
19569TIP3    H180198   3.861   1.980   2.844 -0.2419 -3.0887  1.8844
19569TIP3    H280199   3.715   1.948   2.865 -1.6519  0.5808 -1.6891
19570TIP3   OH280200   3.256   1.753   3.532 -1.3539  0.1071 -0.0822
19570TIP3    H180201   3.334   1.705   3.505 -0.4019  0.9604  1.1086
19570TIP3    H280202   3.281   1.845   3.526 -2.2336  0.3839  0.4339
19571TIP3   OH280203   0.482   2.134   4.011  0.1857 -0.2344  0.4446
19571TIP3    H180204   0.434   2.208   3.974 -0.4499 -0.4728  0.7960
19571TIP3    H280205   0.523   2.169   4.090 -1.6344 -0.7210  1.6405
19572TIP3   OH280206   3.535   2.271  15.342  0.0550  0.2317  0.4124
19572TIP3    H180207   3.472   2.295  15.274 -0.4933 -2.3453 -0.0679
19572TIP3    H280208   3.617   2.257  15.295  0.0368 -0.0950  0.4725
19573TIP3   OH280209   1.891   4.997  16.539  0.2057  0.2794 -0.3000
19573TIP3    H180210   1.922   5.085  16.560  2.7295 -0.7555  0.5013
19573TIP3    H280211   1.970   4.943  16.540 -1.5346 -2.3487  1.0384
19574TIP3   OH280212   4.738   0.261  11.502 -0.3880  0.0523  0.1259
19574TIP3    H180213   4.725   0.232  11.592  1.7582  2.1266  1.1843
19574TIP3    H280214   4.684   0.203  11.449  0.6022 -3.1515  2.4792
19575TIP3   OH280215   1.096   0.010  15.448 -0.4033  0.6012  0.0118
19575TIP3    H180216   1.113  -0.021  15.537 -0.5997  1.8270  0.4920
19575TIP3    H280217   1.130   0.100  15.447 -0.7264  0.7204 -1.0422
19576TIP3   OH280218   3.782   3.691  12.839 -0.1819 -0.1382  0.1933
19576TIP3    H180219   3.786   3.598  12.863 -2.4958  0.1962  2.0799
19576TIP3    H280220   3.700   3.698  12.789 -1.2866  1.2717  2.1157
19577TIP3   OH280221   0.175   2.744   5.177  0.4774  0.1755 -0.1953
19577TIP3    H180222   0.194   2.747   5.083  2.1107  1.1906  0.1318
19577TIP3    H280223   0.174   2.836   5.204 -1.8121 -0.0282  0.4540
19578TIP3   OH280224   0.446   2.509  15.086 -0.2872  0.1863 -0.7883
19578TIP3    H180225   0.523   2.546  15.044  0.1288  0.4844  0.2247
19578TIP3    H280226   0.479   2.467  15.166 -1.1382  0.1195 -0.4604
19579TIP3   OH280227   4.187   0.636  11.332  0.6680 -0.4102  0.4743
19579TIP3    H180228   4.281   0.655  11.334  0.7727 -0.2401 -3.1263
19579TIP3    H280229   4.182   0.541  11.319  0.4123 -0.0975 -1.9049
19580TIP3   OH280230   2.525   4.178  13.756  0.3717  0.5407 -0.4841
19580TIP3    H180231   2.484   4.178  13.843 -0.5368 -2.5414 -0.8596
19580TIP3    H280232   2.617   4.154  13.773  0.5259  1.2779 -0.2565
19581TIP3   OH280233   4.400   2.430  13.908 -0.8225 -0.0516  0.5295
19581TIP3    H180234   4.317   2.395  13.874 -1.6086  2.2112  0.0422
19581TIP3    H280235   4.419   2.506  13.852  1.2516 -0.1457  1.0536
19582TIP3   OH280236   4.226   2.957  13.017 -0.0477  0.1509 -0.4213
19582TIP3    H180237   4.141   2.987  12.985 -0.4066  0.7519  1.0299
19582TIP3    H280238   4.205   2.905  13.095  0.7711 -1.6182 -1.3620
19583TIP3   OH280239   1.798   1.940   3.294  0.1876  0.0578  0.3912
19583TIP3    H180240   1.872   1.983   3.337 -0.6576 -0.0565  2.0015
19583TIP3    H280241   1.804   1.967   3.202  2.8459 -0.8291  0.2756
19584TIP3   OH280242   1.834   0.427  11.267  0.6418  0.4539  0.2002
19584TIP3    H180243   1.817   0.490  11.336  0.6628  0.5639  0.1051
19584TIP3    H280244   1.915   0.458  11.226  1.6754 -0.6778  1.3538
19585TIP3   OH280245   4.248   6.589  14.828  0.1283  0.1402 -0.0282
19585TIP3    H180246   4.251   6.652  14.900 -1.1556 -1.1956  1.2131
19585TIP3    H280247   4.227   6.506  14.869  1.9864 -1.1787 -1.6380
19586TIP3   OH280248   6.291   2.692   2.323 -0.4024  0.1910 -0.0745
19586TIP3    H180249   6.316   2.680   2.414  0.3857  1.2354 -0.1414
19586TIP3    H280250   6.215   2.635   2.311 -2.0237  1.8561  1.8996
19587TIP3   OH280251   1.528   0.704  10.570 -0.2414 -0.3091 -0.0687
19587TIP3    H180252   1.620   0.700  10.596 -0.4285 -3.6632  0.2145
19587TIP3    H280253   1.521   0.642  10.498 -2.2633  0.0404 -0.1854
19588TIP3   OH280254   2.465   5.199   0.578 -0.0348 -0.1494 -0.7856
19588TIP3    H180255   2.457   5.226   0.486  0.7084  1.8546 -0.2770
19588TIP3    H280256   2.377   5.208   0.613 -0.2586 -0.6188 -1.2163
19589TIP3   OH280257   6.442   5.216   1.015  0.3409  0.0229  0.1083
19589TIP3    H180258   6.492   5.142   1.049 -0.6288 -0.0614  1.3945
19589TIP3    H280259   6.387   5.243   1.089 -0.7430  0.7652 -0.9637
19590TIP3   OH280260   6.266   0.839  11.136 -0.3635 -0.0055 -0.3222
19590TIP3    H180261   6.322   0.764  11.118  0.3082  0.7046 -1.1919
19590TIP3    H280262   6.209   0.810  11.207 -0.1292 -1.3484 -0.6808
19591TIP3   OH280263   0.600   3.517   1.692  0.6043 -0.5080 -0.4246
19591TIP3    H180264   0.651   3.470   1.626  0.3604  2.3001 -2.7008
19591TIP3    H280265   0.648   3.599   1.705 -0.8137  0.1271  0.9132
19592TIP3   OH280266   4.703   0.437  14.149 -0.1052  0.0996 -0.7122
19592TIP3    H180267   4.665   0.480  14.225  0.9834 -1.3374  0.6770
19592TIP3    H280268   4.719   0.508  14.087  2.1966  1.7939  1.7248
19593TIP3   OH280269   4.735   1.594  12.661  0.7023  0.2218 -0.1243
19593TIP3    H180270   4.689   1.677  12.651  0.1414 -0.1828 -0.9661
19593TIP3    H280271   4.786   1.604  12.741 -0.2467  0.9694  0.3978
19594TIP3   OH280272   5.795   1.880  16.205 -0.0457 -0.5739  0.2676
19594TIP3    H180273   5.725   1.917  16.150  1.0658 -1.0123 -1.4830
19594TIP3    H280274   5.771   1.788  16.217 -0.0603 -0.5879  0.1338
19595TIP3   OH280275   1.517   4.995  13.459 -0.3126 -0.1779 -0.3428
19595TIP3    H180276   1.525   4.949  13.542 -0.6379  2.1302  1.0119
19595TIP3    H280277   1.445   4.951  13.413 -1.1019 -0.5363  1.2118
19596TIP3   OH280278   1.803   0.081  16.883 -0.1831  0.4780 -0.0819
19596TIP3    H180279   1.818   0.118  16.970  0.5237 -0.0263  0.0084
19596TIP3    H280280   1.782  -0.011  16.899 -0.2784  0.4363 -0.4356
19597TIP3   OH280281   6.600   3.487   4.913 -0.2765  0.1744 -0.4208
19597TIP3    H180282   6.601   3.395   4.889 -1.3134  0.3278 -1.1115
19597TIP3    H280283   6.674   3.526   4.866  0.2206 -0.3125 -0.0489
19598TIP3   OH280284   2.662   3.254   2.332 -0.3504 -0.1272 -0.7219
19598TIP3    H180285   2.596   3.322   2.349 -0.1451 -0.0151 -0.3760
19598TIP3    H280286   2.623   3.174   2.367 -0.3690 -0.0905 -0.6592
19599TIP3   OH280287   1.754   2.282   3.184  0.4590 -0.4779  0.0406
19599TIP3    H180288   1.759   2.266   3.090 -0.5863  1.1279 -0.3087
19599TIP3    H280289   1.661   2.276   3.205  0.5746  0.1670  0.7859
19600TIP3   OH280290   1.504   4.802   1.756 -0.2442  0.4451  0.0569
19600TIP3    H180291   1.511   4.875   1.817  1.9410  0.3652 -0.0800
19600TIP3    H280292   1.567   4.822   1.687 -0.9450 -0.6642 -0.9243
19601TIP3   OH280293   3.591   5.731   2.806  0.0134 -0.2303  0.1596
19601TIP3    H180294   3.641   5.812   2.807  1.7357 -1.2752  0.3368
19601TIP3    H280295   3.624   5.681   2.881  0.0758 -1.7515 -0.8428
19602TIP3   OH280296   4.440   5.351   1.995  0.1822 -0.0353  0.0780
19602TIP3    H180297   4.352   5.334   1.961  1.3102 -4.6834 -0.9494
19602TIP3    H280298   4.429   5.356   2.090 -1.2577 -0.0886 -0.0789
19603TIP3   OH280299   2.034   4.600   5.169  0.4687 -0.0281  0.2153
19603TIP3    H180300   2.123   4.568   5.152  0.5016 -0.0831  0.4936
19603TIP3    H280301   2.007   4.553   5.248 -0.5429 -1.5071 -0.9795
19604TIP3   OH280302   6.593   3.205   5.923 -0.5206  0.1122  0.0926
19604TIP3    H180303   6.528   3.135   5.930 -0.1014 -0.2160  0.7632
19604TIP3    H280304   6.661   3.182   5.987 -1.1408  1.9435  1.4844
19605TIP3   OH280305   2.251   6.001  15.841  0.0261  0.9964 -0.1116
19605TIP3    H180306   2.322   5.947  15.807 -2.4244 -1.3514 -1.5659
19605TIP3    H280307   2.171   5.955  15.819 -1.9433  2.2891  3.7662
19606TIP3   OH280308   1.442   0.444  13.047 -0.2144  0.4918 -0.0257
19606TIP3    H180309   1.484   0.387  12.983  0.0280  0.3105  0.2965
19606TIP3    H280310   1.515   0.485  13.094 -0.2829  3.3754 -2.2421
19607TIP3   OH280311   2.267   3.808  11.438 -0.5648  0.1257  0.3113
19607TIP3    H180312   2.197   3.830  11.499  0.6619  0.7070  1.5409
19607TIP3    H280313   2.336   3.871  11.457 -1.0361  1.8858 -3.3236
19608TIP3   OH280314   5.914   1.413   1.928  0.1385  0.1252  0.1952
19608TIP3    H180315   5.908   1.507   1.912 -1.5723 -0.0950 -0.5579
19608TIP3    H280316   5.941   1.376   1.844  0.3315 -0.1188  0.3634
19609TIP3   OH280317   2.975   0.496  17.080  0.2015  0.2706  0.5080
19609TIP3    H180318   3.038   0.426  17.065  0.3259  0.3623  0.6001
19609TIP3    H280319   2.917   0.493  17.003 -0.1877 -0.3496  0.8202
19610TIP3   OH280320   3.924   3.167   0.372 -0.2831 -0.0502 -0.3646
19610TIP3    H180321   3.853   3.201   0.317 -1.1295 -0.5836  0.3941
19610TIP3    H280322   3.956   3.244   0.419  0.0063  0.2886 -1.0965
19611TIP3   OH280323   5.044   2.856   5.348  0.1437 -0.1878 -0.0486
19611TIP3    H180324   4.985   2.784   5.325  0.2398  0.2145 -1.5963
19611TIP3    H280325   5.128   2.814   5.363  0.0520 -0.4718 -0.3288
19612TIP3   OH280326   6.426   4.511   1.509  0.0659  0.1633  0.3457
19612TIP3    H180327   6.401   4.471   1.592  3.7367  0.8346  1.8483
19612TIP3    H280328   6.427   4.438   1.447  0.1854 -0.8807  1.5536
19613TIP3   OH280329   2.399   0.198   3.895 -0.0615  0.4481  0.2367
19613TIP3    H180330   2.458   0.123   3.903 -3.8401 -2.5571  1.7018
19613TIP3    H280331   2.439   0.266   3.949  2.9214 -0.8699 -0.2223
19614TIP3   OH280332   0.816   3.499   5.109  0.6672  0.5854 -0.1082
19614TIP3    H180333   0.873   3.495   5.033 -1.4187  1.2309 -1.7315
19614TIP3    H280334   0.748   3.563   5.086 -1.4609 -1.1146  1.2472
19615TIP3   OH280335   0.138   0.324  17.234  0.3434 -0.0669  0.4708
19615TIP3    H180336   0.073   0.395  17.229 -1.6822 -1.7320  2.0814
19615TIP3    H280337   0.212   0.362  17.281 -1.6899  0.3707  3.4796
19616TIP3   OH280338   5.824   6.120   6.340 -0.1520  0.5930 -0.9984
19616TIP3    H180339   5.819   6.213   6.363 -1.3380  1.0984 -3.1458
19616TIP3    H280340   5.913   6.094   6.365 -0.1533  2.0145  0.6049
19617TIP3   OH280341   2.019   1.091  13.038  0.4052 -0.2412 -0.5538
19617TIP3    H180342   1.926   1.114  13.028  0.4280  0.2667  0.3917
19617TIP3    H280343   2.037   1.033  12.964 -0.2291  1.0267 -1.7247
19618TIP3   OH280344   6.586   4.533   5.192  0.5606 -0.5973 -0.4197
19618TIP3    H180345   6.667   4.581   5.178  1.1789 -2.0383 -1.8662
19618TIP3    H280346   6.607   4.468   5.259  0.3661 -0.4325 -0.1952
19619TIP3   OH280347   2.318   1.610  12.241  0.2189 -0.2237 -0.3958
19619TIP3    H180348   2.368   1.584  12.163 -0.6179  0.7979 -1.2745
19619TIP3    H280349   2.273   1.529  12.268  1.4208 -0.8633 -0.2823
19620TIP3   OH280350   2.067   3.742   1.409  0.5622 -0.2793  0.1318
19620TIP3    H180351   2.114   3.696   1.479 -0.1033 -0.9301  0.1499
19620TIP3    H280352   2.116   3.824   1.398 -0.4097  0.7063  2.6735
19621TIP3   OH280353   3.025   4.560  13.236  0.1357 -0.0789 -0.2520
19621TIP3    H180354   2.957   4.603  13.287  0.6005 -0.4047  0.6514
19621TIP3    H280355   2.987   4.550  13.149  0.9918  4.6579 -1.3156
19622TIP3   OH280356   3.797   5.815  11.585  0.3166  0.1659  0.3310
19622TIP3    H180357   3.822   5.899  11.547  1.9247 -0.4469  0.0199
19622TIP3    H280358   3.701   5.819  11.589  0.4093  2.2729  0.9723
19623TIP3   OH280359   2.095   1.257  15.579  0.4609  0.0190 -0.3031
19623TIP3    H180360   2.132   1.334  15.622 -0.2507 -0.4382  1.1574
19623TIP3    H280361   2.169   1.197  15.570  0.5884  0.0662  0.4025
19624TIP3   OH280362   3.118   6.647  16.142 -0.1050  0.3160  0.2222
19624TIP3    H180363   3.209   6.633  16.168 -0.6869 -1.0424  1.6430
19624TIP3    H280364   3.067   6.605  16.211 -1.7826 -0.7235 -1.5918
19625TIP3   OH280365   5.895   4.829  16.536 -0.1312 -0.0376 -0.4395
19625TIP3    H180366   5.892   4.781  16.619 -2.6479 -1.2713 -1.1966
19625TIP3    H280367   5.984   4.816  16.503  0.7101 -0.0493  1.7389
19626TIP3   OH280368   4.224   3.048  14.093  0.5981  0.7832  0.3079
19626TIP3    H180369   4.305   3.098  14.100  0.4797  0.9855  0.2552
19626TIP3    H280370   4.155   3.115  14.087  0.5990  0.6220 -1.7957
19627TIP3   OH280371   1.025   6.762   0.032 -0.0026  0.8136 -0.4041
19627TIP3    H180372   1.052   6.674   0.056  1.5439  1.7521  1.3506
19627TIP3    H280373   0.939   6.773   0.072  0.6279  0.7648  0.9908
19628TIP3   OH280374   2.072   1.578   5.087 -0.6913  0.7923 -0.9668
19628TIP3    H180375   2.106   1.528   5.161 -1.4988 -0.6689 -1.5703
19628TIP3    H280376   2.079   1.670   5.115 -2.0524  0.2218  1.3632
19629TIP3   OH280377   5.491   3.213  15.316 -0.2687 -0.2937  0.0451
19629TIP3    H180378   5.399   3.189  15.303 -0.3454 -0.0625  0.1520
19629TIP3    H280379   5.488   3.277  15.388 -0.3081  1.7507 -1.7140
19630TIP3   OH280380   4.687   0.918   4.996  0.4260  0.1770  0.8296
19630TIP3    H180381   4.591   0.915   5.005  0.5396  0.4116  2.2956
19630TIP3    H280382   4.718   0.852   5.058  1.3133  2.1654  2.5609
19631TIP3   OH280383   2.610   2.477   3.180 -0.0926 -0.0525 -0.5603
19631TIP3    H180384   2.548   2.507   3.113  1.5270  1.8756 -1.2628
19631TIP3    H280385   2.564   2.493   3.263 -0.0407  2.7503 -1.0005
19632TIP3   OH280386   0.573   1.970   0.629 -0.1681  0.6098  0.1416
19632TIP3    H180387   0.521   2.040   0.589  0.0238  0.2095 -0.8089
19632TIP3    H280388   0.655   1.969   0.579  0.0544  0.0674  0.5080
19633TIP3   OH280389   0.258   2.324   2.579  0.0588  0.0988  0.0045
19633TIP3    H180390   0.311   2.295   2.505  1.4842  1.3979  0.4913
19633TIP3    H280391   0.321   2.343   2.648 -1.0113  1.6814  0.5914
19634TIP3   OH280392   0.065   5.710  16.613 -0.5093  0.5718 -0.0372
19634TIP3    H180393   0.081   5.777  16.680  0.0736  0.0199  0.3759
19634TIP3    H280394   0.023   5.758  16.542  0.1189  1.4327  0.1532
19635TIP3   OH280395   4.668   0.261   3.005 -0.5278  0.4791  0.2959
19635TIP3    H180396   4.719   0.326   2.955 -0.3986  1.0253  1.1220
19635TIP3    H280397   4.733   0.219   3.061 -0.9572  1.0957  1.2713
19636TIP3   OH280398   5.085   1.318  15.703  0.2659  0.2229 -0.3735
19636TIP3    H180399   5.067   1.406  15.669  3.0677  0.6240 -0.9446
19636TIP3    H280400   5.120   1.270  15.628  3.5081  0.1700  1.0639
19637TIP3   OH280401   2.077   5.747  12.034  0.0552  0.2392 -0.2829
19637TIP3    H180402   2.098   5.833  11.997  0.1338  0.6242  0.6468
19637TIP3    H280403   2.161   5.701  12.036 -0.0118  0.0905 -0.9104
19638TIP3   OH280404   5.227   4.572  16.024 -0.1674 -0.5694  0.7112
19638TIP3    H180405   5.242   4.583  16.118  0.2066 -1.1601  0.7239
19638TIP3    H280406   5.149   4.517  16.019  0.1190 -0.9729  0.6808
19639TIP3   OH280407   6.615   5.869   2.408  0.3270  0.3399 -0.0631
19639TIP3    H180408   6.692   5.826   2.371 -0.1056 -0.9290  0.4897
19639TIP3    H280409   6.591   5.935   2.344  0.4907 -0.8275 -1.3414
19640TIP3   OH280410   4.377   6.530   0.844  0.8239  0.2039 -0.3890
19640TIP3    H180411   4.384   6.611   0.793  1.1000 -1.7503 -3.6033
19640TIP3    H280412   4.311   6.549   0.910 -0.5568  2.4469 -2.3319
19641TIP3   OH280413   6.183   5.559  11.694  0.6794  0.3713 -0.0611
19641TIP3    H180414   6.088   5.568  11.692  0.6866  0.4881  0.1295
19641TIP3    H280415   6.212   5.584  11.606  0.3187 -1.9869 -0.8860
19642TIP3   OH280416   6.499   4.135  12.039 -0.0342 -0.5130 -0.7037
19642TIP3    H180417   6.505   4.170  12.128 -1.0156 -1.8076 -0.1162
19642TIP3    H280418   6.407   4.146  12.015 -0.1915 -1.9473 -0.8019
19643TIP3   OH280419   6.708   0.810   4.857  0.3681 -0.7287 -0.3699
19643TIP3    H180420   6.735   0.881   4.799  1.0459 -1.2226 -0.6606
19643TIP3    H280421   6.709   0.849   4.945  0.3927 -0.2808 -0.5681
19644TIP3   OH280422   0.133   2.095   4.315  0.0106 -0.0147 -0.5273
19644TIP3    H180423   0.204   2.131   4.367  1.0066 -0.1133 -1.7989
19644TIP3    H280424   0.115   2.010   4.355  0.3908  0.1448 -0.0120
19645TIP3   OH280425   3.546   1.645   4.570  0.3447 -0.1485 -0.0485
19645TIP3    H180426   3.526   1.555   4.597  0.5323 -1.1640 -3.1232
19645TIP3    H280427   3.461   1.685   4.555  0.2724  0.1042  0.9760
19646TIP3   OH280428   0.706   2.758  16.071 -0.1128  0.3959  0.6286
19646TIP3    H180429   0.790   2.797  16.095 -0.1456  0.7493  0.1655
19646TIP3    H280430   0.643   2.830  16.077  0.3078  1.1604 -3.0901
19647TIP3   OH280431   1.143   4.603  12.420 -0.0928  0.0734  0.6633
19647TIP3    H180432   1.070   4.631  12.475 -0.7008  1.0873 -0.6348
19647TIP3    H280433   1.219   4.607  12.478 -0.7507  0.9489  1.4905
19648TIP3   OH280434   6.099   1.378   0.635  0.2242 -0.1631 -0.5829
19648TIP3    H180435   6.059   1.310   0.690 -1.6930  1.5568  0.2386
19648TIP3    H280436   6.052   1.458   0.660  1.6086  1.2292 -2.3949
19649TIP3   OH280437   3.119   5.118   2.249  0.1954 -0.1204 -0.0842
19649TIP3    H180438   3.113   5.201   2.200 -1.5788 -0.9604 -1.3568
19649TIP3    H280439   3.086   5.140   2.336 -2.4429  0.0677 -1.0631
19650TIP3   OH280440   1.282   3.025  16.876 -0.6533 -0.0854  0.2841
19650TIP3    H180441   1.197   3.018  16.832  0.0290 -1.0028 -0.9153
19650TIP3    H280442   1.290   3.117  16.899 -1.0110  0.4302 -1.5678
19651TIP3   OH280443   0.930   3.255   4.722  0.4082  0.1143 -0.2503
19651TIP3    H180444   0.962   3.286   4.637 -0.3648 -0.1234 -0.6351
19651TIP3    H280445   0.848   3.303   4.735  1.4017  1.5007  1.2075
19652TIP3   OH280446   1.093   3.874   2.192 -0.0277  0.0713 -0.5526
19652TIP3    H180447   1.112   3.895   2.101 -0.6197  1.7133 -0.3099
19652TIP3    H280448   1.152   3.802   2.213  0.0983 -0.3186 -2.2370
19653TIP3   OH280449   2.132   1.684  11.906 -0.2831 -0.0606  0.0039
19653TIP3    H180450   2.046   1.690  11.947 -0.5055 -0.3512 -0.4181
19653TIP3    H280451   2.183   1.628  11.964 -0.9434 -1.4167 -0.6896
19654TIP3   OH280452   3.518   1.002   2.212  0.4051  0.1047 -0.3328
19654TIP3    H180453   3.605   1.015   2.174  0.2705  0.7886 -0.4077
19654TIP3    H280454   3.528   0.925   2.268  0.0434 -2.4047 -3.5501
19655TIP3   OH280455   5.125   2.331  14.659  0.1178 -0.1865  0.4391
19655TIP3    H180456   5.180   2.370  14.727 -0.7821  1.1947  0.3989
19655TIP3    H280457   5.175   2.256  14.627  0.3381 -1.1910  2.9864
19656TIP3   OH280458   6.084   3.371  14.556  0.5011  0.0185 -0.5960
19656TIP3    H180459   6.062   3.280  14.578 -0.8372  0.3402 -0.6200
19656TIP3    H280460   6.063   3.379  14.463  1.9776 -0.0423 -0.9598
19657TIP3   OH280461   2.776   1.441  13.854  0.6269  0.2727  0.6651
19657TIP3    H180462   2.731   1.524  13.867  1.6265  0.7801  0.9152
19657TIP3    H280463   2.867   1.465  13.838  0.3974 -0.6036 -2.3065
19658TIP3   OH280464   6.679   4.019   4.213  0.4554 -0.0382  0.6457
19658TIP3    H180465   6.754   4.077   4.198 -0.0260  0.4694  0.1474
19658TIP3    H280466   6.623   4.069   4.272 -0.5796  0.5627 -0.8222
19659TIP3   OH280467   6.791   3.065  13.379 -0.1801 -0.4159  0.0640
19659TIP3    H180468   6.785   3.053  13.474 -0.9715 -0.3038  0.0265
19659TIP3    H280469   6.737   3.141  13.361 -0.8918 -1.0705 -0.6106
19660TIP3   OH280470   1.091   5.285  12.491 -0.3394  0.1165  0.0541
19660TIP3    H180471   1.038   5.230  12.433 -1.8560  1.2452  0.3549
19660TIP3    H280472   1.088   5.372  12.451  1.8261  0.0794 -0.2711
19661TIP3   OH280473   4.829   6.549   5.081 -0.0526 -0.0763 -0.2355
19661TIP3    H180474   4.908   6.553   5.027 -0.1901 -0.7128 -0.4810
19661TIP3    H280475   4.859   6.509   5.163  0.2162  1.1439  0.2781
19662TIP3   OH280476   4.709   1.589  11.644 -0.0652  0.2426 -0.0903
19662TIP3    H180477   4.795   1.602  11.683 -0.8230 -0.8431  2.0341
19662TIP3    H280478   4.708   1.497  11.616 -0.3654  0.3853 -0.5650
19663TIP3   OH280479   4.542   3.155   2.080  0.2723  0.2466 -0.0279
19663TIP3    H180480   4.546   3.209   2.002 -0.4923  1.7189  0.9153
19663TIP3    H280481   4.450   3.158   2.106  1.1365  2.7901  2.9734
19664TIP3   OH280482   2.274   1.511   3.461  0.0176 -0.7454 -0.7420
19664TIP3    H180483   2.350   1.552   3.502 -1.1653  1.2039 -0.4513
19664TIP3    H280484   2.304   1.489   3.373  1.6627 -2.2886  0.1635
19665TIP3   OH280485   1.860   2.586   3.693 -0.0048 -0.3537 -0.4340
19665TIP3    H180486   1.869   2.664   3.746 -0.1146  0.8825 -2.1966
19665TIP3    H280487   1.766   2.576   3.680  0.0655 -0.0840 -1.1951
19666TIP3   OH280488   0.296   1.728   5.118  0.0239  0.0447  0.1012
19666TIP3    H180489   0.248   1.650   5.090  1.3191 -1.1954  1.2520
19666TIP3    H280490   0.382   1.720   5.076 -0.2459  1.5026 -0.7699
19667TIP3   OH280491   2.316   6.419   1.474 -0.2529  0.3297  0.3305
19667TIP3    H180492   2.226   6.397   1.498 -0.9849 -1.1614 -3.4580
19667TIP3    H280493   2.308   6.494   1.415  1.0252  0.3737  0.1936
19668TIP3   OH280494   6.235   2.022  15.764  0.5111 -0.1767  0.0245
19668TIP3    H180495   6.245   1.975  15.846  2.0730 -4.0091 -2.2212
19668TIP3    H280496   6.307   2.086  15.763  0.2757  0.1371  1.7112
19669TIP3   OH280497   6.746   4.255   3.201 -0.0880 -0.1216 -0.4274
19669TIP3    H180498   6.703   4.289   3.279  2.9664 -0.4596  1.4796
19669TIP3    H280499   6.780   4.333   3.157  0.1797 -0.0998 -0.1839
19670TIP3   OH280500   5.036   1.357  16.979 -0.0083 -0.4433  0.5450
19670TIP3    H180501   5.052   1.378  17.071 -1.2351  1.1154  0.4198
19670TIP3    H280502   4.973   1.285  16.982  1.2097 -1.5222  0.9193
19671TIP3   OH280503   0.770   0.495  12.848 -0.1262 -0.1565 -0.0474
19671TIP3    H180504   0.679   0.506  12.820 -0.0941 -1.1903 -0.5755
19671TIP3    H280505   0.820   0.490  12.767  0.4256  0.4988  0.2393
19672TIP3   OH280506   2.229   5.018  11.201  0.2807  0.1921  0.3855
19672TIP3    H180507   2.244   4.939  11.253  0.3214  1.2603  2.0606
19672TIP3    H280508   2.306   5.026  11.145 -0.2033 -1.5068 -0.5533
19673TIP3   OH280509   1.124   2.100   6.072  0.1282  0.2206  0.5388
19673TIP3    H180510   1.175   2.120   6.150 -1.8067  0.1283  1.8465
19673TIP3    H280511   1.064   2.031   6.099 -0.4714  0.0795 -1.0810
19674TIP3   OH280512   4.095   3.882   4.625 -0.0501  0.6496  0.5066
19674TIP3    H180513   4.118   3.961   4.576  1.3425 -0.8823 -1.4250
19674TIP3    H280514   4.059   3.823   4.559  0.7274 -1.0245  1.5520
19675TIP3   OH280515   4.110   1.851  11.261 -0.8353  0.0782  0.5461
19675TIP3    H180516   4.052   1.924  11.239 -1.3663  0.0484  1.7947
19675TIP3    H280517   4.137   1.815  11.176 -0.6970  1.6090 -0.0797
19676TIP3   OH280518   2.782   0.078   2.038 -0.8471 -0.6321 -0.1842
19676TIP3    H180519   2.854   0.022   2.067 -0.8884 -0.6546 -0.1231
19676TIP3    H280520   2.761   0.131   2.115 -1.0991 -0.8429 -0.1029
19677TIP3   OH280521   4.454   3.388  16.162 -0.2527 -0.1934 -0.3136
19677TIP3    H180522   4.429   3.401  16.254  1.4987  0.1484  0.1352
19677TIP3    H280523   4.546   3.361  16.166  0.3278  1.3957 -2.0503
19678TIP3   OH280524   0.529   3.537   1.043 -0.2336  0.6706  0.1891
19678TIP3    H180525   0.490   3.601   0.984 -0.2276  0.2424 -0.2772
19678TIP3    H280526   0.478   3.544   1.123 -2.4677 -1.2091 -1.0351
19679TIP3   OH280527   2.010   4.366  16.214  0.2879  0.0086  0.2204
19679TIP3    H180528   2.057   4.299  16.165  0.9595  0.6038  0.0325
19679TIP3    H280529   1.938   4.320  16.256  2.1995 -1.2898  2.1250
19680TIP3   OH280530   5.424   5.863   6.318 -0.1988 -0.3159  0.7189
19680TIP3    H180531   5.445   5.780   6.360 -0.5874 -1.5649 -1.4614
19680TIP3    H280532   5.423   5.843   6.224 -1.9491  1.7600  0.2467
19681TIP3   OH280533   4.460   3.919  11.435  0.6274  0.0887 -0.3926
19681TIP3    H180534   4.487   3.872  11.356 -0.3064 -0.2426 -0.5230
19681TIP3    H280535   4.366   3.934  11.423  0.7219  1.1554  0.0766
19682TIP3   OH280536   4.767   2.847   5.099  0.1167  0.2634  0.1323
19682TIP3    H180537   4.682   2.875   5.132  0.9585  1.4106  1.3416
19682TIP3    H280538   4.790   2.912   5.032 -0.4373 -0.6666 -0.9993
19683TIP3   OH280539   3.585   2.804   0.159 -0.4528 -0.0026 -0.0994
19683TIP3    H180540   3.581   2.875   0.095 -0.7784 -0.6454 -0.8020
19683TIP3    H280541   3.661   2.825   0.214 -0.7384  1.0577 -0.0849
19684TIP3   OH280542   2.371   0.076   5.724 -0.7336  0.1766 -0.3917
19684TIP3    H180543   2.316   0.087   5.802 -0.6111 -0.6016 -0.1890
19684TIP3    H280544   2.369  -0.018   5.706  2.0251 -0.1684  0.7624
19685TIP3   OH280545   3.614   5.530   0.873  0.4896  0.3010 -0.7416
19685TIP3    H180546   3.662   5.503   0.950 -0.1209  0.4239 -0.3118
19685TIP3    H280547   3.647   5.474   0.802  1.8217  0.9263 -0.6290
19686TIP3   OH280548   0.430   1.347   5.246  0.3951  0.0010 -0.5572
19686TIP3    H180549   0.365   1.331   5.314  0.7986  0.3037 -0.1010
19686TIP3    H280550   0.470   1.430   5.271  1.4389 -0.5323 -0.4636
19687TIP3   OH280551   5.156   0.782   3.462  0.5539 -0.4611  0.1910
19687TIP3    H180552   5.108   0.797   3.543  1.4027  0.7203  0.4889
19687TIP3    H280553   5.088   0.777   3.394 -0.0001  1.3191  0.5863
19688TIP3   OH280554   4.051   4.742  12.270 -0.0941  0.3229 -0.1792
19688TIP3    H180555   4.085   4.673  12.326 -0.3100  0.6089  0.3037
19688TIP3    H280556   4.060   4.823  12.321  1.3976  0.8646 -1.2427
19689TIP3   OH280557   3.899   2.015   1.977 -0.4773  0.0129  0.0849
19689TIP3    H180558   3.822   2.053   1.933 -1.0031  0.0554  1.0223
19689TIP3    H280559   3.946   2.091   2.011 -1.3946 -0.1381  1.7409
19690TIP3   OH280560   1.576   3.969  11.503  0.6503  0.1730  0.1754
19690TIP3    H180561   1.511   3.987  11.570  1.2432  0.6789  0.6117
19690TIP3    H280562   1.537   3.897  11.451 -0.1884  0.3805  0.5069
19691TIP3   OH280563   4.091   1.818  16.484 -0.0885 -0.2906 -0.2072
19691TIP3    H180564   4.056   1.897  16.526  1.0613 -1.0455  2.2330
19691TIP3    H280565   4.029   1.749  16.508  0.4061 -0.6672 -0.0050
19692TIP3   OH280566   1.862   0.817  15.846  0.5176  0.8067  0.0710
19692TIP3    H180567   1.875   0.909  15.868  0.1260  0.6875  0.8423
19692TIP3    H280568   1.842   0.817  15.752  0.4820  1.5097  0.0753
19693TIP3   OH280569   1.773   6.610  16.875 -0.1679 -0.2500 -0.4612
19693TIP3    H180570   1.746   6.530  16.831  1.0655 -0.4458 -0.8901
19693TIP3    H280571   1.868   6.602  16.883 -0.2059  0.4617  0.9072
19694TIP3   OH280572   2.330   0.321  16.544 -0.5388  0.2525 -0.0542
19694TIP3    H180573   2.303   0.343  16.633  0.4316 -0.1805  0.3603
19694TIP3    H280574   2.422   0.347  16.540 -0.2136 -0.9275 -0.5058
19695TIP3   OH280575   2.062   4.823   3.754  0.1094  0.3580 -0.2285
19695TIP3    H180576   2.018   4.906   3.768  2.0340  1.1462  1.2965
19695TIP3    H280577   2.127   4.841   3.686 -0.1043 -0.1494 -0.5748
19696TIP3   OH280578   1.375   6.232  14.878 -0.1792  0.3742  0.0941
19696TIP3    H180579   1.324   6.200  14.952  0.5911 -1.9526 -0.3213
19696TIP3    H280580   1.459   6.259  14.916 -0.1083  0.0168  0.1917
19697TIP3   OH280581   4.019   1.096  11.119  0.2824  0.7474 -0.2677
19697TIP3    H180582   4.018   1.001  11.132  0.9617  0.7978  0.2356
19697TIP3    H280583   4.073   1.109  11.041 -1.0316  0.6368 -1.2011
19698TIP3   OH280584   5.935   1.243   0.015  0.1372  0.1941  0.0391
19698TIP3    H180585   5.985   1.289  -0.053 -0.3612 -0.3020 -0.6780
19698TIP3    H280586   5.844   1.262  -0.006 -0.0559 -0.8538 -0.0733
19699TIP3   OH280587   4.962   5.929   4.253  0.3180 -0.4274 -0.5600
19699TIP3    H180588   4.882   5.919   4.201 -0.0229 -4.2702  0.5403
19699TIP3    H280589   5.027   5.876   4.208  2.2120  2.4230 -1.2654
19700TIP3   OH280590   6.113   1.184  16.360 -0.1430 -0.0626  0.3344
19700TIP3    H180591   6.201   1.221  16.356 -0.5240  1.0356  1.5643
19700TIP3    H280592   6.128   1.089  16.368  1.0083  0.2765  2.7924
19701TIP3   OH280593   5.807   1.033   5.467  0.1479 -0.4519  0.1182
19701TIP3    H180594   5.901   1.025   5.484 -0.0169 -0.2558  1.1139
19701TIP3    H280595   5.800   1.027   5.371  1.1114 -1.0586  0.0752
19702TIP3   OH280596   0.260   6.671  17.165 -0.6252  0.0505  0.0090
19702TIP3    H180597   0.319   6.742  17.139 -1.9754  0.6025 -1.7257
19702TIP3    H280598   0.186   6.679  17.104 -1.6950 -1.6513  1.0516
19703TIP3   OH280599   6.762   2.566   3.200  0.3372 -0.1899  0.0317
19703TIP3    H180600   6.702   2.563   3.275  0.3839  0.7517  0.1104
19703TIP3    H280601   6.835   2.620   3.231  0.0871  0.6820 -0.8899
19704TIP3   OH280602   2.830   2.739  13.282 -0.1830  0.0767 -0.2602
19704TIP3    H180603   2.737   2.736  13.304  0.0348 -0.9261  0.5419
19704TIP3    H280604   2.851   2.650  13.255  0.8936 -0.0655  1.0303
19705TIP3   OH280605   0.377   2.134   4.444 -0.6715  0.2429 -0.0158
19705TIP3    H180606   0.378   2.198   4.515 -1.2670  0.5664 -0.2938
19705TIP3    H280607   0.397   2.051   4.487 -1.0882  0.4279  0.5490
19706TIP3   OH280608   5.265   1.289   0.345 -0.0008 -0.1818 -0.3773
19706TIP3    H180609   5.345   1.246   0.314  0.3275  0.5483 -0.5467
19706TIP3    H280610   5.274   1.380   0.318 -1.4082 -0.3255 -1.3619
19707TIP3   OH280611   5.202   6.105   1.143  0.8297  0.1713 -0.4659
19707TIP3    H180612   5.157   6.155   1.212  1.5882  0.9973 -0.5579
19707TIP3    H280613   5.285   6.078   1.183  0.5482 -0.7671 -0.5159
19708TIP3   OH280614   6.532   0.732   2.310  0.4431 -0.4937 -0.4478
19708TIP3    H180615   6.503   0.806   2.256 -0.7140 -0.6727 -0.0738
19708TIP3    H280616   6.624   0.752   2.330  0.5028  0.2144 -1.4009
19709TIP3   OH280617   2.186   4.513  15.723  0.1922  0.1264 -0.1432
19709TIP3    H180618   2.192   4.605  15.749 -0.6470 -0.1388  1.0171
19709TIP3    H280619   2.231   4.509  15.639 -1.6004  1.9979 -1.2054
19710TIP3   OH280620   4.813   0.143  16.652 -0.3740  0.3035 -0.0307
19710TIP3    H180621   4.907   0.156  16.637 -0.3131  1.6077  1.3580
19710TIP3    H280622   4.773   0.227  16.631 -1.1577 -0.0719 -0.0415
19711TIP3   OH280623   4.597   1.336  14.626  0.2254 -0.0813 -0.1052
19711TIP3    H180624   4.607   1.431  14.630  0.0859 -0.0955  0.5162
19711TIP3    H280625   4.573   1.319  14.535  0.0421  0.4986 -0.1695
19712TIP3   OH280626   0.265   1.791  12.304 -0.0495  0.4669  0.6486
19712TIP3    H180627   0.305   1.705  12.318 -0.2595  0.1704 -0.5228
19712TIP3    H280628   0.198   1.798  12.372 -1.2800 -1.0746 -0.3928
19713TIP3   OH280629   1.160   0.015   6.708 -0.1549 -0.1223 -0.1667
19713TIP3    H180630   1.196   0.008   6.619  0.0215 -1.4023 -0.0060
19713TIP3    H280631   1.065   0.017   6.695 -0.1290 -0.2261 -0.3920
19714TIP3   OH280632   3.776   4.598  13.042  0.1837  0.2700 -0.3074
19714TIP3    H180633   3.706   4.589  13.107 -0.4667 -1.0276 -1.1675
19714TIP3    H280634   3.857   4.593  13.094 -0.3254 -0.6241  0.4250
19715TIP3   OH280635   6.069   3.976  15.516 -0.0269 -0.1416 -0.4057
19715TIP3    H180636   6.093   3.940  15.431  0.1283 -0.0747 -0.3903
19715TIP3    H280637   5.988   4.024  15.501  0.7151  1.0171 -0.7954
19716TIP3   OH280638   2.871   6.308  14.097  0.0343 -0.3057  0.1612
19716TIP3    H180639   2.869   6.402  14.114 -2.4805 -0.6039  1.7577
19716TIP3    H280640   2.877   6.301  14.002 -1.4446  1.4946 -0.0896
19717TIP3   OH280641   1.512   1.999   0.374 -0.0459 -0.4739 -0.3035
19717TIP3    H180642   1.541   2.086   0.345 -0.1925  0.0581  1.0711
19717TIP3    H280643   1.519   1.944   0.297  0.8312  0.5804 -0.9905
19718TIP3   OH280644   6.080   2.555  11.068 -0.7820 -0.1241 -0.2669
19718TIP3    H180645   6.127   2.480  11.032 -0.9953 -0.6854  0.6180
19718TIP3    H280646   5.993   2.522  11.089  0.0117 -0.4080  2.8356
19719TIP3   OH280647   2.407   1.291   1.373 -0.0164 -0.3848  0.6158
19719TIP3    H180648   2.313   1.309   1.376  0.1843  0.7114  0.6199
19719TIP3    H280649   2.441   1.357   1.313  0.7204 -0.9277  0.4392
19720TIP3   OH280650   4.097   4.589   4.199  0.0109 -0.3781 -0.5722
19720TIP3    H180651   4.117   4.537   4.277  1.2557  0.3243 -0.4245
19720TIP3    H280652   4.126   4.535   4.126  2.3612  0.5608 -0.3681
19721TIP3   OH280653   2.363   1.704   1.725 -0.2045  0.1435  0.5348
19721TIP3    H180654   2.414   1.766   1.673 -0.4958 -1.6883 -2.0586
19721TIP3    H280655   2.300   1.758   1.772  0.3939  1.9198 -0.6470
19722TIP3   OH280656   4.361   3.021  15.227  0.6884  0.0512  1.2865
19722TIP3    H180657   4.271   2.995  15.209  0.9330  0.2013 -0.2177
19722TIP3    H280658   4.397   2.948  15.278  0.5821 -1.3532 -0.6026
19723TIP3   OH280659   0.153   4.333  12.513 -0.1312  0.4925  0.2852
19723TIP3    H180660   0.233   4.363  12.469  0.1041 -0.9556 -0.2786
19723TIP3    H280661   0.171   4.243  12.538 -1.0198  0.6585  1.5587
19724TIP3   OH280662   5.050   5.025   4.966  0.0453 -0.3651 -0.4001
19724TIP3    H180663   5.079   5.082   5.037 -0.6669  0.5660 -0.8315
19724TIP3    H280664   5.030   4.942   5.008  0.5879 -0.1324  0.3298
19725TIP3   OH280665   2.047   0.372   4.609  0.0947 -0.0869 -0.1927
19725TIP3    H180666   1.985   0.302   4.589  0.4964  0.0669 -2.0731
19725TIP3    H280667   2.022   0.444   4.550 -0.6546  1.5744  2.0771
19726TIP3   OH280668   5.576   0.818  11.374  0.2174 -0.2613  0.1359
19726TIP3    H180669   5.657   0.837  11.327  0.8132 -2.4256  0.2646
19726TIP3    H280670   5.515   0.790  11.306 -0.3745  1.1083  0.0754
19727TIP3   OH280671   5.015   6.783  17.000  0.1548  0.3230  0.3585
19727TIP3    H180672   5.039   6.693  17.018 -0.6371 -0.1776 -1.0096
19727TIP3    H280673   4.959   6.778  16.923 -0.6480  1.8898  0.8100
19728TIP3   OH280674   1.822   2.821   3.867 -0.3892 -0.1795 -0.5256
19728TIP3    H180675   1.821   2.789   3.957 -0.7128  0.9536 -0.1205
19728TIP3    H280676   1.899   2.876   3.861 -0.6215  0.1206 -0.8129
19729TIP3   OH280677   5.396   0.733   4.876  0.2631 -0.4780 -0.1419
19729TIP3    H180678   5.321   0.731   4.816 -1.3340  0.7315  1.7712
19729TIP3    H280679   5.411   0.826   4.892  0.0271 -0.8191  2.1390
19730TIP3   OH280680   4.669   5.412  13.728 -0.0409  0.0031 -0.1545
19730TIP3    H180681   4.743   5.461  13.763  0.1198  0.1028 -0.6179
19730TIP3    H280682   4.707   5.359  13.657 -0.5399  0.6665 -0.9302
19731TIP3   OH280683   2.575   5.474   2.326  0.3280  0.9853  0.1704
19731TIP3    H180684   2.607   5.392   2.364  0.2833  1.1745  0.6205
19731TIP3    H280685   2.544   5.525   2.401 -1.1093  0.7825 -0.2639
19732TIP3   OH280686   2.865   2.570   4.708  0.2444  0.0302  0.4581
19732TIP3    H180687   2.820   2.548   4.626  1.4896  1.0375 -0.5011
19732TIP3    H280688   2.823   2.514   4.774 -1.9179  0.4248 -0.5451
19733TIP3   OH280689   6.726   0.463   3.275  0.1232  0.1928 -0.6255
19733TIP3    H180690   6.821   0.476   3.283  0.5889 -3.7916  1.4757
19733TIP3    H280691   6.690   0.502   3.355  0.3647 -1.3195  0.2327
19734TIP3   OH280692   2.175   0.191  17.020  0.2773  0.3759  0.4222
19734TIP3    H180693   2.208   0.168  16.934  0.6635 -2.4149  1.2740
19734TIP3    H280694   2.088   0.227  17.003  0.7438  0.7918 -1.1952
19735TIP3   OH280695   0.568   0.330  16.356 -0.1795  0.0519 -0.2016
19735TIP3    H180696   0.565   0.238  16.331  0.4907 -0.8976  2.9776
19735TIP3    H280697   0.527   0.333  16.443  2.7029  2.1807  1.1799
19736TIP3   OH280698   5.527   2.190  16.741  0.2119  0.6185 -0.2378
19736TIP3    H180699   5.447   2.162  16.787  1.3770  0.9033  2.0512
19736TIP3    H280700   5.550   2.116  16.686 -1.2250  0.2503 -0.3821
19737TIP3   OH280701   5.775   3.834  11.091 -0.0919  0.4214 -0.0028
19737TIP3    H180702   5.724   3.865  11.016 -1.4264 -1.1186  0.2216
19737TIP3    H280703   5.796   3.743  11.070  1.5990  0.6923  0.4308
19738TIP3   OH280704   0.249   2.593  12.074  0.3605  0.5745  0.3438
19738TIP3    H180705   0.213   2.681  12.087  0.1797  0.5659 -0.0676
19738TIP3    H280706   0.209   2.564  11.991 -0.1154 -0.1662  0.8326
19739TIP3   OH280707   5.613   1.069   2.973 -0.0749 -0.0510  0.3101
19739TIP3    H180708   5.547   1.007   3.000 -1.4135  1.7072  1.1911
19739TIP3    H280709   5.591   1.090   2.882 -0.2164 -0.1045  0.3321
19740TIP3   OH280710   2.010   6.384  14.543 -0.8967 -0.2789  0.8153
19740TIP3    H180711   1.916   6.386  14.530 -0.9451  2.0158  1.2964
19740TIP3    H280712   2.047   6.391  14.455 -1.1855  0.8162  0.7793
19741TIP3   OH280713   2.115   6.522   3.485 -0.3387 -0.0299 -0.3682
19741TIP3    H180714   2.043   6.465   3.513 -1.2058  0.1569 -2.1375
19741TIP3    H280715   2.188   6.463   3.469 -0.9068 -0.5402 -1.1227
19742TIP3   OH280716   4.917   3.968  17.220  0.9101  0.6581 -0.6010
19742TIP3    H180717   4.974   3.899  17.185  0.0303 -0.0928 -0.5562
19742TIP3    H280718   4.859   3.991  17.147 -0.4749 -0.4318  0.1336
19743TIP3   OH280719   1.843   0.174   3.494  0.0441 -0.0280  0.4492
19743TIP3    H180720   1.768   0.115   3.500 -0.6707  0.8757  0.4832
19743TIP3    H280721   1.839   0.209   3.405  0.5655 -0.1654  0.3707
19744TIP3   OH280722   0.407   2.017  17.008  0.1454 -0.0321 -0.1783
19744TIP3    H180723   0.446   2.065  16.936 -1.8222  2.4372  0.3553
19744TIP3    H280724   0.314   2.010  16.986 -0.3492  0.0990  1.7446
19745TIP3   OH280725   3.029   4.851   2.639 -0.1557 -0.3101  0.5365
19745TIP3    H180726   3.040   4.882   2.729  1.5399 -3.4122  1.4762
19745TIP3    H280727   3.118   4.828   2.611 -1.1211 -2.8184 -0.6059
19746TIP3   OH280728   3.208   1.602  12.189  0.2036  0.1551 -0.7777
19746TIP3    H180729   3.296   1.640  12.192  0.3726 -0.3276  0.9326
19746TIP3    H280730   3.222   1.511  12.162  0.2801 -0.0854  0.0828
19747TIP3   OH280731   5.916   3.629  13.141  0.0932 -0.5911  0.0743
19747TIP3    H180732   5.970   3.708  13.132  1.1142 -1.2406  0.3845
19747TIP3    H280733   5.979   3.559  13.158 -0.9280 -1.2318  1.3147
19748TIP3   OH280734   1.942   1.418   0.487 -0.0749  0.3193 -0.4768
19748TIP3    H180735   1.975   1.473   0.558  0.7145 -0.6317 -0.0900
19748TIP3    H280736   1.847   1.431   0.488 -0.0825  0.2114  0.8324
19749TIP3   OH280737   3.395   1.119   6.460  0.4572 -0.1803  0.4528
19749TIP3    H180738   3.411   1.053   6.527  0.2818  1.0342  1.7160
19749TIP3    H280739   3.406   1.072   6.377 -0.8396 -2.0514  1.3157
19750TIP3   OH280740   4.142   6.791   5.828  0.1478  0.1717  0.3335
19750TIP3    H180741   4.085   6.765   5.756  1.9963 -0.7552 -0.8387
19750TIP3    H280742   4.082   6.817   5.898 -1.7111 -1.4586 -0.6004
19751TIP3   OH280743   2.104   2.619   0.891  0.3578  0.2410  0.2546
19751TIP3    H180744   2.194   2.653   0.883  0.4294  0.7472  2.7386
19751TIP3    H280745   2.051   2.678   0.838  1.4710  0.0289 -1.1087
19752TIP3   OH280746   1.051   3.046  15.970  0.1854  0.2005 -0.4440
19752TIP3    H180747   1.142   3.071  15.958  0.1744  0.4003 -0.1041
19752TIP3    H280748   1.024   3.010  15.885  0.6639 -0.1249 -0.4560
19753TIP3   OH280749   1.059   0.342   4.157 -0.2006  0.3904  0.2619
19753TIP3    H180750   1.015   0.427   4.159 -1.0128  0.0851 -2.6128
19753TIP3    H280751   0.997   0.283   4.200 -0.8053  0.7338 -0.1315
19754TIP3   OH280752   2.261   1.376  17.070  0.6946 -0.2681 -0.0128
19754TIP3    H180753   2.234   1.310  17.006 -1.2023  0.6097 -0.1619
19754TIP3    H280754   2.241   1.459  17.028  1.1049  0.3599  1.0201
19755TIP3   OH280755   1.780   1.636  16.158  0.4508 -0.2577 -0.1421
19755TIP3    H180756   1.796   1.593  16.074 -1.1118 -0.0765 -0.5455
19755TIP3    H280757   1.858   1.690  16.171  0.9257 -0.6375 -1.2425
19756TIP3   OH280758   6.142   4.209  14.145  0.0003 -0.0696 -0.3717
19756TIP3    H180759   6.084   4.279  14.176 -0.3588 -0.4497 -0.1914
19756TIP3    H280760   6.178   4.171  14.224 -0.1095 -0.3498 -0.4566
19757TIP3   OH280761   0.586   6.669   5.264 -0.0128  0.1304  0.7667
19757TIP3    H180762   0.583   6.650   5.170 -0.3024  1.1743  0.5608
19757TIP3    H280763   0.500   6.705   5.284  0.2889  0.5581  1.3022
19758TIP3   OH280764   2.593   1.241   3.485  0.1282  0.1081  0.3904
19758TIP3    H180765   2.565   1.150   3.478 -0.1429  0.1469  1.0096
19758TIP3    H280766   2.519   1.286   3.525 -0.7952  1.0972 -2.2560
19759TIP3   OH280767   5.010   0.593  17.132  0.2670 -0.2291 -0.4651
19759TIP3    H180768   4.991   0.515  17.184  2.1773 -0.2635  0.2276
19759TIP3    H280769   4.949   0.659  17.166  1.5044 -0.2332  1.9105
19760TIP3   OH280770   4.568   2.469  12.731  0.9245  0.0581 -0.1255
19760TIP3    H180771   4.603   2.387  12.694  0.4773  0.5457 -1.6515
19760TIP3    H280772   4.630   2.536  12.702 -0.0528  0.6071 -1.0001
19761TIP3   OH280773   1.088   0.223  16.957  0.0521  0.2719 -0.2218
19761TIP3    H180774   1.033   0.203  17.032  0.6526  0.6962  0.3475
19761TIP3    H280775   1.168   0.172  16.971  0.5612  1.0842 -0.0521
19762TIP3   OH280776   2.517   2.890  17.157 -0.0734  0.4810  0.0034
19762TIP3    H180777   2.426   2.859  17.151  0.2121 -0.2786 -0.3920
19762TIP3    H280778   2.565   2.816  17.192  0.3607  0.9748  0.4729
19763TIP3   OH280779   3.439   6.806  14.904 -0.1454  0.1932  0.3268
19763TIP3    H180780   3.465   6.738  14.966  0.1694  0.0470  0.0390
19763TIP3    H280781   3.405   6.876  14.958  0.0491  0.0310  0.6608
19764TIP3   OH280782   0.382   0.130   5.575 -0.6542  0.1736  0.1461
19764TIP3    H180783   0.465   0.084   5.587  0.6044  1.9333 -1.5941
19764TIP3    H280784   0.393   0.212   5.622 -0.4413  1.5100 -2.1512
19765TIP3   OH280785   4.415   0.394   5.604  0.1702  0.4156 -0.0280
19765TIP3    H180786   4.484   0.405   5.538 -0.1266  0.9057 -0.2670
19765TIP3    H280787   4.364   0.475   5.597  0.3910  0.6505  1.1069
19766TIP3   OH280788   6.332   0.652  15.633 -0.3881  0.1065  0.0892
19766TIP3    H180789   6.246   0.690  15.653 -0.7047 -0.7137  0.3341
19766TIP3    H280790   6.317   0.557  15.637 -0.2138 -0.0934 -2.9850
19767TIP3   OH280791   6.152   3.782   3.414  0.0650  0.2657  0.7761
19767TIP3    H180792   6.172   3.852   3.352 -0.2983 -0.1131  0.2280
19767TIP3    H280793   6.060   3.760   3.396  0.6735 -1.5007 -0.2008
19768TIP3   OH280794   0.658   4.148  16.601  0.1735  0.3862  0.4969
19768TIP3    H180795   0.685   4.065  16.640  0.4070 -0.4299 -1.3387
19768TIP3    H280796   0.713   4.214  16.644  1.4232 -0.6540  0.5177
19769TIP3   OH280797   0.326   6.115   6.200  0.6467  0.6812 -0.6078
19769TIP3    H180798   0.291   6.197   6.166 -1.9483 -0.7904 -1.6531
19769TIP3    H280799   0.264   6.089   6.269  0.8033 -0.9262 -1.0499
19770TIP3   OH280800   1.157   1.416  16.098 -0.0081 -0.1779 -0.0561
19770TIP3    H180801   1.171   1.401  16.004  1.3847 -0.0385  0.1230
19770TIP3    H280802   1.245   1.414  16.136 -0.6318 -1.0543  1.3729
19771TIP3   OH280803   3.123   5.267  15.790 -0.1262 -0.2299 -0.0155
19771TIP3    H180804   3.196   5.261  15.852 -1.6049  1.6631  2.0051
19771TIP3    H280805   3.105   5.177  15.764  0.8484 -1.0163  1.9516
19772TIP3   OH280806   1.568   2.442   2.182  0.0488  0.5036  0.0297
19772TIP3    H180807   1.493   2.404   2.136 -0.6198  0.5833  1.0327
19772TIP3    H280808   1.575   2.531   2.147  0.5777  0.0073 -1.1188
19773TIP3   OH280809   5.266   0.068  12.411  0.5704  0.3203  0.4676
19773TIP3    H180810   5.224  -0.014  12.435 -2.5980  1.7872  0.2661
19773TIP3    H280811   5.270   0.118  12.493  0.5098  0.7880  0.1909
19774TIP3   OH280812   3.846   2.557   5.403  0.0587  0.9461 -0.1467
19774TIP3    H180813   3.883   2.518   5.323 -1.3211 -1.0930  0.1785
19774TIP3    H280814   3.905   2.529   5.472  0.0774  0.9555 -0.1585
19775TIP3   OH280815   5.310   3.876  16.581 -0.0670 -0.6829  0.6105
19775TIP3    H180816   5.355   3.799  16.546  0.2228 -0.1313 -0.2532
19775TIP3    H280817   5.312   3.940  16.509 -1.7733 -0.4575  0.7392
19776TIP3   OH280818   3.910   4.834   5.610 -0.2892 -0.3799 -0.1238
19776TIP3    H180819   3.949   4.882   5.537 -1.4037  1.2611  0.3499
19776TIP3    H280820   3.981   4.824   5.673 -0.2683  1.4576  0.1712
19777TIP3   OH280821   1.129   1.964  11.103  0.0207 -0.2624  0.0586
19777TIP3    H180822   1.123   2.001  11.015  0.0588 -1.6367 -0.5196
19777TIP3    H280823   1.073   2.022  11.156 -0.5684  0.1552 -0.9914
19778TIP3   OH280824   5.621   3.153   3.389 -0.2676  0.2328  0.2234
19778TIP3    H180825   5.687   3.133   3.456  0.4267 -0.2129 -0.5737
19778TIP3    H280826   5.577   3.232   3.420 -0.4938 -0.4168  1.5933
19779TIP3   OH280827   1.514   4.483  14.180  0.4030  0.2050 -0.6169
19779TIP3    H180828   1.474   4.397  14.191  0.3368  0.3548  0.3580
19779TIP3    H280829   1.446   4.545  14.207  1.1181  0.4784  0.6053
19780TIP3   OH280830   1.281   6.167   4.015 -0.1699  0.5543 -0.0813
19780TIP3    H180831   1.288   6.187   3.922 -3.3186 -1.2736 -0.7970
19780TIP3    H280832   1.255   6.249   4.056  0.1820  1.1029 -0.9557
19781TIP3   OH280833   5.225   5.647  14.576 -0.1301  0.1108 -0.6154
19781TIP3    H180834   5.148   5.647  14.633  0.2289  0.9232 -0.1238
19781TIP3    H280835   5.213   5.722  14.518 -0.3282 -0.5140 -1.3978
19782TIP3   OH280836   5.118   0.673  12.527 -0.0194 -0.1220 -0.0873
19782TIP3    H180837   5.063   0.701  12.454 -2.4056 -1.6550  1.0536
19782TIP3    H280838   5.148   0.585  12.503 -1.5824 -1.0172  1.1507
19783TIP3   OH280839   2.769   0.127   5.424 -0.0061  0.0596  0.2460
19783TIP3    H180840   2.770   0.152   5.516  0.4766  1.9227 -0.2461
19783TIP3    H280841   2.857   0.147   5.392  0.4648 -2.4563 -0.1586
19784TIP3   OH280842   1.737   2.332  15.715  0.3332  0.1397 -0.2452
19784TIP3    H180843   1.676   2.276  15.666  0.5671  0.8392 -1.3618
19784TIP3    H280844   1.717   2.421  15.685  2.0607  0.3548 -0.8156
19785TIP3   OH280845   2.953   5.379  12.590  0.1400  0.0400  0.3620
19785TIP3    H180846   3.042   5.414  12.588 -0.4189  1.4996  1.1062
19785TIP3    H280847   2.963   5.291  12.628  1.1063  0.6545  1.5393
19786TIP3   OH280848   2.307   5.609   2.835 -0.4782 -0.1541 -0.0276
19786TIP3    H180849   2.279   5.698   2.814  0.2277  0.0730 -0.0238
19786TIP3    H280850   2.387   5.620   2.886 -0.8162 -0.7760  0.6408
19787TIP3   OH280851   5.066   1.373  13.092 -0.1970 -0.6578  0.2100
19787TIP3    H180852   5.084   1.357  13.185 -0.8523 -0.2946  0.4005
19787TIP3    H280853   4.991   1.317  13.072 -0.7797  0.1249  0.1910
19788TIP3   OH280854   0.710   2.981   3.771  0.3446 -0.1095  0.3073
19788TIP3    H180855   0.796   2.948   3.799  0.1325 -2.0546 -1.2450
19788TIP3    H280856   0.731   3.057   3.717  1.0689 -0.3259  0.2664
19789TIP3   OH280857   6.764   1.228  15.104 -0.0027 -0.1488  0.6801
19789TIP3    H180858   6.811   1.179  15.172  0.1749  0.5704  1.0898
19789TIP3    H280859   6.758   1.168  15.031  2.2452 -0.0233  0.3542
19790TIP3   OH280860   1.000   0.307  12.766  0.2549  0.3216 -0.0294
19790TIP3    H180861   1.008   0.381  12.706  0.7801  1.1733  1.0825
19790TIP3    H280862   1.065   0.323  12.833  0.0664 -0.9291  0.4719
19791TIP3   OH280863   4.360   0.264  13.120 -0.1019  0.2180  0.0641
19791TIP3    H180864   4.304   0.226  13.189  1.8569 -0.5081  1.2967
19791TIP3    H280865   4.387   0.348  13.156  0.7992 -0.0960  0.1250
19792TIP3   OH280866   5.559   1.700  17.042 -0.0543 -0.3150 -0.2640
19792TIP3    H180867   5.546   1.621  16.989 -0.4486 -0.2250 -0.3022
19792TIP3    H280868   5.574   1.769  16.977 -1.1799 -0.0833 -0.2868
19793TIP3   OH280869   4.521   6.512  15.112 -0.9746  0.1387 -0.1104
19793TIP3    H180870   4.440   6.507  15.163  0.1512 -0.4161  1.6932
19793TIP3    H280871   4.532   6.425  15.076 -0.6612 -0.0781  0.4975
19794TIP3   OH280872   1.818   0.753   3.611 -0.4438  0.9426  0.2471
19794TIP3    H180873   1.800   0.671   3.567 -1.4377  1.2843 -0.0036
19794TIP3    H280874   1.902   0.782   3.576 -0.3220  0.2804 -0.0119
19795TIP3   OH280875   1.833   4.958  12.641 -0.7279 -0.1331  0.0388
19795TIP3    H180876   1.776   4.977  12.715 -0.0101  2.6599 -0.0939
19795TIP3    H280877   1.921   4.957  12.678 -0.6498 -2.4125 -0.1369
19796TIP3   OH280878   1.090   6.407   3.690 -0.3718  0.0195  0.6355
19796TIP3    H180879   1.131   6.366   3.614 -2.2125  1.8253 -1.3931
19796TIP3    H280880   1.052   6.334   3.739 -1.9690 -0.9281 -1.9190
19797TIP3   OH280881   6.798   4.993   0.449  0.3377  0.6489  0.1036
19797TIP3    H180882   6.858   5.049   0.400 -0.5270  0.2231 -1.4578
19797TIP3    H280883   6.771   5.047   0.523  0.8773  1.6557 -0.4182
19798TIP3   OH280884   5.886   2.276   4.422 -0.1206  0.1443  0.4988
19798TIP3    H180885   5.938   2.270   4.342  1.4490  0.2344  1.4852
19798TIP3    H280886   5.888   2.188   4.459 -1.4880 -0.0824  0.0557
19799TIP3   OH280887   2.832   5.900  12.317  0.4597  0.1807  0.8858
19799TIP3    H180888   2.777   5.827  12.289  2.0951  0.2834 -2.9354
19799TIP3    H280889   2.918   5.860  12.331  1.4512  1.3589 -1.5722
19800TIP3   OH280890   5.685   0.172   4.176  0.4146 -0.3481  0.4705
19800TIP3    H180891   5.762   0.165   4.232 -0.0332 -4.0245  0.7252
19800TIP3    H280892   5.612   0.182   4.237  0.4701  1.6693  0.2676
19801TIP3   OH280893   3.700   4.987   5.601  0.4122 -0.0962 -0.1882
19801TIP3    H180894   3.672   5.011   5.689 -0.0913 -0.6206 -0.2019
19801TIP3    H280895   3.781   4.938   5.614  0.4108 -0.0563 -0.0245
19802TIP3   OH280896   1.957   3.173  13.910 -0.3481 -0.1724  0.2840
19802TIP3    H180897   1.979   3.170  14.004  1.0512  1.8931  0.0429
19802TIP3    H280898   2.010   3.103  13.872 -1.3131 -1.3659  1.0929
19803TIP3   OH280899   5.217   2.741   4.243 -0.0712  0.8246  0.2448
19803TIP3    H180900   5.164   2.718   4.166  1.3536 -0.5710 -0.3536
19803TIP3    H280901   5.168   2.811   4.286 -1.2577  1.1265 -1.5406
19804TIP3   OH280902   3.014   5.362  14.877  0.3103  0.0800  0.8305
19804TIP3    H180903   3.055   5.396  14.798  0.0312  1.6776  1.3625
19804TIP3    H280904   3.025   5.267  14.871  2.5462  0.3679  0.1169
19805TIP3   OH280905   0.587   4.384  15.053  0.1980 -0.3328 -0.6727
19805TIP3    H180906   0.632   4.437  15.119  0.5632 -2.4764  0.8461
19805TIP3    H280907   0.657   4.351  14.997  0.4682 -2.7553  1.0229
19806TIP3   OH280908   2.939   5.033  10.216 -0.3177  0.3595 -0.6309
19806TIP3    H180909   2.908   4.949  10.249 -0.0104  0.6827  0.4942
19806TIP3    H280910   2.905   5.097  10.279 -1.5820  1.2006 -2.1329
19807TIP3   OH280911   4.914   4.667  11.815  0.5258 -0.0060 -0.4709
19807TIP3    H180912   4.827   4.651  11.779 -0.2789  1.4689  0.7331
19807TIP3    H280913   4.930   4.760  11.798  0.3797  0.5738  2.3841
19808TIP3   OH280914   4.301   0.334  11.871  0.1982 -0.1766  0.2959
19808TIP3    H180915   4.286   0.411  11.926 -0.5747 -1.1882  1.5115
19808TIP3    H280916   4.231   0.337  11.806  0.7484  0.6860 -0.2591
19809TIP3   OH280917   6.194   2.349   4.772  0.9806  1.2155 -0.4489
19809TIP3    H180918   6.175   2.436   4.736  1.0798  0.8273 -1.4733
19809TIP3    H280919   6.288   2.350   4.789  0.9898  1.2952 -0.5072
19810TIP3   OH280920   1.841   4.650  15.222  0.3763  0.3396 -0.1920
19810TIP3    H180921   1.832   4.734  15.176  1.1155 -0.5228 -1.9363
19810TIP3    H280922   1.761   4.602  15.201  0.3644  0.2419  0.0654
19811TIP3   OH280923   1.686   0.821   5.123  0.2120 -0.3846  1.1738
19811TIP3    H180924   1.751   0.753   5.139  0.9836  0.2378  0.7444
19811TIP3    H280925   1.656   0.806   5.034  1.3956  0.6542  0.5821
19812TIP3   OH280926   0.558   0.798  13.675  0.1268  0.2262 -0.2337
19812TIP3    H180927   0.518   0.744  13.743 -0.1880  0.4147 -0.2648
19812TIP3    H280928   0.616   0.739  13.627 -0.7359 -0.2424 -0.7067
19813TIP3   OH280929   2.663   5.887  10.268  0.0684 -0.2934 -0.1019
19813TIP3    H180930   2.618   5.968  10.294  0.3148  0.4589 -1.9644
19813TIP3    H280931   2.752   5.898  10.303 -0.2526 -0.3367  0.7474
19814TIP3   OH280932   0.277   4.348  12.072  0.4910 -0.0156  0.0928
19814TIP3    H180933   0.324   4.373  12.152  1.8659 -1.1386 -0.3387
19814TIP3    H280934   0.248   4.258  12.089  1.0045 -0.3442 -0.7707
19815TIP3   OH280935   0.257   2.641   6.533 -0.0376  0.7445  0.5922
19815TIP3    H180936   0.275   2.564   6.587 -0.4044 -0.4356 -0.9304
19815TIP3    H280937   0.337   2.693   6.539  0.7071 -0.3746  0.6028
19816TIP3   OH280938   2.154   0.376  12.859  0.6333  0.1186  0.3605
19816TIP3    H180939   2.160   0.298  12.914 -1.3411 -0.5540 -0.3550
19816TIP3    H280940   2.128   0.344  12.773 -2.3717  1.7299  0.5914
19817TIP3   OH280941   3.767   6.023  17.045  0.1480 -0.0463 -0.1627
19817TIP3    H180942   3.701   6.041  17.112 -0.2200  0.8656 -0.7689
19817TIP3    H280943   3.748   6.084  16.975  3.4741  2.3801  0.9282
19818TIP3   OH280944   6.521   4.855   4.552  0.3167 -0.0052  0.6063
19818TIP3    H180945   6.552   4.796   4.621 -1.0590  0.2982  1.5069
19818TIP3    H280946   6.427   4.842   4.549  0.4761 -0.8853 -2.0832
19819TIP3   OH280947   0.236   4.711   5.748  0.4499 -0.2795  0.1101
19819TIP3    H180948   0.277   4.773   5.687  0.4873 -0.0446  0.3764
19819TIP3    H280949   0.204   4.640   5.691  1.2542 -0.4809 -0.1030
19820TIP3   OH280950   5.644   1.037  11.687  0.5799 -0.0657 -0.2990
19820TIP3    H180951   5.611   1.127  11.687 -1.6883 -0.8599 -1.4248
19820TIP3    H280952   5.739   1.046  11.683  0.3506  2.2665 -1.0765
19821TIP3   OH280953   5.867   3.003   1.618  0.3589 -0.0030  0.4613
19821TIP3    H180954   5.942   2.945   1.606 -0.0642 -0.4794  0.0875
19821TIP3    H280955   5.797   2.963   1.567 -0.3294  0.1055  1.2980
19822TIP3   OH280956   0.866   0.881  11.860  0.4074  0.3518 -0.4244
19822TIP3    H180957   0.923   0.942  11.907 -0.9502  0.1441  1.5674
19822TIP3    H280958   0.897   0.884  11.770  2.4011  1.5889  0.2662
19823TIP3   OH280959   3.336   5.000   3.053 -0.4175  0.4310 -0.4222
19823TIP3    H180960   3.340   5.052   3.134  1.3820  1.1777 -0.9715
19823TIP3    H280961   3.364   5.061   2.984 -1.0794 -0.4590 -1.5004
19824TIP3   OH280962   0.275   4.830   3.307  0.0272 -0.1811 -0.8538
19824TIP3    H180963   0.246   4.922   3.304  1.1877  0.2213 -0.2486
19824TIP3    H280964   0.198   4.781   3.336  0.1704  0.9543  1.5531
19825TIP3   OH280965   6.526   3.096   4.451 -0.2862  0.1899  0.1079
19825TIP3    H180966   6.554   3.118   4.363 -1.0446  1.3048  0.1394
19825TIP3    H280967   6.446   3.044   4.439  0.3988 -0.8830  0.1022
19826TIP3   OH280968   1.375   2.805  16.071 -1.0573 -0.0572  0.1849
19826TIP3    H180969   1.311   2.737  16.094 -1.0707 -0.0178  0.2651
19826TIP3    H280970   1.353   2.878  16.128 -0.2127 -0.4582  1.0353
19827TIP3   OH280971   0.373   1.335  14.824 -0.6304 -0.4438  0.3225
19827TIP3    H180972   0.388   1.288  14.906 -0.0648 -0.3017  0.3038
19827TIP3    H280973   0.365   1.267  14.758  0.0791 -0.5161  0.3118
19828TIP3   OH280974   6.290   4.926   5.282 -0.2893  0.1404 -0.0331
19828TIP3    H180975   6.326   4.934   5.371 -1.6518 -0.3223  0.5676
19828TIP3    H280976   6.204   4.886   5.295  0.2317 -1.5908 -1.7040
19829TIP3   OH280977   0.784   5.855   0.392 -0.5045 -0.6309  0.0342
19829TIP3    H180978   0.732   5.790   0.440 -1.0307 -1.1155 -1.1756
19829TIP3    H280979   0.763   5.839   0.300 -0.0407  0.7455 -0.3203
19830TIP3   OH280980   3.102   6.437   5.860  0.4179  0.5195 -0.0370
19830TIP3    H180981   3.030   6.485   5.820 -0.0009 -0.8090 -0.8906
19830TIP3    H280982   3.098   6.461   5.953 -1.4851  0.0230  0.0410
19831TIP3   OH280983   4.275   1.418  16.951  0.2543  0.0598 -0.2471
19831TIP3    H180984   4.362   1.390  16.981 -0.1122  1.8453  2.6146
19831TIP3    H280985   4.218   1.343  16.969  0.5456  0.1665  1.1363
19832TIP3   OH280986   5.379   5.812   6.034 -0.6277 -0.3845  0.1632
19832TIP3    H180987   5.305   5.821   5.974 -1.2078 -0.5429  0.8464
19832TIP3    H280988   5.413   5.724   6.018  0.5667  0.3512 -1.4511
19833TIP3   OH280989   2.161   6.023  11.966  0.3400 -0.0682 -0.0837
19833TIP3    H180990   2.246   6.043  11.927 -0.1536 -1.2145 -1.7891
19833TIP3    H280991   2.175   6.037  12.060  2.2162  0.4129 -0.3985
19834TIP3   OH280992   6.117   0.265  12.056  0.1800 -0.5646 -0.1485
19834TIP3    H180993   6.035   0.272  12.007  1.0011 -0.5158 -1.5479
19834TIP3    H280994   6.143   0.355  12.074 -0.6841 -0.5986  1.3751
19835TIP3   OH280995   5.403   3.365   0.185 -0.1066 -0.4133  0.1390
19835TIP3    H180996   5.403   3.422   0.108  0.6777 -1.1806 -0.4277
19835TIP3    H280997   5.480   3.392   0.236 -1.1051  0.6819  1.1037
19836TIP3   OH280998   5.404   1.707   1.530 -0.0431 -0.4547 -0.9794
19836TIP3    H180999   5.474   1.647   1.555  1.0924  1.5115  0.7201
19836TIP3    H281000   5.334   1.691   1.593  0.4985  0.3811 -0.1456
19837TIP3   OH281001   4.869   3.131  16.212 -0.4995 -0.2677  0.2426
19837TIP3    H181002   4.856   3.059  16.151 -2.0113  0.8766 -0.8256
19837TIP3    H281003   4.961   3.156  16.199  0.1591 -2.2188  0.9175
19838TIP3   OH281004   6.033   0.585   0.883 -0.2456  0.0780  0.2453
19838TIP3    H181005   5.994   0.643   0.817 -1.7131 -0.7093  0.3960
19838TIP3    H281006   6.061   0.508   0.834  1.3408  0.7236  0.1071
19839TIP3   OH281007   6.704   0.657   0.806  0.1579  0.5349 -0.0092
19839TIP3    H181008   6.682   0.651   0.713 -0.4991  2.0832  0.0283
19839TIP3    H281009   6.669   0.577   0.844 -1.6480  0.9842 -0.7014
19840TIP3   OH281010   0.166   3.036  12.950 -0.1547 -0.4750 -0.2656
19840TIP3    H181011   0.205   2.962  12.904  3.3253 -0.1446  1.9615
19840TIP3    H281012   0.183   3.112  12.895 -0.5686 -0.8070 -0.8525
19841TIP3   OH281013   6.763   2.061   1.709  0.1890 -0.4836 -0.2566
19841TIP3    H181014   6.849   2.104   1.710 -0.9975  1.9842 -0.8988
19841TIP3    H281015   6.750   2.030   1.799  1.3983 -0.1790  0.0285
19842TIP3   OH281016   1.717   0.251  17.124 -0.1482 -0.4489 -0.3358
19842TIP3    H181017   1.703   0.173  17.177 -0.2434 -1.4636 -1.8090
19842TIP3    H281018   1.629   0.287  17.110 -0.1131 -0.1283  0.2723
19843TIP3   OH281019   4.935   2.499  14.723  1.0284  0.2184 -0.3839
19843TIP3    H181020   5.001   2.437  14.691  1.6487 -0.1169  1.4470
19843TIP3    H281021   4.903   2.459  14.804 -0.9902  0.6838 -0.9358
19844TIP3   OH281022   4.515   3.279   0.531  0.3345 -0.4605 -0.0862
19844TIP3    H181023   4.475   3.204   0.575  0.3052 -0.5570 -0.2776
19844TIP3    H281024   4.582   3.241   0.474 -0.7540 -0.4679 -1.3696
19845TIP3   OH281025   1.761   6.604   3.734  0.4858  0.2163  0.4789
19845TIP3    H181026   1.827   6.574   3.797  0.6184  1.9303  1.1772
19845TIP3    H281027   1.811   6.622   3.654  0.7317  0.6514  0.7279
19846TIP3   OH281028   6.531   1.072  14.550 -0.3004 -0.0274 -0.5529
19846TIP3    H181029   6.579   1.000  14.591  0.1401  2.0928  2.8413
19846TIP3    H281030   6.440   1.044  14.551 -0.3860  0.2278  2.5524
19847TIP3   OH281031   6.478   0.216   1.950 -0.3112 -0.0387  0.3548
19847TIP3    H181032   6.485   0.172   1.865 -1.0899 -0.7885  0.6704
19847TIP3    H281033   6.541   0.288   1.945  0.3988 -0.7004 -0.4735
19848TIP3   OH281034   2.247   5.046   5.903  0.1221 -0.1312 -0.8147
19848TIP3    H181035   2.321   5.054   5.843  1.1145 -1.4291  0.2143
19848TIP3    H281036   2.275   5.092   5.982 -0.8786  0.9050 -1.0478
19849TIP3   OH281037   3.080   2.272  12.949  0.5308 -0.1630 -0.1032
19849TIP3    H181038   3.084   2.318  12.865  2.5157 -3.5070 -1.9056
19849TIP3    H281039   2.986   2.258  12.963  0.1009  1.4089 -1.1701
19850TIP3   OH281040   1.950   2.082  14.594 -0.3761 -0.6316 -0.2828
19850TIP3    H181041   1.936   2.092  14.500  0.6834 -0.5910 -0.4468
19850TIP3    H281042   1.912   2.160  14.633  0.3013 -0.0366 -0.7960
19851TIP3   OH281043   5.470   1.970   2.200 -0.4201 -1.0039  0.3413
19851TIP3    H181044   5.535   2.022   2.248 -0.0126  1.9214 -3.1173
19851TIP3    H281045   5.385   2.004   2.229 -0.1829  0.6308 -0.8160
19852TIP3   OH281046   5.430   3.527  14.003  0.2342  0.2333  0.3828
19852TIP3    H181047   5.359   3.464  13.993  0.6528  0.0804 -1.8180
19852TIP3    H281048   5.387   3.605  14.039 -0.9979  0.0281 -0.6006
19853TIP3   OH281049   4.658   4.533  17.118 -0.4894 -0.5027  0.1189
19853TIP3    H181050   4.729   4.475  17.090  0.0779 -0.6044  1.7174
19853TIP3    H281051   4.687   4.568  17.202 -0.6247  2.4829 -1.0225
19854TIP3   OH281052   6.177   2.383   0.474 -0.2864  0.0921 -0.5804
19854TIP3    H181053   6.104   2.352   0.528 -0.2535 -0.1992 -0.7062
19854TIP3    H281054   6.192   2.313   0.411  0.2507  0.0555 -0.4161
19855TIP3   OH281055   2.167   6.615  12.126 -0.3006 -0.1702 -0.4066
19855TIP3    H181056   2.105   6.645  12.060  1.4781 -2.0066 -3.0424
19855TIP3    H281057   2.250   6.657  12.101  0.7959 -2.3118 -0.4236
19856TIP3   OH281058   3.378   6.205  13.003 -0.8167  0.5901 -0.3552
19856TIP3    H181059   3.361   6.265  13.075  1.4585  0.2304  0.5150
19856TIP3    H281060   3.322   6.236  12.932 -0.5284  3.0625  0.4562
19857TIP3   OH281061   6.031   4.162   1.686  0.0654  0.9033 -0.0391
19857TIP3    H181062   6.126   4.158   1.703 -0.0530  0.6898  0.5792
19857TIP3    H281063   5.999   4.232   1.743 -0.5064 -0.5697  1.5043
19858TIP3   OH281064   5.481   4.793   4.665  0.7014  0.1750 -0.0387
19858TIP3    H181065   5.408   4.805   4.605 -1.4110 -0.0105  2.4338
19858TIP3    H281066   5.506   4.701   4.655 -1.5803 -0.6423  1.4675
19859TIP3   OH281067   0.733   6.134   0.421  0.2027  0.2316 -0.5661
19859TIP3    H181068   0.727   6.045   0.389  1.0509  0.7772 -2.2654
19859TIP3    H281069   0.647   6.151   0.461 -0.1319 -1.1496 -0.6909
19860TIP3   OH281070   2.537   4.360  16.135  0.8640 -0.0599  0.5976
19860TIP3    H181071   2.507   4.413  16.209  2.0217 -2.0913  2.5752
19860TIP3    H281072   2.563   4.425  16.069 -0.0646  1.7931  1.9899
19861TIP3   OH281073   6.072   6.730   5.694 -0.0455 -0.3469  0.0103
19861TIP3    H181074   6.140   6.704   5.756 -0.2762  2.1887  1.4201
19861TIP3    H281075   6.114   6.726   5.608  1.1186 -1.2119  0.6170
19862TIP3   OH281076   3.187   5.481  13.932 -0.7947 -0.0065  0.0492
19862TIP3    H181077   3.112   5.429  13.904 -1.6405  1.1541  0.1615
19862TIP3    H281078   3.174   5.493  14.026 -1.4607  1.8013 -0.2641
19863TIP3   OH281079   5.258   5.425  11.517  0.4106  0.2918  0.0036
19863TIP3    H181080   5.349   5.438  11.543  1.0947 -0.1615 -2.0807
19863TIP3    H281081   5.263   5.395  11.426 -1.7648 -0.7399  0.1866
19864TIP3   OH281082   1.278   4.211   3.428 -0.9119  0.3654  0.0948
19864TIP3    H181083   1.359   4.260   3.417  0.2331 -0.7571  3.0374
19864TIP3    H281084   1.231   4.257   3.497 -0.7422 -1.4429  1.4666
19865TIP3   OH281085   6.534   6.645  13.674  0.0224  0.3074 -0.1247
19865TIP3    H181086   6.444   6.672  13.655 -0.1413  0.2800  0.5746
19865TIP3    H281087   6.543   6.558  13.633 -0.0791  0.5666 -0.6959
19866TIP3   OH281088   4.349   2.230   3.257 -0.4078 -0.1636 -0.1634
19866TIP3    H181089   4.342   2.227   3.162 -0.6081 -0.8081 -0.1359
19866TIP3    H281090   4.390   2.314   3.276  0.6587 -0.5060 -0.8840
19867TIP3   OH281091   1.382   3.618  12.302  0.0521 -0.3802 -0.0869
19867TIP3    H181092   1.385   3.675  12.225 -2.8266 -0.4693 -0.3430
19867TIP3    H281093   1.353   3.675  12.373 -0.0230 -0.8906  0.2941
19868TIP3   OH281094   3.441   2.518   0.171 -0.1994  0.2648 -0.1661
19868TIP3    H181095   3.486   2.484   0.249  0.1788 -1.0100 -0.9270
19868TIP3    H281096   3.358   2.470   0.168  0.4046 -0.7230 -1.3388
19869TIP3   OH281097   1.094   3.440  16.252 -0.7691  0.9250  0.2844
19869TIP3    H181098   1.061   3.521  16.291  0.4454  0.8687  1.4566
19869TIP3    H281099   1.022   3.377  16.264 -0.3715  0.8644  2.5960
19870TIP3   OH281100   0.044   0.112  13.276 -0.3256 -0.0333 -0.4926
19870TIP3    H181101  -0.028   0.175  13.276 -0.7995 -0.5426 -2.2224
19870TIP3    H281102   0.006   0.033  13.314 -0.7814 -0.3846 -1.6440
19871TIP3   OH281103   5.124   5.262  14.993  0.4928  0.4627  0.7436
19871TIP3    H181104   5.203   5.214  14.969 -0.5901 -1.2059  0.4336
19871TIP3    H281105   5.077   5.275  14.911 -0.6989 -0.6734  1.2265
19872TIP3   OH281106   0.557   5.352   3.126  0.5253 -0.2296 -0.3376
19872TIP3    H181107   0.562   5.312   3.040  0.0615  2.1339 -1.4931
19872TIP3    H281108   0.620   5.303   3.179 -0.2562 -2.6797 -1.5898
19873TIP3   OH281109   3.095   2.677  11.810  0.6161 -0.3106 -0.3024
19873TIP3    H181110   3.041   2.680  11.731 -0.1015  1.2219  0.2238
19873TIP3    H281111   3.131   2.765  11.818  0.6726 -0.4419  1.0817
19874TIP3   OH281112   2.462   5.367   3.197  0.4804 -0.1047 -0.5072
19874TIP3    H181113   2.529   5.361   3.130 -0.0775  0.5094 -1.1351
19874TIP3    H281114   2.381   5.342   3.152 -0.1561  1.7951 -0.4914
19875TIP3   OH281115   1.780   0.321   2.892  0.1770  0.0138  0.7655
19875TIP3    H181116   1.721   0.395   2.881 -0.6553 -0.8306 -0.6219
19875TIP3    H281117   1.866   0.361   2.907 -0.4382  1.2427  1.0520
19876TIP3   OH281118   2.520   0.052  10.846 -0.0980  0.3220  0.3094
19876TIP3    H181119   2.592   0.003  10.885  0.4145  0.8372  0.0197
19876TIP3    H281120   2.460  -0.015  10.814 -0.8555 -0.1284  2.5493
19877TIP3   OH281121   1.363   6.130  12.402 -0.2065 -0.2794 -0.2030
19877TIP3    H181122   1.312   6.064  12.355  0.2605 -0.1214 -0.9427
19877TIP3    H281123   1.342   6.115  12.494  0.0469 -1.6084 -0.3466
19878TIP3   OH281124   1.375   5.627  17.197  0.1218  0.3012 -0.2599
19878TIP3    H181125   1.450   5.674  17.163 -0.4182  0.6379 -1.0022
19878TIP3    H281126   1.360   5.556  17.134 -2.3229  2.3206 -2.0340
19879TIP3   OH281127   3.082   1.092   0.399 -0.3330  0.1038 -0.7968
19879TIP3    H181128   3.098   1.032   0.471 -1.7848 -1.4388 -1.6956
19879TIP3    H281129   3.100   1.179   0.434 -0.2310 -0.6989  1.1685
19880TIP3   OH281130   2.259   0.148  14.679  0.1656 -0.4970  0.2454
19880TIP3    H181131   2.304   0.174  14.599  1.2447 -2.1347  0.2986
19880TIP3    H281132   2.166   0.146  14.655  0.1874  1.9544 -0.1202
19881TIP3   OH281133   2.039   1.132   6.374  0.1976  0.2266 -0.3457
19881TIP3    H181134   2.036   1.057   6.434  0.5386  1.3966  1.1457
19881TIP3    H281135   2.132   1.149   6.363  0.1492 -0.2279 -1.5392
19882TIP3   OH281136   0.220   6.104   4.260 -0.0805 -0.2785  0.4191
19882TIP3    H181137   0.257   6.117   4.172 -1.6479 -1.9031 -0.5331
19882TIP3    H281138   0.282   6.045   4.304  0.5049  0.2155  0.2620
19883TIP3   OH281139   5.539   2.693   1.915  0.1307  0.0194 -0.1527
19883TIP3    H181140   5.568   2.624   1.856  2.9501  1.7406 -0.8579
19883TIP3    H281141   5.497   2.757   1.859  1.4915  0.9514 -0.1395
19884TIP3   OH281142   0.996   5.977   4.947  0.1098  0.3917  0.0705
19884TIP3    H181143   1.040   6.060   4.966  0.3273  0.2985 -0.0199
19884TIP3    H281144   0.904   6.000   4.933  0.4787  0.8523 -1.7155
19885TIP3   OH281145   4.287   5.913   4.811 -0.2824 -0.6579 -0.0979
19885TIP3    H181146   4.382   5.904   4.821 -0.4310 -0.5984  1.4916
19885TIP3    H281147   4.250   5.851   4.875 -1.3129 -0.8412 -0.8578
19886TIP3   OH281148   2.706   5.047  13.435  0.5497  0.1635 -0.3413
19886TIP3    H181149   2.708   5.122  13.375 -0.0984 -1.4463 -2.4402
19886TIP3    H281150   2.791   5.004  13.421 -1.4530 -2.9628 -3.8182
19887TIP3   OH281151   5.715   6.376  14.749  0.5650 -0.0408  0.1016
19887TIP3    H181152   5.661   6.441  14.794  0.7426  0.1107  0.0971
19887TIP3    H281153   5.770   6.427  14.690  0.4811 -0.2227 -0.1330
19888TIP3   OH281154   6.802   2.105   4.638  0.4453 -0.4292  0.7184
19888TIP3    H181155   6.826   2.196   4.654  0.5503 -0.4446  0.6485
19888TIP3    H281156   6.865   2.054   4.690  0.6151 -0.4717  0.4708
19889TIP3   OH281157   6.057   3.934   6.781  0.0798 -0.1059 -0.0553
19889TIP3    H181158   6.104   3.852   6.765  1.6019  0.9858 -1.3245
19889TIP3    H281159   5.965   3.912   6.771  0.5919 -1.2075 -2.4592
19890TIP3   OH281160   5.715   0.660  12.073  0.4473  0.3856 -0.5089
19890TIP3    H181161   5.697   0.683  12.164 -0.4441  0.6994 -0.7553
19890TIP3    H281162   5.630   0.635  12.038  0.6330  1.1348 -1.5033
19891TIP3   OH281163   6.780   3.652  16.569  0.0025 -0.4039  0.6084
19891TIP3    H181164   6.846   3.714  16.601 -0.0684 -0.2330  0.4235
19891TIP3    H281165   6.746   3.610  16.648  0.3404 -0.5007  0.7084
19892TIP3   OH281166   0.402   0.971  16.799  0.1872 -0.3304 -0.1924
19892TIP3    H181167   0.333   1.033  16.776  0.5845  0.1745 -0.0104
19892TIP3    H281168   0.445   1.010  16.875  1.4212 -0.0881 -1.0106
19893TIP3   OH281169   4.066   4.796   4.026 -0.8309 -0.2709  0.3978
19893TIP3    H181170   4.060   4.746   3.945 -0.2129 -0.5235  0.5055
19893TIP3    H281171   4.084   4.730   4.093  0.6911  0.1533  0.4374
19894TIP3   OH281172   0.377   5.541  10.762 -0.0915  0.0314 -0.3572
19894TIP3    H181173   0.327   5.605  10.712 -0.2952  1.0942  1.2011
19894TIP3    H281174   0.329   5.459  10.750 -1.0650  0.6217 -0.5312
19895TIP3   OH281175   1.612   4.409   1.809  0.0774  0.3228  0.0159
19895TIP3    H181176   1.690   4.378   1.855  0.2442  0.5068 -0.1430
19895TIP3    H281177   1.577   4.477   1.865 -1.3961 -1.4715  1.3467
19896TIP3   OH281178   5.851   6.569  14.025 -0.0474  0.7217 -0.0478
19896TIP3    H181179   5.797   6.638  13.987  0.5170  0.8846 -0.5729
19896TIP3    H281180   5.790   6.498  14.045 -0.7484  1.6900  1.2745
19897TIP3   OH281181   2.981   6.498  13.415  0.2606 -0.7683  0.2496
19897TIP3    H181182   2.972   6.404  13.404  1.3461 -1.0786  1.8260
19897TIP3    H281183   2.896   6.534  13.387  0.4826 -2.0168 -2.0972
19898TIP3   OH281184   3.866   2.320   3.991 -0.5437  0.2490  0.5972
19898TIP3    H181185   3.872   2.239   3.941 -2.0957 -0.1008  0.9811
19898TIP3    H281186   3.902   2.299   4.077 -1.1242 -0.0663  0.7557
19899TIP3   OH281187   2.914   2.188  13.502  0.2384 -0.2181 -0.0247
19899TIP3    H181188   2.965   2.146  13.433 -1.8181 -1.4701 -0.8105
19899TIP3    H281189   2.915   2.126  13.575 -1.7098 -1.1266 -0.7257
19900TIP3   OH281190   6.355   3.169  12.086 -0.0556  0.1837  0.1000
19900TIP3    H181191   6.272   3.141  12.124 -0.3654  1.6152  0.5219
19900TIP3    H281192   6.333   3.250  12.038  0.6287 -0.7198 -1.8099
19901TIP3   OH281193   0.369   3.033  10.897  0.5305 -0.0895  0.5561
19901TIP3    H181194   0.451   3.074  10.921  1.4355 -1.0080 -0.8740
19901TIP3    H281195   0.310   3.105  10.875  1.6323  0.4930 -0.4882
19902TIP3   OH281196   0.409   2.962   1.792  0.1638 -0.4759  0.0149
19902TIP3    H181197   0.374   2.937   1.877  0.2302 -0.9111 -0.0863
19902TIP3    H281198   0.418   2.880   1.744 -0.3122 -0.1801 -0.5818
19903TIP3   OH281199   2.266   0.586  10.238  0.3846  0.3459 -1.2071
19903TIP3    H181200   2.182   0.632  10.239 -0.1374 -0.6105  0.3906
19903TIP3    H281201   2.326   0.645  10.285 -0.2234 -0.4328  0.6130
19904TIP3   OH281202   4.422   3.951  14.682  0.1476  0.0429 -0.0982
19904TIP3    H181203   4.350   4.008  14.655 -1.2553 -1.6456 -0.0515
19904TIP3    H281204   4.396   3.864  14.651  2.0379 -0.6413  0.1828
19905TIP3   OH281205   3.830   5.831  14.586  0.4075 -0.4304  0.6465
19905TIP3    H181206   3.892   5.879  14.532  1.2358 -0.5206  1.5078
19905TIP3    H281207   3.805   5.894  14.654 -1.0269 -0.1397 -0.1362
19906TIP3   OH281208   2.456   5.387   0.047 -0.4128  0.7857 -0.5350
19906TIP3    H181209   2.458   5.439   0.127  0.8403 -0.4472  0.2566
19906TIP3    H281210   2.381   5.421  -0.002 -1.2001  1.5281  1.1626
19907TIP3   OH281211   2.327   1.305   0.837 -0.5314 -0.3422 -0.4733
19907TIP3    H181212   2.235   1.305   0.811 -1.1302 -1.1938  1.5734
19907TIP3    H281213   2.353   1.213   0.833 -0.4688 -0.4214  1.2536
19908TIP3   OH281214   0.485   4.626  11.608  0.3174 -0.0440  0.1875
19908TIP3    H181215   0.473   4.643  11.701  0.5646 -0.7689  0.3532
19908TIP3    H281216   0.541   4.698  11.577  2.6583 -1.3742  1.2035
19909TIP3   OH281217   6.176   1.301   0.265 -0.6360  0.5424  0.0055
19909TIP3    H181218   6.241   1.232   0.253  0.1302  0.9334  1.8688
19909TIP3    H281219   6.137   1.312   0.178  1.3388 -0.1302 -0.9884
19910TIP3   OH281220   0.332   3.133   1.263  0.2712 -0.3662  0.5873
19910TIP3    H181221   0.416   3.092   1.283 -0.3039 -0.7025  2.4149
19910TIP3    H281222   0.340   3.161   1.172  2.4681 -0.1286  0.8216
19911TIP3   OH281223   0.387   2.115  12.882 -0.1453 -0.2647  0.4425
19911TIP3    H181224   0.392   2.151  12.794  0.8039  1.5072  1.1866
19911TIP3    H281225   0.450   2.043  12.883  0.0477 -0.1037 -0.2266
19912TIP3   OH281226   1.534   6.530   3.034 -0.8866  0.4580  0.2724
19912TIP3    H181227   1.519   6.615   2.992  1.6764  1.0930  0.5437
19912TIP3    H281228   1.590   6.482   2.973  0.9007  0.4823  1.8418
19913TIP3   OH281229   3.587   5.211  16.471 -0.1583 -0.4782  0.5241
19913TIP3    H181230   3.657   5.254  16.520 -0.2434 -0.6719  0.8142
19913TIP3    H281231   3.520   5.192  16.536 -0.5241 -0.2017  0.2256
19914TIP3   OH281232   3.981   0.578  11.852  0.4342 -0.1253  0.7075
19914TIP3    H181233   3.965   0.634  11.777  1.3764  0.2202  0.7637
19914TIP3    H281234   3.932   0.498  11.832 -0.8925  0.6871  0.6217
19915TIP3   OH281235   5.871   5.631  11.881  0.1679 -0.2198  0.4308
19915TIP3    H181236   5.921   5.701  11.840  0.1667 -0.1623  0.5250
19915TIP3    H281237   5.855   5.568  11.811 -0.1845  0.0718  0.2500
19916TIP3   OH281238   3.900   2.010  16.047  0.0180 -0.4536  0.2056
19916TIP3    H181239   3.958   2.000  16.122  1.1437  1.4387 -0.3901
19916TIP3    H281240   3.847   2.088  16.067  0.7390  0.4273 -1.1914
19917TIP3   OH281241   2.731   1.832  16.593 -0.0762 -0.7518  0.0509
19917TIP3    H181242   2.826   1.828  16.603 -0.1400 -2.1522  0.1058
19917TIP3    H281243   2.698   1.759  16.645 -1.1119 -0.9010 -0.8072
19918TIP3   OH281244   6.136   6.231   0.046  0.0189  0.0282 -0.1683
19918TIP3    H181245   6.187   6.304   0.012  0.3762  0.1338  0.5839
19918TIP3    H281246   6.156   6.158  -0.013  0.8159  0.1468 -0.0481
19919TIP3   OH281247   0.517   6.004  12.774 -0.1495 -0.7498  0.7754
19919TIP3    H181248   0.529   6.098  12.759  1.4197 -1.0903 -0.2393
19919TIP3    H281249   0.495   5.997  12.867  0.2487  0.5831  0.9821
19920TIP3   OH281250   3.917   1.727  12.419  0.8378  0.5717  0.1768
19920TIP3    H181251   3.975   1.738  12.494  3.0030 -1.6069 -1.1065
19920TIP3    H281252   3.846   1.672  12.451  0.2382  2.0059  1.3590
19921TIP3   OH281253   6.498   2.963  10.504 -0.3088 -0.3906 -0.3238
19921TIP3    H181254   6.519   2.952  10.411  0.1112  1.1262 -0.4145
19921TIP3    H281255   6.578   2.998  10.543 -1.0260  0.6037  0.2778
19922TIP3   OH281256   1.267   2.110  16.222  0.0652 -0.3222 -0.3951
19922TIP3    H181257   1.356   2.119  16.187 -0.2479 -0.4990 -1.2287
19922TIP3    H281258   1.257   2.017  16.240 -0.1165 -0.3677 -0.7311
19923TIP3   OH281259   4.729   4.480  11.238  0.2125  0.1132  0.0926
19923TIP3    H181260   4.662   4.447  11.179 -0.1386  0.1166  0.4893
19923TIP3    H281261   4.714   4.575  11.241  1.2875  0.3325 -1.1307
19924TIP3   OH281262   0.136   1.078  16.040  0.0002 -0.1038 -0.2407
19924TIP3    H181263   0.213   1.081  16.096 -0.5015 -0.4421  0.4762
19924TIP3    H281264   0.168   1.101  15.953  0.7812  0.4511  0.1904
19925TIP3   OH281265   1.104   4.171  14.222 -0.3704 -0.6142 -0.2140
19925TIP3    H181266   1.076   4.165  14.314  0.4171 -1.2222 -0.0089
19925TIP3    H281267   1.143   4.085  14.204  1.4263  0.2364 -0.4741
19926TIP3   OH281268   0.345   0.219  14.048  0.0641 -0.5496 -0.2799
19926TIP3    H181269   0.279   0.156  14.077 -0.3353  0.4376  1.0076
19926TIP3    H281270   0.330   0.228  13.954 -3.2705  1.4589  0.3475
19927TIP3   OH281271   5.072   2.369   3.477  0.0352 -0.0392  0.1857
19927TIP3    H181272   5.102   2.383   3.388 -1.2193 -0.1913 -0.2760
19927TIP3    H281273   5.117   2.435   3.529 -0.6186  1.2482 -0.8592
19928TIP3   OH281274   6.051   2.225  12.381 -0.1237  0.0535 -0.3862
19928TIP3    H181275   6.068   2.156  12.316 -0.0689  0.2458 -0.5759
19928TIP3    H281276   6.112   2.205  12.452  1.1747  0.9458 -1.2252
19929TIP3   OH281277   6.194   3.093   6.020  0.5453  0.1388  0.1109
19929TIP3    H181278   6.130   3.025   6.040 -0.0184  0.5790 -0.1730
19929TIP3    H281279   6.277   3.047   6.010  0.6805 -0.2172  2.5696
19930TIP3   OH281280   1.186   4.259  14.988  0.0153  0.1787 -0.1147
19930TIP3    H181281   1.268   4.212  14.978 -0.2473 -0.8172  2.0089
19930TIP3    H281282   1.118   4.191  14.981 -0.4841  0.5895  0.5848
19931TIP3   OH281283   0.780   2.573   1.620  0.6442 -0.4130  0.4085
19931TIP3    H181284   0.763   2.664   1.599  0.3345 -0.8698 -1.4114
19931TIP3    H281285   0.869   2.572   1.655  0.7825  0.5195  0.0827
19932TIP3   OH281286   3.239   1.339  16.967 -0.3941  0.3849 -0.8186
19932TIP3    H181287   3.288   1.327  17.048 -0.0861  0.1736 -1.0319
19932TIP3    H281288   3.284   1.411  16.922  0.1349 -0.2399 -1.3149
19933TIP3   OH281289   2.395   2.584   3.039 -0.6518  0.1413  0.0631
19933TIP3    H181290   2.360   2.557   2.954  1.0202  0.5675 -0.7736
19933TIP3    H281291   2.317   2.609   3.089 -1.8423 -1.9698 -0.6448
19934TIP3   OH281292   2.647   2.011   5.777 -0.0486  0.2234 -0.1336
19934TIP3    H181293   2.738   1.997   5.749 -0.2992  1.5631 -1.6422
19934TIP3    H281294   2.652   2.085   5.838 -0.0105 -0.3336  0.5514
19935TIP3   OH281295   4.818   4.903  10.853  0.4454 -0.2888 -0.3144
19935TIP3    H181296   4.807   4.937  10.764  0.2628  0.3084 -0.0637
19935TIP3    H281297   4.813   4.808  10.843  1.2011 -0.2559 -1.0511
19936TIP3   OH281298   0.510   6.580   3.462 -0.4544  0.0854  1.0311
19936TIP3    H181299   0.439   6.560   3.401  0.8459  0.3455 -0.5759
19936TIP3    H281300   0.515   6.504   3.520  0.9925 -1.9903 -1.7402
19937TIP3   OH281301   3.412   4.136  13.517  0.3183  0.7116 -0.3646
19937TIP3    H181302   3.411   4.123  13.422  0.8679  1.7043 -0.5093
19937TIP3    H281303   3.387   4.227  13.530 -1.3322  0.1500  0.5361
19938TIP3   OH281304   1.368   3.331  12.795 -0.3454 -0.1831 -0.2751
19938TIP3    H181305   1.429   3.356  12.865  1.0165  0.4650 -1.6761
19938TIP3    H281306   1.416   3.265  12.745 -1.0502 -0.1235 -1.0286
19939TIP3   OH281307   6.422   0.294   3.347 -0.9668 -0.5921 -0.4549
19939TIP3    H181308   6.497   0.302   3.288 -0.5761  1.5051  0.2711
19939TIP3    H281309   6.454   0.241   3.419 -0.8149 -1.4151 -1.1171
19940TIP3   OH281310   4.894   4.353  12.464 -0.0563  0.3619  0.3666
19940TIP3    H181311   4.866   4.366  12.554  0.0297 -0.2802  0.4876
19940TIP3    H281312   4.984   4.387  12.461 -0.0625  0.3923  0.5150
19941TIP3   OH281313   0.742   5.838  11.096  0.1202 -0.2806  0.1605
19941TIP3    H181314   0.837   5.849  11.098  0.1292 -0.5287  2.2432
19941TIP3    H281315   0.711   5.907  11.038  1.4761  0.5906  0.4467
19942TIP3   OH281316   5.906   2.225  12.832  0.1328  0.2574  0.0412
19942TIP3    H181317   5.935   2.289  12.768 -0.9704 -0.0003 -0.7301
19942TIP3    H281318   5.888   2.146  12.781 -0.0068 -0.1967  0.7760
19943TIP3   OH281319   3.471   5.686  12.792 -0.6908  0.0383 -0.3039
19943TIP3    H181320   3.411   5.749  12.752  0.6124  0.7933 -1.1237
19943TIP3    H281321   3.542   5.739  12.827 -0.5805 -0.8267  0.8201
19944TIP3   OH281322   1.841   5.803   1.745  0.4900  0.0060  0.5640
19944TIP3    H181323   1.931   5.815   1.776  0.9432 -3.0582  0.5434
19944TIP3    H281324   1.850   5.788   1.651  0.0534 -1.3724  0.7405
19945TIP3   OH281325   6.589   1.553   1.915  0.2330 -0.6447  0.0767
19945TIP3    H181326   6.495   1.568   1.910  0.0164 -2.2254 -0.9692
19945TIP3    H281327   6.604   1.521   2.004 -0.2510 -0.5359  0.1972
19946TIP3   OH281328   5.755   6.701   3.243 -0.3443 -0.8693 -0.6501
19946TIP3    H181329   5.771   6.791   3.217 -0.7007 -0.6511 -0.1291
19946TIP3    H281330   5.679   6.706   3.302  0.1037 -1.4059 -0.0124
19947TIP3   OH281331   3.813   2.041  13.624 -0.7476  0.0905 -0.0967
19947TIP3    H181332   3.781   2.074  13.540  0.8045  0.0407 -0.7377
19947TIP3    H281333   3.872   1.969  13.600 -2.6195 -1.9296  1.1840
19948TIP3   OH281334   5.967   1.563  12.778  0.1956  0.4859 -0.1917
19948TIP3    H181335   5.890   1.595  12.825 -0.0806  0.8083 -0.8548
19948TIP3    H281336   6.002   1.640  12.733  0.6684  0.2546 -0.2294
19949TIP3   OH281337   0.587   5.112   1.978  0.5210 -0.1163 -0.3327
19949TIP3    H181338   0.657   5.129   2.041  0.6608  0.8722 -0.7452
19949TIP3    H281339   0.510   5.096   2.032  0.5369  1.1612  0.1055
19950TIP3   OH281340   5.730   0.131  12.874  0.2286  0.2684 -0.7037
19950TIP3    H181341   5.648   0.103  12.833 -0.1793  1.6536 -0.8425
19950TIP3    H281342   5.738   0.224  12.852  1.7023  0.2126 -0.4691
19951TIP3   OH281343   4.988   5.181   2.475  0.1164 -0.1244 -0.0627
19951TIP3    H181344   5.065   5.225   2.438  0.5957 -1.1102 -0.2684
19951TIP3    H281345   5.025   5.119   2.538 -0.7072  1.7415  2.3284
19952TIP3   OH281346   2.981   2.881  12.056  1.0431 -0.0038 -0.4650
19952TIP3    H181347   2.950   2.800  12.016 -1.5772  1.0087 -0.6160
19952TIP3    H281348   3.059   2.855  12.106 -0.8552 -2.9822  1.1038
19953TIP3   OH281349   6.035   3.999  13.969 -0.5540  0.4766 -0.7467
19953TIP3    H181350   5.996   3.942  14.035 -0.5073 -0.5380 -1.5791
19953TIP3    H281351   6.098   4.053  14.018 -2.0093  1.2008  0.3725
19954TIP3   OH281352   6.050   0.981  12.531  0.1341 -0.4007 -0.1741
19954TIP3    H181353   6.118   1.042  12.501 -0.0726 -0.2499 -0.3455
19954TIP3    H281354   6.053   0.910  12.467  0.4913 -0.6526  0.1235
19955TIP3   OH281355   3.846   5.752   0.558  0.1382 -0.2793 -0.3667
19955TIP3    H181356   3.772   5.813   0.557 -1.1184 -1.7570  0.5109
19955TIP3    H281357   3.877   5.754   0.649  0.8413 -0.0764 -0.6086
19956TIP3   OH281358   5.856   1.880  16.895  0.5690  0.3466  0.6874
19956TIP3    H181359   5.863   1.829  16.815 -1.7609 -1.1189  1.3671
19956TIP3    H281360   5.906   1.960  16.877  1.7362 -0.8223 -1.4778
19957TIP3   OH281361   4.378   1.723  15.025  0.4350 -0.1670 -0.7095
19957TIP3    H181362   4.300   1.670  15.006  0.1713  0.3570 -1.0871
19957TIP3    H281363   4.346   1.813  15.026  1.0867  0.0686 -1.1207
19958TIP3   OH281364   2.514   0.661  16.735  0.4783 -0.9183  0.1739
19958TIP3    H181365   2.596   0.613  16.720  0.0280 -1.2728 -1.2552
19958TIP3    H281366   2.480   0.677  16.647 -1.1780 -1.0690  0.7848
19959TIP3   OH281367   2.851   0.202   4.763  0.0523  0.0005 -0.1670
19959TIP3    H181368   2.779   0.156   4.719  0.3991 -0.6272 -0.0818
19959TIP3    H281369   2.925   0.142   4.756  0.1840  0.0195  1.0277
19960TIP3   OH281370   1.735   6.143   1.787  0.4040 -0.1814 -0.0670
19960TIP3    H181371   1.702   6.212   1.844 -0.3043 -0.2514 -0.3828
19960TIP3    H281372   1.765   6.075   1.846  0.4904  0.1188  0.2362
19961TIP3   OH281373   5.472   2.900   3.972 -0.0160 -0.3530 -0.0202
19961TIP3    H181374   5.418   2.921   4.048 -0.4572  0.7804 -0.6378
19961TIP3    H281375   5.562   2.910   4.003 -0.0973 -3.3459  1.3328
19962TIP3   OH281376   0.445   1.075   5.200  0.3042  0.2597  0.5179
19962TIP3    H181377   0.465   1.058   5.108 -2.2413 -0.0880 -0.0090
19962TIP3    H281378   0.451   1.170   5.209 -0.4761  0.3825 -0.2559
19963TIP3   OH281379   0.765   4.075   1.192  0.1536  0.3593  0.1804
19963TIP3    H181380   0.731   4.083   1.103 -0.9777 -0.5720  0.5157
19963TIP3    H281381   0.850   4.033   1.182 -0.4221 -0.7032 -0.3959
19964TIP3   OH281382   4.725   0.653   3.481 -0.4348 -0.2675 -0.0248
19964TIP3    H181383   4.711   0.664   3.575 -2.0276 -0.1856 -0.2558
19964TIP3    H281384   4.745   0.742   3.451 -0.9671 -0.1014  0.0866
19965TIP3   OH281385   4.570   1.015  16.542 -0.3087 -0.7877  0.1854
19965TIP3    H181386   4.603   1.042  16.628 -0.0006 -1.2990  0.2288
19965TIP3    H281387   4.639   0.958  16.507  0.7580  1.4546 -1.5006
19966TIP3   OH281388   3.833   0.076  12.955  0.0601 -0.1228  0.0361
19966TIP3    H181389   3.744   0.051  12.979  0.8386 -0.6887  2.4973
19966TIP3    H281390   3.825   0.112  12.867 -2.3492 -1.6050 -0.3938
19967TIP3   OH281391   4.459   4.700   2.568  0.4987 -0.1260  0.8405
19967TIP3    H181392   4.476   4.614   2.607  0.5999 -0.9874 -1.0766
19967TIP3    H281393   4.535   4.717   2.513 -0.6445  0.0717 -0.7032
19968TIP3   OH281394   2.308   3.148   3.759  0.0798  0.2702 -0.1989
19968TIP3    H181395   2.363   3.095   3.701  0.1207  1.8779 -1.6611
19968TIP3    H281396   2.352   3.144   3.844  0.5074 -1.3725 -0.4840
19969TIP3   OH281397   3.131   6.253   1.896 -0.5677 -0.3228 -0.3049
19969TIP3    H181398   3.101   6.168   1.865 -0.7316 -0.8281  1.2329
19969TIP3    H281399   3.058   6.312   1.877 -0.1561 -0.3533 -2.0782
19970TIP3   OH281400   0.516   3.047  12.256  0.7523  0.2912 -0.2973
19970TIP3    H181401   0.606   3.055  12.224  0.9872 -0.4934  0.1480
19970TIP3    H281402   0.490   2.958  12.232  0.3730  0.2472  0.2592
19971TIP3   OH281403   0.826   3.208   1.382  0.0331  0.4818 -0.0438
19971TIP3    H181404   0.739   3.197   1.344 -0.5720  0.5734  1.2768
19971TIP3    H281405   0.816   3.278   1.447  0.6290 -0.8028  1.4814
19972TIP3   OH281406   1.509   1.753  11.066  0.0714  0.1127  0.8686
19972TIP3    H181407   1.430   1.743  11.015 -1.4151  3.6634  2.3166
19972TIP3    H281408   1.579   1.763  11.001 -1.1514  0.2544 -0.4445
19973TIP3   OH281409   4.466   4.272  13.546 -0.6654  0.5086 -0.4262
19973TIP3    H181410   4.504   4.192  13.508 -1.2593  0.1293 -0.2152
19973TIP3    H281411   4.439   4.324  13.470  3.0353  2.1715 -0.7338
19974TIP3   OH281412   6.377   4.756  15.233 -0.1799  0.0269  0.7218
19974TIP3    H181413   6.455   4.701  15.232 -0.0063  0.2733  0.3396
19974TIP3    H281414   6.304   4.696  15.244  0.1057 -0.1536  1.7579
19975TIP3   OH281415   5.227   3.130   3.430 -0.1646 -0.6231 -0.3433
19975TIP3    H181416   5.152   3.115   3.487 -0.2465 -2.3799 -0.8678
19975TIP3    H281417   5.287   3.184   3.482  0.4991 -3.5635  2.0946
19976TIP3   OH281418   5.111   2.491  17.063 -0.5017  0.0817 -0.0829
19976TIP3    H181419   5.121   2.563  17.126 -0.7688  0.0830 -0.0451
19976TIP3    H281420   5.191   2.439  17.075 -0.5422  0.0934  0.2432
19977TIP3   OH281421   3.609   4.853  16.242 -0.3498  0.3381 -0.4541
19977TIP3    H181422   3.557   4.861  16.162  1.2746 -0.0259 -1.5729
19977TIP3    H281423   3.550   4.813  16.305 -1.5179  0.2346 -1.6005
19978TIP3   OH281424   5.819   4.443  15.422 -0.1719 -0.0840 -0.6435
19978TIP3    H181425   5.826   4.483  15.509  1.3095 -1.2590 -0.1930
19978TIP3    H281426   5.879   4.494  15.368 -1.0142  0.5784 -0.9625
19979TIP3   OH281427   3.306   4.685   4.383  0.0685 -0.1547  0.5891
19979TIP3    H181428   3.216   4.710   4.361  0.7749  0.5045 -1.6845
19979TIP3    H281429   3.328   4.740   4.458 -1.2518  0.0314  0.8598
19980TIP3   OH281430   0.186   0.425   1.963  0.1381  0.3492  0.1622
19980TIP3    H181431   0.259   0.424   1.900 -0.5050 -1.3284 -0.5905
19980TIP3    H281432   0.228   0.424   2.049  1.0135  0.1130 -0.2646
19981TIP3   OH281433   0.640   2.373   1.815 -0.0109 -0.5075 -0.2959
19981TIP3    H181434   0.663   2.440   1.751 -0.3641 -0.4367 -0.3516
19981TIP3    H281435   0.687   2.295   1.787 -0.2586 -0.5090 -0.7088
19982TIP3   OH281436   4.437   0.544  14.941 -0.0851 -0.4433 -0.0631
19982TIP3    H181437   4.447   0.632  14.903  2.2949  0.0010  1.4665
19982TIP3    H281438   4.483   0.486  14.881 -0.2977 -0.4038 -0.2616
19983TIP3   OH281439   1.941   2.330   1.847  0.4444  0.0806  0.0629
19983TIP3    H181440   1.950   2.254   1.790 -1.1053  0.7205 -1.0732
19983TIP3    H281441   1.911   2.294   1.931 -1.7904 -0.4009 -0.9381
19984TIP3   OH281442   4.020   4.206   5.559  1.0528  0.1549 -0.3129
19984TIP3    H181443   4.044   4.299   5.554  0.1108  0.4322  0.2179
19984TIP3    H281444   3.979   4.196   5.645 -0.5211 -0.3538 -1.1006
19985TIP3   OH281445   0.534   2.490  16.747 -0.6527 -0.5483 -0.0899
19985TIP3    H181446   0.580   2.419  16.704 -0.4978 -0.8565  0.5781
19985TIP3    H281447   0.497   2.451  16.826 -0.4146  0.1504  0.3746
19986TIP3   OH281448   1.779   4.374   1.385 -0.7207 -0.4381  0.0878
19986TIP3    H181449   1.828   4.403   1.308 -0.8717 -2.7912 -0.9394
19986TIP3    H281450   1.687   4.382   1.359 -0.8722  1.6313  1.1389
19987TIP3   OH281451   0.293   0.154  13.776 -0.1564 -0.1606 -0.1483
19987TIP3    H181452   0.206   0.166  13.739 -0.0684  1.2656  0.1099
19987TIP3    H281453   0.306   0.059  13.775 -1.7265 -0.3841 -0.1324
19988TIP3   OH281454   2.441   3.456   5.130  0.3860  0.4856 -0.5154
19988TIP3    H181455   2.442   3.360   5.121  1.1785  0.5788 -1.5562
19988TIP3    H281456   2.371   3.485   5.072 -2.2710  0.3173  2.4922
19989TIP3   OH281457   2.862   2.346   4.111 -1.0325 -0.1689 -0.0795
19989TIP3    H181458   2.929   2.409   4.085 -0.3443 -0.6026  0.6224
19989TIP3    H281459   2.827   2.380   4.194 -1.2965 -0.2377 -0.1603
19990TIP3   OH281460   5.208   1.462  14.403  0.0149  0.7239  0.3324
19990TIP3    H181461   5.188   1.369  14.405  1.7393  0.3549  0.4353
19990TIP3    H281462   5.303   1.467  14.393  0.0014  2.4584  0.8270
19991TIP3   OH281463   2.082   4.736   4.025 -0.4804 -0.1851  0.5141
19991TIP3    H181464   2.100   4.772   3.938  1.4401 -0.5192  0.7563
19991TIP3    H281465   1.987   4.745   4.035 -0.5952  0.7814 -1.1990
19992TIP3   OH281466   0.188   4.407  13.653  0.4749 -0.0243 -0.1570
19992TIP3    H181467   0.251   4.452  13.597  0.5107  0.8430  0.5769
19992TIP3    H281468   0.102   4.438  13.623  0.4340 -0.5127 -0.5515
19993TIP3   OH281469   3.225   6.121   5.535 -0.1588  0.2327  0.2072
19993TIP3    H181470   3.283   6.088   5.604  1.7219 -1.4764 -2.1194
19993TIP3    H281471   3.265   6.204   5.508  1.3790 -1.0087 -1.4891
19994TIP3   OH281472   0.382   5.865   3.070 -0.8145 -0.1863  0.5314
19994TIP3    H181473   0.309   5.918   3.039 -0.9774 -1.2538 -0.9460
19994TIP3    H281474   0.459   5.907   3.032 -0.9535 -1.0686 -0.7374
19995TIP3   OH281475   1.765   1.436  13.021  0.3588 -0.0878  0.0004
19995TIP3    H181476   1.692   1.387  12.983 -1.6445  1.1948  2.0520
19995TIP3    H281477   1.763   1.521  12.976  0.4502  0.0251  0.2088
19996TIP3   OH281478   2.381   6.409   6.172  0.0760  0.1528  0.0829
19996TIP3    H181479   2.437   6.396   6.249  0.7992 -1.6875 -0.7190
19996TIP3    H281480   2.442   6.429   6.102 -0.0619 -3.2799 -1.1229
19997TIP3   OH281481   6.646   5.861   2.689 -0.1278  0.5203 -0.3255
19997TIP3    H181482   6.689   5.895   2.610  0.7666 -0.0532 -0.0924
19997TIP3    H281483   6.592   5.789   2.658 -0.4078  0.8100 -0.5219
19998TIP3   OH281484   0.655   5.259   5.491 -0.2712 -0.0295 -0.0555
19998TIP3    H181485   0.668   5.174   5.534 -0.3501 -0.3812 -0.7081
19998TIP3    H281486   0.682   5.324   5.556  0.5776 -0.5848  0.1543
19999TIP3   OH281487   1.096   3.479   1.635 -0.1580 -0.4387 -0.5259
19999TIP3    H181488   1.181   3.523   1.633  0.5937 -1.7309  1.2758
19999TIP3    H281489   1.092   3.438   1.722 -2.5328 -0.5875 -0.6704
20000TIP3   OH281490   4.305   5.980  11.301 -0.2133 -0.2583  0.0987
20000TIP3    H181491   4.399   5.987  11.318 -0.2002 -0.4935  0.1205
20000TIP3    H281492   4.296   6.006  11.209 -0.2040  0.3597  0.2659
20001TIP3   OH281493   2.159   5.160  17.149  0.3114  0.6571  0.4690
20001TIP3    H181494   2.110   5.089  17.190 -0.5262 -0.3595 -2.2240
20001TIP3    H281495   2.228   5.116  17.100 -0.7693  1.5919 -1.9726
20002TIP3   OH281496   3.456   6.603   1.802 -0.4381 -0.0070  0.0212
20002TIP3    H181497   3.443   6.509   1.818  2.4867 -0.6633 -1.0302
20002TIP3    H281498   3.519   6.630   1.869  1.1585  0.4511 -1.6353
20003TIP3   OH281499   0.136   1.507   5.104 -0.4463  0.0007  0.0410
20003TIP3    H181500   0.057   1.558   5.088 -0.3022  0.0022 -0.6974
20003TIP3    H281501   0.151   1.460   5.022  0.7345  0.5818 -0.0813
20004TIP3   OH281502   4.997   5.804   3.366 -0.3949  0.3681  0.8234
20004TIP3    H181503   4.972   5.756   3.445 -1.1917  1.1045  1.0243
20004TIP3    H281504   4.915   5.818   3.319  0.3101 -1.8011 -1.1390
20005TIP3   OH281505   4.633   1.541  16.760 -0.4298 -0.3528 -0.0309
20005TIP3    H181506   4.697   1.498  16.704  0.3297 -2.0145  2.0361
20005TIP3    H281507   4.624   1.629  16.724  0.2767 -1.2574 -2.5207
20006TIP3   OH281508   0.333   2.599   5.638  0.2038  0.1745 -0.2158
20006TIP3    H181509   0.411   2.580   5.585 -0.9888  0.9970 -2.3204
20006TIP3    H281510   0.263   2.548   5.598 -0.5514  0.1755  1.0793
20007TIP3   OH281511   3.869   2.236   5.113 -0.8892  0.2248  0.5354
20007TIP3    H181512   3.947   2.236   5.168  0.1462  0.8876 -0.9053
20007TIP3    H281513   3.804   2.284   5.164 -0.7959 -1.4620  2.3163
20008TIP3   OH281514   2.280   0.622   3.921 -0.2321  0.0528 -0.4376
20008TIP3    H181515   2.361   0.669   3.900  0.5316 -1.7487 -1.6948
20008TIP3    H281516   2.252   0.659   4.004  0.7160  2.2076 -1.0357
20009TIP3   OH281517   6.688   3.841  15.411  0.1519  0.2386  0.4251
20009TIP3    H181518   6.670   3.929  15.376  0.7165  0.6155  1.0660
20009TIP3    H281519   6.611   3.820  15.463  0.3270  0.6817  0.8812
20010TIP3   OH281520   2.847   0.200   0.079 -0.2268  0.3250  0.4819
20010TIP3    H181521   2.864   0.148   0.001  0.0540 -0.2646  0.9318
20010TIP3    H281522   2.780   0.262   0.052 -2.0301 -1.5672  0.4632
20011TIP3   OH281523   0.445   1.856   4.509 -0.5033  0.4881  0.6214
20011TIP3    H181524   0.414   1.770   4.537 -1.4869  1.4054  2.4330
20011TIP3    H281525   0.510   1.837   4.442 -0.1080 -1.6935  1.5773
20012TIP3   OH281526   6.103   3.599   5.429  0.4922  0.3290  0.4145
20012TIP3    H181527   6.159   3.522   5.420  1.2244  0.7578  1.2571
20012TIP3    H281528   6.026   3.579   5.375  1.2921 -0.4097 -0.4726
20013TIP3   OH281529   2.117   6.538  12.417 -0.3783 -0.1857 -0.2219
20013TIP3    H181530   2.187   6.496  12.467 -1.1272 -0.6600  0.4299
20013TIP3    H281531   2.151   6.540  12.327  0.3262 -0.7415  0.0211
20014TIP3   OH281532   4.549   0.276   2.400 -0.4283  0.2634 -0.4068
20014TIP3    H181533   4.574   0.271   2.307 -2.4982 -0.3837 -0.9504
20014TIP3    H281534   4.619   0.229   2.445  0.2642  0.0040 -1.7134
20015TIP3   OH281535   3.113   3.070  16.965  0.5267  0.2428 -0.4754
20015TIP3    H181536   3.183   3.109  16.913  0.5631 -1.9051 -2.1300
20015TIP3    H281537   3.115   2.977  16.941 -1.0079 -0.3591  1.6291
20016TIP3   OH281538   0.745   4.697  13.792 -0.7579 -0.9158  0.3206
20016TIP3    H181539   0.783   4.731  13.711  2.6798 -2.1396  1.2975
20016TIP3    H281540   0.696   4.620  13.764  2.0407 -2.5050 -0.4861
20017TIP3   OH281541   1.464   2.597   2.408 -0.2829 -0.0851  0.4666
20017TIP3    H181542   1.549   2.584   2.449  0.2078  0.3459 -0.3845
20017TIP3    H281543   1.405   2.536   2.452  0.4570 -0.3323  1.1051
20018TIP3   OH281544   5.790   5.347  14.521  0.1548 -0.5156 -0.1697
20018TIP3    H181545   5.779   5.306  14.434 -0.8671  0.5461 -0.5406
20018TIP3    H281546   5.845   5.423  14.504 -1.1573  0.4500 -0.1011
20019TIP3   OH281547   0.163   0.714  16.138 -0.2650  0.0803 -0.5641
20019TIP3    H181548   0.117   0.632  16.155 -1.9870  1.1621  0.2377
20019TIP3    H281549   0.160   0.761  16.222  2.5493  0.0949 -0.4266
20020TIP3   OH281550   5.426   0.351  13.588 -0.2470 -0.3533 -0.6629
20020TIP3    H181551   5.428   0.332  13.494 -0.7314 -1.5046 -0.4470
20020TIP3    H281552   5.333   0.346  13.612 -0.5321  3.1225 -0.7320
20021TIP3   OH281553   5.700   3.699  17.230 -0.2675 -0.3590  0.0748
20021TIP3    H181554   5.641   3.772  17.209  0.8877  0.9663  1.3211
20021TIP3    H281555   5.649   3.644  17.289 -0.5533  0.3746  0.5277
20022TIP3   OH281556   3.315   3.549  13.635 -0.2754 -0.2636 -0.4382
20022TIP3    H181557   3.236   3.575  13.587  0.2825 -0.5446 -1.5135
20022TIP3    H281558   3.320   3.611  13.708 -0.2872  1.1433 -1.6074
20023TIP3   OH281559   0.462   3.964   6.017  0.4625 -0.0528 -0.2039
20023TIP3    H181560   0.403   4.039   6.018  1.4375  0.7424  1.1018
20023TIP3    H281561   0.425   3.903   6.081  0.8722  0.3023  0.3752
20024TIP3   OH281562   0.182   3.830   6.362  0.2071 -0.1891 -0.0756
20024TIP3    H181563   0.163   3.860   6.451  0.7943 -1.6330  0.5454
20024TIP3    H281564   0.099   3.838   6.315  0.1229  1.4839  0.3315
20025TIP3   OH281565   5.218   3.813  11.541  0.1368  0.2586 -0.2219
20025TIP3    H181566   5.283   3.863  11.491  0.1169 -1.8812 -2.4724
20025TIP3    H281567   5.134   3.848  11.512  0.1953  1.0354  0.5288
20026TIP3   OH281568   1.427   2.560  12.921  0.5031  0.5465  0.3545
20026TIP3    H181569   1.488   2.633  12.921 -0.2872  1.2466  1.9782
20026TIP3    H281570   1.463   2.499  12.986  0.7411 -0.1413 -0.4189
20027TIP3   OH281571   6.118   0.871  12.855  0.3717  0.2487  0.2905
20027TIP3    H181572   6.045   0.875  12.795  1.1100  0.6259 -0.5906
20027TIP3    H281573   6.151   0.781  12.847  0.7296  0.4185 -0.1927
20028TIP3   OH281574   2.509   4.804  16.025  0.4423  0.2855 -0.0904
20028TIP3    H181575   2.487   4.786  16.117  0.5945  3.7556  0.7070
20028TIP3    H281576   2.603   4.820  16.026  0.3564  0.8467 -0.7459
20029TIP3   OH281577   4.490   3.513   2.392  0.1252  0.4780 -0.0029
20029TIP3    H181578   4.464   3.583   2.452  0.2804 -0.4987  1.2250
20029TIP3    H281579   4.407   3.472   2.366  0.2013 -0.9236  1.8197
20030TIP3   OH281580   2.637   0.065  11.322  0.5314  0.4974  0.2079
20030TIP3    H181581   2.657   0.085  11.230  1.5851 -0.5817  0.1959
20030TIP3    H281582   2.596  -0.022  11.319 -0.5657  0.9968  0.6382
20031TIP3   OH281583   0.972   5.046   4.561 -0.4475  0.0667  0.0989
20031TIP3    H181584   1.014   5.131   4.560 -1.5437  0.6218  0.5631
20031TIP3    H281585   0.945   5.033   4.652  1.8713 -1.8591  0.5642
20032TIP3   OH281586   5.851   5.803   4.547 -0.2021 -0.2571 -0.0390
20032TIP3    H181587   5.862   5.834   4.457 -1.6508 -0.6131 -0.3460
20032TIP3    H281588   5.825   5.712   4.538 -0.3920 -0.2847  0.7554
20033TIP3   OH281589   5.017   3.056   0.345  0.1885  0.1447 -0.1976
20033TIP3    H181590   4.951   3.111   0.303 -0.5790  0.8826  1.9397
20033TIP3    H281591   5.093   3.113   0.358  0.3519 -0.0282 -0.3743
20034TIP3   OH281592   2.117   3.164  16.759 -0.3208  0.0547  0.1644
20034TIP3    H181593   2.031   3.145  16.724 -0.3932 -0.1058  0.4307
20034TIP3    H281594   2.101   3.192  16.849 -0.0640 -0.3076  0.3211
20035TIP3   OH281595   0.572   4.682   4.444  0.7523 -0.2338  0.0362
20035TIP3    H181596   0.511   4.662   4.516 -0.2554  0.2713 -0.6719
20035TIP3    H281597   0.624   4.756   4.476 -0.1833  0.4560 -0.0421
20036TIP3   OH281598   4.916   3.164  16.786  0.2347  0.4615 -0.3088
20036TIP3    H181599   4.860   3.219  16.842 -0.2423  1.3797 -1.6595
20036TIP3    H281600   4.861   3.089  16.765 -0.6285  1.4825 -1.8382
20037TIP3   OH281601   2.048   5.288   5.929  0.1113 -0.0754  0.4235
20037TIP3    H181602   1.984   5.336   5.982  1.6947  0.5555  1.8338
20037TIP3    H281603   2.059   5.205   5.974 -1.2875 -1.0838 -1.0244
20038TIP3   OH281604   1.032   4.919  15.572  0.0036  0.4753 -0.6780
20038TIP3    H181605   1.012   4.856  15.503 -1.2393  1.3715 -1.1607
20038TIP3    H281606   0.957   4.914  15.632 -0.4528  1.9504 -1.0806
20039TIP3   OH281607   6.304   5.429   6.345 -0.1406  0.0140  0.4964
20039TIP3    H181608   6.341   5.425   6.257 -1.2966  1.0691 -0.0452
20039TIP3    H281609   6.373   5.468   6.398  1.0492 -1.7934  0.3494
20040TIP3   OH281610   1.745   3.317  16.441 -0.1648 -0.0665  0.4755
20040TIP3    H181611   1.686   3.330  16.367 -1.7836  1.4192  1.9692
20040TIP3    H281612   1.831   3.343  16.408 -0.6184 -0.7483 -1.2808
20041TIP3   OH281613   1.506   3.427   5.400 -0.3507 -0.1761 -1.0861
20041TIP3    H181614   1.552   3.443   5.318  0.4819  1.8759 -0.2272
20041TIP3    H281615   1.481   3.514   5.431 -3.3356 -1.1083 -0.6692
20042TIP3   OH281616   5.830   3.007  15.823 -0.1011  0.4541 -0.2355
20042TIP3    H181617   5.786   2.986  15.740  1.7123  0.9619 -1.3784
20042TIP3    H281618   5.831   2.925  15.871 -0.0386 -0.1812 -1.2937
20043TIP3   OH281619   5.299   4.158  11.502  0.4399 -0.2055 -0.9512
20043TIP3    H181620   5.274   4.177  11.411 -2.5419 -1.4666 -0.4475
20043TIP3    H281621   5.291   4.241  11.547 -1.8514 -0.3222 -1.0723
20044TIP3   OH281622   3.802   1.991   4.041 -0.3101  0.2993 -0.2079
20044TIP3    H181623   3.829   1.909   3.998  0.9194  0.5571  0.0795
20044TIP3    H281624   3.837   1.984   4.130 -0.4120  1.0380 -0.1139
20045TIP3   OH281625   6.026   3.253   5.796 -0.3431  0.0446  0.4465
20045TIP3    H181626   5.936   3.250   5.763 -0.1138 -0.7169 -0.1316
20045TIP3    H281627   6.075   3.301   5.730  0.0755 -1.3050 -0.2479
20046TIP3   OH281628   1.420   0.423  13.956  0.3375 -0.0287  0.2977
20046TIP3    H181629   1.354   0.378  14.008 -1.1619  0.9487 -0.6975
20046TIP3    H281630   1.396   0.403  13.865  2.3938 -1.0036 -0.0450
20047TIP3   OH281631   5.351   1.468  17.094 -0.4442  0.2991  0.1392
20047TIP3    H181632   5.327   1.547  17.142 -1.3582 -0.3356  0.7367
20047TIP3    H281633   5.367   1.497  17.005  1.1211  1.4729  0.7810
20048TIP3   OH281634   3.377   4.670  16.703  0.5785  0.2517  0.3772
20048TIP3    H181635   3.405   4.723  16.628  2.0212 -0.8070  0.1344
20048TIP3    H281636   3.328   4.731  16.759  1.6443  1.6890 -0.2110
20049TIP3   OH281637   1.214   0.137  11.781 -0.0394 -0.1202 -0.0753
20049TIP3    H181638   1.229   0.223  11.743 -1.2597 -0.2323 -0.8430
20049TIP3    H281639   1.210   0.152  11.875  0.9559  0.4679 -0.1180
20050TIP3   OH281640   4.581   3.932  16.731 -0.3233 -0.0069 -0.2229
20050TIP3    H181641   4.538   3.915  16.814 -0.1590 -1.2876 -0.3827
20050TIP3    H281642   4.513   3.922  16.665  0.3019 -2.6840 -0.5311
20051TIP3   OH281643   0.845   4.676  14.548 -0.1328 -0.0886 -0.0322
20051TIP3    H181644   0.816   4.591  14.581  0.5316 -0.7659 -1.1725
20051TIP3    H281645   0.799   4.687  14.465 -0.0611  0.5748  0.0137
20052TIP3   OH281646   5.265   2.284   4.074  0.1423 -0.4409 -0.6738
20052TIP3    H181647   5.345   2.334   4.059  0.0287 -1.0852 -3.8103
20052TIP3    H281648   5.194   2.348   4.064  0.1670 -0.3363 -0.1969
20053TIP3   OH281649   4.730   3.074   3.155 -0.2889 -0.7645 -0.1238
20053TIP3    H181650   4.769   2.988   3.170 -0.4128 -0.9813 -1.0077
20053TIP3    H281651   4.786   3.115   3.090 -1.0400 -0.7345 -0.7537
20054TIP3   OH281652   0.657   1.225  14.157  0.4798 -0.5802 -0.6500
20054TIP3    H181653   0.744   1.265  14.157  1.3339 -2.3374  1.6293
20054TIP3    H281654   0.659   1.167  14.080  0.3383  1.3511 -2.1486
20055TIP3   OH281655   4.165   3.754   3.591 -0.0204  0.7623 -0.5963
20055TIP3    H181656   4.114   3.722   3.517 -1.1719  2.9967 -0.8044
20055TIP3    H281657   4.100   3.775   3.658  0.8057  1.3211  0.0465
20056TIP3   OH281658   0.855   0.945   5.389  0.6555 -0.3921  0.2593
20056TIP3    H181659   0.766   0.955   5.355  0.7928 -0.7534 -0.2127
20056TIP3    H281660   0.847   0.875   5.454  0.6464 -0.6253  0.0107
20057TIP3   OH281661   6.664   5.063  17.064 -0.0271  0.1724  0.5404
20057TIP3    H181662   6.735   5.008  17.033 -0.0862  0.5826 -0.3315
20057TIP3    H281663   6.683   5.076  17.157  0.9705  0.1807  0.3416
20058TIP3   OH281664   6.482   1.445  14.759  0.6847 -0.1842 -0.0360
20058TIP3    H181665   6.577   1.461  14.757  0.4612  1.3433  0.9668
20058TIP3    H281666   6.445   1.526  14.792 -0.9321 -1.0432  0.2873
20059TIP3   OH281667   0.568   0.440   1.739 -0.5840  0.0439 -0.1580
20059TIP3    H181668   0.494   0.495   1.765 -0.4131  0.7104 -1.0430
20059TIP3    H281669   0.599   0.479   1.657  0.4203 -0.5415 -0.0687
20060TIP3   OH281670   2.919   4.485   2.492 -0.1954 -0.6169 -0.6371
20060TIP3    H181671   2.952   4.528   2.413 -2.4423  1.3306 -0.5800
20060TIP3    H281672   2.899   4.396   2.465  0.6502 -0.4614 -1.8131
20061TIP3   OH281673   3.779   0.679   4.431 -0.2862 -0.0532 -0.1128
20061TIP3    H181674   3.851   0.663   4.370  0.5024 -0.7160  0.9676
20061TIP3    H281675   3.743   0.763   4.403  0.3093 -0.1532 -1.2443
20062TIP3   OH281676   6.332   1.412   0.476 -0.1295 -0.3710  0.1971
20062TIP3    H181677   6.284   1.389   0.396  0.9305 -1.9139 -0.0033
20062TIP3    H281678   6.265   1.412   0.544 -0.9446  0.4143 -0.5887
20063TIP3   OH281679   0.128   3.280  11.923  0.0978 -0.1222 -0.1305
20063TIP3    H181680   0.180   3.231  11.859 -0.5068 -0.7230 -0.1606
20063TIP3    H281681   0.113   3.218  11.994  1.2828  0.7230  0.8922
20064TIP3   OH281682   2.398   2.320   5.298 -0.0833  0.4594  0.8781
20064TIP3    H181683   2.485   2.345   5.330 -0.0058  0.8828  0.3337
20064TIP3    H281684   2.402   2.335   5.204 -1.0105  1.2569  0.9609
20065TIP3   OH281685   5.906   2.082   1.939  0.2494  0.1540  0.2751
20065TIP3    H181686   5.968   2.145   1.974 -0.3417  0.7481  0.2670
20065TIP3    H281687   5.957   2.030   1.877  0.4706  1.3801 -0.5833
20066TIP3   OH281688   0.793   4.535  15.769 -0.0242  0.6540 -0.0714
20066TIP3    H181689   0.869   4.535  15.712 -0.5133  0.7887 -0.7263
20066TIP3    H281690   0.735   4.602  15.733 -0.2893  0.8190  0.6431
20067TIP3   OH281691   4.702   1.799  15.535  0.2280 -0.2509 -0.0428
20067TIP3    H181692   4.766   1.739  15.498  0.0538 -0.2702 -0.3131
20067TIP3    H281693   4.712   1.790  15.630  1.0511  0.2014 -0.0789
20068TIP3   OH281694   3.392   0.426   0.913 -0.2326  0.1639 -0.2328
20068TIP3    H181695   3.474   0.455   0.875  0.1794 -1.2834 -0.4928
20068TIP3    H281696   3.409   0.336   0.941 -1.4633  0.1438  0.5070
20069TIP3   OH281697   1.843   4.447   4.638  0.2791 -0.7168  0.6433
20069TIP3    H181698   1.824   4.521   4.696  0.8437  0.5245 -0.7306
20069TIP3    H281699   1.938   4.436   4.645  0.6361  0.6449 -1.4161
20070TIP3   OH281700   6.036   4.266   1.110 -0.4406  0.4191  0.8100
20070TIP3    H181701   5.986   4.187   1.132 -1.4319  1.1634  1.2803
20070TIP3    H281702   6.113   4.233   1.064  0.0455 -0.9312  2.5500
20071TIP3   OH281703   1.745   3.623   1.664  0.4959  0.7756 -0.2350
20071TIP3    H181704   1.741   3.576   1.581  0.5063  1.1279 -0.4338
20071TIP3    H281705   1.834   3.658   1.668  0.3982  1.0228 -0.2195
20072TIP3   OH281706   0.257   1.036  14.905 -0.3680  0.2137  0.1981
20072TIP3    H181707   0.306   1.033  14.822 -0.9892 -1.1623 -0.1349
20072TIP3    H281708   0.180   0.982  14.889 -2.0556  2.4251  0.7033
20073TIP3   OH281709   4.978   3.432  11.845  0.4105 -0.4324  0.9578
20073TIP3    H181710   4.913   3.412  11.912  1.6606 -2.4661  1.6162
20073TIP3    H281711   5.059   3.446  11.895  1.2429 -1.4577 -0.0950
20074TIP3   OH281712   3.947   5.688   3.086  0.0970 -0.1971  0.0220
20074TIP3    H181713   4.019   5.737   3.048 -0.9894 -1.1258 -3.3602
20074TIP3    H281714   3.878   5.753   3.099  0.4933  0.1335  0.5016
20075TIP3   OH281715   3.105   0.855   2.737  0.2195 -0.1981 -0.4861
20075TIP3    H181716   3.174   0.918   2.717  1.4399 -1.3799 -0.0801
20075TIP3    H281717   3.149   0.786   2.785 -1.0542 -1.4733 -1.1140
20076TIP3   OH281718   4.410   5.966   3.572  0.5994  0.0212  0.3597
20076TIP3    H181719   4.459   6.044   3.599  0.5249 -0.1630  1.0421
20076TIP3    H281720   4.469   5.920   3.512  0.8650  0.3128  0.3967
20077TIP3   OH281721   1.540   4.584   3.179  0.3458 -0.2758  0.0719
20077TIP3    H181722   1.504   4.664   3.143  0.5284  0.3431  1.2347
20077TIP3    H281723   1.596   4.549   3.110 -1.2226 -0.4106 -1.1425
20078TIP3   OH281724   1.509   6.546  12.295 -0.3528 -0.0802 -0.2061
20078TIP3    H181725   1.436   6.599  12.262  1.6090  0.0609 -4.6850
20078TIP3    H281726   1.571   6.610  12.330  0.6160  0.4670 -2.7651
20079TIP3   OH281727   5.394   1.287  15.771 -0.4990  0.0926 -0.4175
20079TIP3    H181728   5.326   1.282  15.838 -0.2403  0.5263 -0.1192
20079TIP3    H281729   5.374   1.214  15.711 -1.3155  0.3112 -0.4242
20080TIP3   OH281730   5.290   0.702  14.211 -0.2788  0.4508 -0.0264
20080TIP3    H181731   5.303   0.663  14.124  0.8274 -0.5673  0.5764
20080TIP3    H281732   5.355   0.772  14.216  0.8632 -0.6378  0.6404
20081TIP3   OH281733   4.979   6.119   3.987  0.3996  0.3872 -0.0335
20081TIP3    H181734   4.911   6.061   4.021  0.4696  0.3370  0.0194
20081TIP3    H281735   5.036   6.136   4.061  1.3319 -0.8329 -0.4505
20082TIP3   OH281736   4.959   0.570  16.344 -0.3487  0.3183 -0.1572
20082TIP3    H181737   4.953   0.576  16.440 -2.1033 -2.5707 -0.0258
20082TIP3    H281738   5.019   0.498  16.328  1.0810  1.7322 -1.2868
20083TIP3   OH281739   1.106   2.594  11.141 -0.4121 -0.1715 -0.0689
20083TIP3    H181740   1.140   2.606  11.052 -0.8056  1.0753 -0.0596
20083TIP3    H281741   1.038   2.527  11.132 -0.3154 -0.1952 -0.6716
20084TIP3   OH281742   3.387   1.439  11.191 -0.0044 -0.1632 -0.6464
20084TIP3    H181743   3.404   1.527  11.160  1.5399 -0.7222 -1.4569
20084TIP3    H281744   3.399   1.383  11.113  2.6747 -1.4476  0.6277
20085TIP3   OH281745   0.271   3.827  11.532  0.2260 -0.0212  1.2366
20085TIP3    H181746   0.273   3.812  11.437 -1.0329  0.0269  1.2004
20085TIP3    H281747   0.238   3.917  11.541 -1.3892 -0.6493  1.7686
20086TIP3   OH281748   5.022   3.532   0.568  0.0465  0.3613 -0.4211
20086TIP3    H181749   5.010   3.548   0.662 -0.4341 -1.5128 -0.1487
20086TIP3    H281750   4.979   3.606   0.526  0.2547  1.2165  0.8308
20087TIP3   OH281751   5.088   2.336  11.747  0.3783 -0.0112 -0.2894
20087TIP3    H181752   5.144   2.412  11.736 -2.1507  1.8331 -0.8067
20087TIP3    H281753   5.073   2.330  11.841 -0.6429  1.0863 -0.3670
20088TIP3   OH281754   1.528   3.262   5.950 -0.1744 -0.0355  0.1817
20088TIP3    H181755   1.483   3.343   5.974  0.4270  0.0475  1.0621
20088TIP3    H281756   1.601   3.291   5.895 -0.6853 -0.0973 -0.5414
20089TIP3   OH281757   4.697   1.413   0.930 -0.1469  0.2719  0.6492
20089TIP3    H181758   4.722   1.358   1.005 -1.8221 -0.7212  0.5010
20089TIP3    H281759   4.668   1.350   0.864  0.2421  1.2144 -0.4226
20090TIP3   OH281760   3.330   5.846   0.744  0.4400  0.2733 -0.1104
20090TIP3    H181761   3.407   5.810   0.788 -0.7668 -1.9382  0.2470
20090TIP3    H281762   3.256   5.819   0.799 -1.0762 -2.1912 -3.2350
20091TIP3   OH281763   2.121   5.536   4.301  0.4024  0.3326 -0.1094
20091TIP3    H181764   2.124   5.550   4.206  1.7086  3.7197  0.3686
20091TIP3    H281765   2.030   5.511   4.318 -0.3688  1.6573 -2.0458
20092TIP3   OH281766   5.126   4.602   1.895 -0.2315 -0.0320 -0.5188
20092TIP3    H181767   5.084   4.546   1.959 -0.4565  0.8246  0.1000
20092TIP3    H281768   5.210   4.626   1.935  0.1755 -0.5063 -1.0859
20093TIP3   OH281769   3.996   4.798  10.652  0.0161 -0.2954 -0.1708
20093TIP3    H181770   3.920   4.740  10.650 -0.1063 -0.1293 -2.5351
20093TIP3    H281771   3.961   4.883  10.677 -0.2091 -0.7005  0.9008
20094TIP3   OH281772   4.586   4.131  11.141  0.2886 -0.2458  0.5175
20094TIP3    H181773   4.619   4.162  11.057 -0.3265  1.4237  0.8853
20094TIP3    H281774   4.581   4.036  11.130 -2.7777  0.1689 -2.4539
20095TIP3   OH281775   5.417   0.783   3.427 -0.1856 -0.3341  0.4244
20095TIP3    H181776   5.420   0.739   3.342 -1.1344  0.2040  0.1042
20095TIP3    H281777   5.326   0.813   3.435  0.0233  0.0485  1.4081
20096TIP3   OH281778   4.086   5.679   3.712 -0.8044 -0.2090 -0.2222
20096TIP3    H181779   4.094   5.775   3.710 -0.9263 -0.1814  0.6269
20096TIP3    H281780   3.994   5.663   3.689 -0.3745 -0.2019 -2.0393
20097TIP3   OH281781   5.121   3.997   0.744 -0.2928  0.0205 -0.0673
20097TIP3    H181782   5.042   3.971   0.790 -0.2232 -1.7744 -0.8922
20097TIP3    H281783   5.090   4.040   0.664 -0.5115 -1.9113 -1.0788
20098TIP3   OH281784   4.919   1.064  15.753  0.1468 -0.0577 -0.3637
20098TIP3    H181785   4.993   1.049  15.813 -1.2802  0.2486  1.5327
20098TIP3    H281786   4.953   1.126  15.689  1.4983  0.1869  0.5596
20099TIP3   OH281787   3.876   2.172  16.390  1.3438 -0.1711 -0.0690
20099TIP3    H181788   3.926   2.112  16.335 -0.3383 -1.6246 -0.0555
20099TIP3    H281789   3.870   2.128  16.474  1.1371  0.5823  0.3126
20100TIP3   OH281790   6.566   5.429  14.952 -0.7037  0.1233 -0.5945
20100TIP3    H181791   6.626   5.386  14.891 -0.0681 -1.1979  0.9111
20100TIP3    H281792   6.621   5.490  15.000 -0.4651 -1.2620  0.9579
20101TIP3   OH281793   5.641   2.173   1.935 -0.5998  0.0253  0.7486
20101TIP3    H181794   5.730   2.154   1.962 -0.3568  0.3294  0.1817
20101TIP3    H281795   5.635   2.140   1.845 -0.5134  1.5672  0.1556
20102TIP3   OH281796   5.839   3.929   4.106  0.2986 -0.0413  0.2859
20102TIP3    H181797   5.768   3.866   4.113 -0.7089  1.1050  0.3747
20102TIP3    H281798   5.892   3.914   4.184 -0.3943 -0.2115  0.7249
20103TIP3   OH281799   2.906   1.535  17.024  0.1361  0.0105 -0.1568
20103TIP3    H181800   2.888   1.502  17.112 -0.1476 -0.8490 -0.5372
20103TIP3    H281801   2.821   1.534  16.980 -0.0249  1.9464  0.0528
20104TIP3   OH281802   1.050   1.734  12.308 -0.2674 -0.3253 -0.3650
20104TIP3    H181803   1.070   1.795  12.237 -3.0262  0.1106 -0.8495
20104TIP3    H281804   0.978   1.681  12.274 -0.7523 -0.9894  1.6193
20105TIP3   OH281805   2.947   0.166  13.141  0.5244 -0.3141  0.0776
20105TIP3    H181806   2.916   0.251  13.171  0.3494 -0.8305  1.3932
20105TIP3    H281807   2.981   0.182  13.052 -0.2370  0.9520  0.0121
20106TIP3   OH281808   4.144   0.071   4.470  0.1562  0.3800 -0.1611
20106TIP3    H181809   4.184   0.132   4.532 -0.6480  0.8902 -0.1465
20106TIP3    H281810   4.209   0.063   4.400 -0.0951  1.9163 -0.5789
20107TIP3   OH281811   3.759   1.966  14.219  0.0462  0.2958 -0.0900
20107TIP3    H181812   3.671   1.944  14.250 -1.0156  2.4274 -1.4858
20107TIP3    H281813   3.745   2.016  14.139  2.6008 -0.9438 -1.3979
20108TIP3   OH281814   0.566   2.375   1.224 -0.0650  0.0014  0.0261
20108TIP3    H181815   0.554   2.282   1.203  1.0044  0.0172 -0.6720
20108TIP3    H281816   0.547   2.420   1.141  0.4087  0.3274  0.0947
20109TIP3   OH281817   4.255   6.685   5.250 -0.1942  0.4909  0.0016
20109TIP3    H181818   4.227   6.600   5.285 -0.4735  0.6478  0.1617
20109TIP3    H281819   4.312   6.721   5.319 -1.8461  1.4119  0.9086
20110TIP3   OH281820   6.696   4.220  14.552  0.6690 -0.3636  0.0960
20110TIP3    H181821   6.759   4.190  14.486 -0.2996 -1.9578 -0.1287
20110TIP3    H281822   6.691   4.315  14.539  1.1425 -0.5491 -1.5375
20111TIP3   OH281823   1.484   4.892  16.028  0.0479  0.5331 -0.2100
20111TIP3    H181824   1.565   4.932  16.059  0.4369 -0.2685 -0.1950
20111TIP3    H281825   1.489   4.899  15.933  0.2783  0.2161 -0.2235
20112TIP3   OH281826   5.554   1.865   3.615 -0.4172 -0.3185 -0.0412
20112TIP3    H181827   5.499   1.907   3.549 -2.8970 -2.4885  0.5591
20112TIP3    H281828   5.577   1.780   3.577  1.4431  0.0299  0.2682
20113TIP3   OH281829   4.495   2.255  14.852 -0.1022 -0.0627  0.5236
20113TIP3    H181830   4.535   2.277  14.768  1.2155  0.4026  1.2656
20113TIP3    H281831   4.465   2.340  14.886 -0.5661 -0.2438  0.5775
20114TIP3   OH281832   3.159   4.363  15.741  0.5339  0.1721  0.4810
20114TIP3    H181833   3.070   4.397  15.741  1.4154  2.5531  1.4794
20114TIP3    H281834   3.189   4.373  15.831  2.5654  1.4710 -0.2972
20115TIP3   OH281835   2.727   5.445  10.305 -0.0296 -0.3371  0.3826
20115TIP3    H181836   2.730   5.379  10.235 -0.2763  1.1293 -1.0482
20115TIP3    H281837   2.644   5.490  10.293  0.8763  1.3693  0.2539
20116TIP3   OH281838   2.179   4.060   1.151  0.1404 -0.2043 -0.0636
20116TIP3    H181839   2.098   4.013   1.170  1.1496 -2.3137 -0.8274
20116TIP3    H281840   2.159   4.152   1.169 -2.5365 -0.6490 -0.6421
20117TIP3   OH281841   4.053   4.495  16.581 -0.3634 -0.2664  0.0979
20117TIP3    H181842   4.129   4.478  16.526 -0.3585 -0.6769  0.2296
20117TIP3    H281843   4.034   4.411  16.623  0.1544  0.2415  1.3816
20118TIP3   OH281844   5.248   3.424  15.725  0.2432 -0.0783  0.1605
20118TIP3    H181845   5.192   3.499  15.747 -1.0533 -0.9934  0.0021
20118TIP3    H281846   5.187   3.350  15.715  1.2554 -0.6625 -2.0414
20119TIP3   OH281847   4.415   3.009  14.644 -0.0650  0.1334  0.3128
20119TIP3    H181848   4.456   2.962  14.716  0.6224  1.2356  0.6416
20119TIP3    H281849   4.461   2.978  14.566  0.0097 -0.1474  0.4677
20120TIP3   OH281850   5.254   5.642   1.227  0.1754 -0.3475  0.2405
20120TIP3    H181851   5.199   5.590   1.285  1.4539 -1.5895  0.3655
20120TIP3    H281852   5.344   5.619   1.252  0.7587  1.4744 -0.0997
20121TIP3   OH281853   6.025   1.967  12.199  0.2304 -0.1033 -0.0014
20121TIP3    H181854   6.042   1.876  12.177  0.5140 -0.1983  0.5932
20121TIP3    H281855   6.025   2.013  12.115 -1.5060 -0.9003 -0.4458
20122TIP3   OH281856   5.470   3.627   0.277  0.0039  0.0073  0.0968
20122TIP3    H181857   5.404   3.677   0.228  0.4883  1.0035  0.4592
20122TIP3    H281858   5.432   3.616   0.364 -0.1526 -0.3581 -0.0171
20123TIP3   OH281859   1.227   5.668  16.068  0.4175  0.3840  0.0358
20123TIP3    H181860   1.230   5.763  16.080 -2.3494  0.7727 -1.8484
20123TIP3    H281861   1.134   5.646  16.074  1.0745 -2.3420  1.1512
20124TIP3   OH281862   3.917   1.991   3.526 -0.3282 -0.3998  0.0880
20124TIP3    H181863   3.915   1.897   3.508  2.5108 -0.6592  0.8547
20124TIP3    H281864   3.994   2.022   3.478  1.2412  0.7504  3.2187
20125TIP3   OH281865   2.567   1.764   4.959 -0.3610  0.6187  0.3035
20125TIP3    H181866   2.500   1.821   4.998  1.2520  2.2114  0.8055
20125TIP3    H281867   2.619   1.733   5.033  0.9245  1.3058 -0.2951
20126TIP3   OH281868   0.222   1.696   0.896 -0.0319  0.5084  0.1088
20126TIP3    H181869   0.272   1.739   0.827  0.0584  0.7023  0.2943
20126TIP3    H281870   0.132   1.725   0.883 -0.0726  0.2693 -0.1410
20127TIP3   OH281871   0.047   5.109  15.205  0.3390 -0.1885 -0.2704
20127TIP3    H181872  -0.016   5.042  15.233  1.1407 -1.2880 -1.0647
20127TIP3    H281873  -0.007   5.176  15.162 -0.3353 -0.9317 -0.5952
20128TIP3   OH281874   6.125   4.759  14.254  0.5687 -0.0228  0.3791
20128TIP3    H181875   6.129   4.814  14.175 -1.8316  0.0327  0.2776
20128TIP3    H281876   6.092   4.817  14.322 -0.4542 -0.9231  0.6538
20129TIP3   OH281877   0.580   3.922  11.363 -0.5298 -0.2980 -0.0620
20129TIP3    H181878   0.620   3.835  11.364 -2.5874 -1.2609  0.1599
20129TIP3    H281879   0.572   3.945  11.456 -1.9354 -0.8125 -0.0384
20130TIP3   OH281880   1.544   1.362  13.239  0.9961 -0.3958  0.1799
20130TIP3    H181881   1.481   1.431  13.259  1.6090 -0.2428  1.6471
20130TIP3    H281882   1.528   1.341  13.146  1.0071  1.8951 -0.3667
20131TIP3   OH281883   6.096   1.283   2.780  0.1193 -0.0138  0.5109
20131TIP3    H181884   6.191   1.290   2.775  0.0969 -0.5860 -1.0312
20131TIP3    H281885   6.077   1.191   2.762 -0.7096  0.0574  0.9814
20132TIP3   OH281886   2.989   0.099  13.425  0.4381  0.0417 -0.2437
20132TIP3    H181887   2.912   0.154  13.442  0.1973 -0.0014 -1.1193
20132TIP3    H281888   3.000   0.104  13.330  2.0838  0.7911 -0.0325
20133TIP3   OH281889   1.590   6.073  13.732 -0.0117  0.4521 -0.0986
20133TIP3    H181890   1.536   6.098  13.807  0.1936 -1.6755  0.7872
20133TIP3    H281891   1.545   5.997  13.694  1.6136 -0.4939 -0.1756
20134TIP3   OH281892   0.348   6.789  12.458 -0.3923  0.2328 -0.0309
20134TIP3    H181893   0.265   6.805  12.414  0.9529 -0.0568 -2.8519
20134TIP3    H281894   0.333   6.811  12.549 -3.1698  1.4872 -0.7561
20135TIP3   OH281895   6.147   4.108  15.736  0.1208  0.0845  0.1431
20135TIP3    H181896   6.146   4.078  15.645  1.3010 -1.5387  0.6410
20135TIP3    H281897   6.057   4.133  15.754  0.3176  2.6376 -2.1814
20136TIP3   OH281898   6.568   2.412   1.514  0.3685 -0.0896  0.1152
20136TIP3    H181899   6.632   2.479   1.489 -1.3312  1.6645  0.3132
20136TIP3    H281900   6.567   2.414   1.610  1.1819 -1.2630  0.1548
20137TIP3   OH281901   0.296   3.041   3.669 -1.0655 -0.4798  0.5451
20137TIP3    H181902   0.344   3.124   3.668 -2.4296  0.3265  0.2134
20137TIP3    H281903   0.344   2.986   3.607 -0.5859  0.3249  0.1747
20138TIP3   OH281904   1.363   3.015   2.135  0.3165  0.2285 -0.5588
20138TIP3    H181905   1.333   2.933   2.174 -0.9107 -1.2734 -4.3912
20138TIP3    H281906   1.459   3.012   2.142  0.2206 -1.0170  0.3210
20139TIP3   OH281907   3.366   4.574   1.954 -0.2118 -0.5954  0.0524
20139TIP3    H181908   3.437   4.517   1.925 -0.2315 -0.2024 -0.7898
20139TIP3    H281909   3.396   4.663   1.934  0.0129 -0.2733  1.7883
20140TIP3   OH281910   4.424   6.647  16.438 -0.1158  0.6145  0.5679
20140TIP3    H181911   4.461   6.566  16.472 -0.8424 -0.0312 -0.1935
20140TIP3    H281912   4.463   6.715  16.494 -0.0951 -0.3063  1.6952
20141TIP3   OH281913   2.375   1.192  14.963  0.4454 -0.0033  0.0098
20141TIP3    H181914   2.344   1.141  14.889  0.9333 -0.2523 -0.0268
20141TIP3    H281915   2.315   1.266  14.969 -1.0806 -1.2794  0.9011
20142TIP3   OH281916   3.665   6.717   4.414  0.7326  0.2079 -0.7608
20142TIP3    H181917   3.681   6.753   4.326 -1.3228  2.8840 -0.0868
20142TIP3    H281918   3.706   6.779   4.473  0.2448 -0.4605  0.2841
20143TIP3   OH281919   2.847   3.290  11.311 -0.2379 -0.4470 -0.0840
20143TIP3    H181920   2.802   3.373  11.326 -0.5308 -0.9786  2.1217
20143TIP3    H281921   2.937   3.307  11.342 -0.1972 -0.8246  0.0013
20144TIP3   OH281922   6.004   1.500   3.242 -0.2430  1.2061  0.2291
20144TIP3    H181923   5.909   1.494   3.239 -0.5120  4.6680 -1.6970
20144TIP3    H281924   6.035   1.432   3.183 -1.6300  1.5191 -0.8691
20145TIP3   OH281925   5.382   0.423  14.922  0.0030  0.5140  0.3031
20145TIP3    H181926   5.346   0.479  14.853  0.2768  1.1368  0.6665
20145TIP3    H281927   5.423   0.351  14.874  0.1431  0.9111 -0.1831
20146TIP3   OH281928   0.937   5.047  14.552  0.3296 -0.4257  0.0995
20146TIP3    H181929   1.033   5.050  14.555  0.2826 -0.3488  2.5434
20146TIP3    H281930   0.914   5.112  14.485  1.9171  1.4175  1.2631
20147TIP3   OH281931   4.804   0.611  10.956 -0.3568  0.2434 -0.0989
20147TIP3    H181932   4.873   0.574  11.011 -0.0156 -0.3182 -0.8994
20147TIP3    H281933   4.849   0.677  10.902  0.0362 -1.7817 -2.3112
20148TIP3   OH281934   4.696   4.359  12.251 -0.4451  0.5638 -0.4272
20148TIP3    H181935   4.746   4.305  12.313 -0.9755 -0.4712 -0.8915
20148TIP3    H281936   4.723   4.448  12.271  1.4010  0.0459 -0.4883
20149TIP3   OH281937   6.351   0.919   1.379 -0.4736 -0.2247  0.1658
20149TIP3    H181938   6.330   0.876   1.296  1.3637  0.6356 -0.7832
20149TIP3    H281939   6.303   1.001   1.377 -3.5321 -1.8733  1.7270
20150TIP3   OH281940   4.966   6.144  14.274 -0.5465 -0.2638  0.1239
20150TIP3    H181941   5.033   6.183  14.218 -0.3857  1.0395  1.1968
20150TIP3    H281942   4.933   6.217  14.326  0.4569 -1.6931  2.9047
20151TIP3   OH281943   0.208   5.831  11.352  0.3145 -0.6404  0.0051
20151TIP3    H181944   0.291   5.814  11.306 -0.9156 -2.2003 -1.7211
20151TIP3    H281945   0.158   5.884  11.290 -0.7103 -1.3293  0.2421
20152TIP3   OH281946   6.089   5.971  15.162 -0.6516  0.4047  0.4652
20152TIP3    H181947   6.081   5.907  15.232 -0.3004  1.0114  1.0710
20152TIP3    H281948   6.178   6.005  15.171 -0.7926  0.8874  0.0734
20153TIP3   OH281949   3.941   6.113   5.062  0.4426  0.5363  0.2844
20153TIP3    H181950   4.020   6.162   5.087  0.0699  1.4095 -0.2254
20153TIP3    H281951   3.956   6.091   4.970  0.8555 -0.8037  0.6581
20154TIP3   OH281952   4.787   0.296  15.664  0.3092  0.4719  0.0212
20154TIP3    H181953   4.740   0.372  15.697  1.5933  0.9975  0.6757
20154TIP3    H281954   4.787   0.234  15.738  3.3138  1.7059  1.1266
20155TIP3   OH281955   4.063   0.960  12.566  0.7035 -0.0219 -0.4098
20155TIP3    H181956   4.155   0.958  12.593  0.4723  0.6319  0.4737
20155TIP3    H281957   4.056   1.039  12.512  0.7370 -0.2702 -0.7806
20156TIP3   OH281958   1.727   3.411   1.388 -0.0060 -0.1514 -0.1874
20156TIP3    H181959   1.677   3.399   1.469 -1.5956  2.3609 -0.7380
20156TIP3    H281960   1.690   3.346   1.328  0.7138 -1.5627  0.8691
20157TIP3   OH281961   5.083   6.509  16.991 -0.2106  0.0441  0.1784
20157TIP3    H181962   5.131   6.426  16.993 -0.7511 -0.3117 -0.8570
20157TIP3    H281963   4.991   6.484  16.994 -0.4503  0.4640 -2.1239
20158TIP3   OH281964   2.435   0.101  15.790 -0.1688 -0.0015 -0.4778
20158TIP3    H181965   2.527   0.089  15.770  0.2049  0.3038  0.9774
20158TIP3    H281966   2.414   0.188  15.756  0.8831  1.2107  1.8230
20159TIP3   OH281967   5.668   1.490   1.399  0.7732 -0.1164  0.2248
20159TIP3    H181968   5.636   1.406   1.367  0.7784 -0.7577  1.8399
20159TIP3    H281969   5.651   1.488   1.493  0.0914  2.0036  0.1757
20160TIP3   OH281970   3.236   2.032  14.145 -0.1071  0.5787 -0.2347
20160TIP3    H181971   3.156   2.018  14.196 -0.4781  2.6524 -0.1838
20160TIP3    H281972   3.207   2.030  14.054 -0.1225  0.7354 -0.2346
20161TIP3   OH281973   4.373   2.809  11.984  0.2256 -0.0669 -0.2124
20161TIP3    H181974   4.355   2.716  11.969 -2.7091  0.2472  1.0106
20161TIP3    H281975   4.467   2.813  12.000  0.6460 -2.6039 -1.7663
20162TIP3   OH281976   5.262   2.256   1.257  0.6361  0.0566 -0.0041
20162TIP3    H181977   5.252   2.282   1.349  0.1067  0.3496 -0.1433
20162TIP3    H281978   5.284   2.163   1.260  2.0878  0.3976  0.4863
20163TIP3   OH281979   0.893   0.932   0.076  0.4181 -0.4939 -0.2992
20163TIP3    H181980   0.950   0.905   0.004  1.9162 -0.2667  0.7774
20163TIP3    H281981   0.892   1.027   0.071 -0.5739 -0.5362 -0.8531
20164TIP3   OH281982   5.359   2.726   4.896  0.5617 -0.7106  0.6649
20164TIP3    H181983   5.330   2.698   4.809  1.2239  0.0878  0.1892
20164TIP3    H281984   5.304   2.676   4.956  0.4649 -1.6652 -0.2038
20165TIP3   OH281985   3.267   5.361   6.467 -0.1317 -0.2937 -0.2765
20165TIP3    H181986   3.196   5.337   6.408 -0.1602  0.1227 -0.4130
20165TIP3    H281987   3.223   5.385   6.549 -0.0491 -1.5511  0.1462
20166TIP3   OH281988   6.529   1.875  12.494 -0.3104 -0.0241 -0.5042
20166TIP3    H181989   6.613   1.839  12.463 -0.6544 -1.8441  0.5937
20166TIP3    H281990   6.513   1.829  12.576 -2.7198 -0.1836 -1.0478
20167TIP3   OH281991   2.344   6.434  16.743 -0.3272 -0.2478  0.9627
20167TIP3    H181992   2.391   6.351  16.754  1.1452  0.6510  1.5864
20167TIP3    H281993   2.348   6.476  16.829  1.2115  1.6159  0.0282
20168TIP3   OH281994   1.444   2.581   4.375 -0.0872 -0.5421  0.6006
20168TIP3    H181995   1.400   2.513   4.425 -0.3440  0.3921  1.6821
20168TIP3    H281996   1.404   2.663   4.405  0.2309  0.0940 -0.6470
20169TIP3   OH281997   2.138   1.068   0.421 -0.1590  0.0694 -0.2717
20169TIP3    H181998   2.206   1.110   0.368  1.4869 -0.6971  1.1779
20169TIP3    H281999   2.076   1.033   0.357  2.8501 -2.6682 -1.8471
20170TIP3   OH282000   2.690   6.600  10.272 -0.0338  0.3018 -0.1695
20170TIP3    H182001   2.627   6.660  10.312 -0.1821 -0.2777  0.4708
20170TIP3    H282002   2.773   6.648  10.274  0.2106 -0.1608  1.9004
20171TIP3   OH282003   6.078   1.392  11.918 -0.2193 -0.4018  0.2874
20171TIP3    H182004   6.047   1.483  11.917  1.4236  0.1732 -0.3972
20171TIP3    H282005   6.072   1.364  11.826  0.9057 -0.4024  0.2066
20172TIP3   OH282006   5.539   3.857  11.468  0.0803 -0.2799  0.0342
20172TIP3    H182007   5.523   3.865  11.562 -0.1071  1.2681 -0.1278
20172TIP3    H282008   5.620   3.906  11.453 -0.2468  0.0264 -0.7217
20173TIP3   OH282009   1.919   3.150  11.617  0.2951  0.1204 -0.2900
20173TIP3    H182010   1.990   3.092  11.590  0.8867  0.8414 -0.2888
20173TIP3    H282011   1.881   3.107  11.693  0.8858 -0.1456 -0.1403
20174TIP3   OH282012   3.347   0.847  11.365 -0.5343  0.6298 -0.6685
20174TIP3    H182013   3.274   0.862  11.425  0.8709 -1.0920  1.5140
20174TIP3    H282014   3.373   0.935  11.337 -1.7202  1.4114  0.6208
20175TIP3   OH282015   5.801   6.194  11.933  0.0916  0.4736  0.1380
20175TIP3    H182016   5.847   6.276  11.914  1.0176 -0.0218  0.2142
20175TIP3    H282017   5.708   6.214  11.917  0.3050  1.5474  0.2204
20176TIP3   OH282018   5.022   1.434   1.353 -0.0492 -0.1991 -0.1489
20176TIP3    H182019   5.047   1.519   1.390  0.4731 -0.5449  0.2988
20176TIP3    H282020   4.958   1.399   1.414  0.6482 -0.6703  0.3194
20177TIP3   OH282021   4.590   1.842   1.525 -0.4122 -0.1441 -0.7621
20177TIP3    H182022   4.526   1.839   1.596 -0.1057 -0.4132 -0.4961
20177TIP3    H282023   4.537   1.850   1.445 -0.7833 -0.5158 -0.5557
20178TIP3   OH282024   6.137   5.989   2.758  0.3301 -0.8225 -0.3366
20178TIP3    H182025   6.052   6.018   2.791  0.2585 -0.5537 -0.7601
20178TIP3    H282026   6.160   5.914   2.813  0.4548 -0.0528  0.6757
20179TIP3   OH282027   4.075   0.727  16.422  0.6262 -0.1521 -0.1311
20179TIP3    H182028   4.111   0.745  16.335  0.8029  0.7899  0.1323
20179TIP3    H282029   4.129   0.779  16.481  0.5498 -0.8485  0.5535
20180TIP3   OH282030   2.321   5.358  16.543  0.3333  0.4677 -0.4458
20180TIP3    H182031   2.282   5.296  16.604  0.5042  2.3172  1.6065
20180TIP3    H282032   2.377   5.304  16.487  1.3043 -1.1103  1.9618
20181TIP3   OH282033   6.045   6.744  16.424  0.2481  0.4927 -0.0141
20181TIP3    H182034   5.994   6.702  16.493  1.6353 -2.3917 -0.6790
20181TIP3    H282035   5.982   6.761  16.354 -0.6084  0.8822  0.8401
20182TIP3   OH282036   1.804   6.139   6.240 -0.3246 -0.3617 -0.0974
20182TIP3    H182037   1.836   6.051   6.219 -0.4522 -1.0501  2.4568
20182TIP3    H282038   1.716   6.125   6.276 -1.6822  1.1206 -2.6498
20183TIP3   OH282039   5.102   1.588  15.613 -0.1377 -0.4346 -0.1369
20183TIP3    H182040   5.172   1.632  15.660  0.6438 -0.9349 -0.8182
20183TIP3    H282041   5.050   1.659  15.574 -0.6107 -0.0338  1.2081
20184TIP3   OH282042   4.695   3.217   5.063  0.0791  0.5295 -0.3534
20184TIP3    H182043   4.668   3.212   4.972  0.7611  0.8051 -0.5723
20184TIP3    H282044   4.767   3.154   5.071  0.4525  0.9770 -0.1630
20185TIP3   OH282045   2.899   5.996  16.492 -0.0531 -0.6207  0.1195
20185TIP3    H182046   2.840   5.938  16.541 -2.1677  0.7702 -0.6706
20185TIP3    H282047   2.890   5.967  16.401  0.6149 -0.4959  0.0099
20186TIP3   OH282048   5.262   4.472   2.722 -0.2681 -0.5777 -0.7180
20186TIP3    H182049   5.210   4.441   2.797  2.3313 -0.2358  1.2935
20186TIP3    H282050   5.308   4.394   2.691  1.1157 -0.1205  0.1156
20187TIP3   OH282051   4.697   3.551   2.862 -0.0257 -0.3197  0.0529
20187TIP3    H182052   4.643   3.486   2.907  0.2297 -2.3080 -2.3827
20187TIP3    H282053   4.782   3.547   2.906 -0.8080  0.3562  1.6743
20188TIP3   OH282054   5.389   4.787  11.499  0.2226 -0.0815  0.0154
20188TIP3    H182055   5.480   4.785  11.528  0.1350  1.7155  0.4672
20188TIP3    H282056   5.357   4.874  11.523 -2.2597 -1.4082  1.7904
20189TIP3   OH282057   0.748   2.654  14.672  0.3345  0.1562 -0.3112
20189TIP3    H182058   0.798   2.735  14.684  1.6492 -0.6665 -0.0809
20189TIP3    H282059   0.729   2.652  14.578  1.1702  0.2457 -0.4918
20190TIP3   OH282060   5.779   5.443   0.704 -0.2366  0.3658  0.7514
20190TIP3    H182061   5.829   5.423   0.783  1.8111  1.4465 -0.2337
20190TIP3    H282062   5.796   5.535   0.687 -0.0800 -0.0226 -1.3354
20191TIP3   OH282063   5.930   4.359   3.026 -0.1646  0.2870 -0.1561
20191TIP3    H182064   5.926   4.352   2.930 -0.9302 -0.0457 -0.1007
20191TIP3    H282065   5.997   4.295   3.051 -0.0374  0.2989 -0.4600
20192TIP3   OH282066   3.536   1.882  16.645  0.2391  0.1749 -0.5691
20192TIP3    H182067   3.446   1.913  16.656 -0.1582 -0.1504 -2.6736
20192TIP3    H282068   3.541   1.802  16.697 -0.3176  0.8352  0.5261
20193TIP3   OH282069   2.980   5.258  10.479 -0.5897 -0.0195  0.2160
20193TIP3    H182070   2.965   5.351  10.498 -2.2669 -0.2212 -0.0544
20193TIP3    H282071   2.893   5.219  10.482 -0.2956 -1.0181 -2.7295
20194TIP3   OH282072   0.606   1.176  13.353  0.2865  0.7222 -0.1130
20194TIP3    H182073   0.691   1.137  13.370  0.3842  0.8626 -0.2842
20194TIP3    H282074   0.587   1.228  13.431  1.9209  3.5098 -1.4808
20195TIP3   OH282075   1.281   3.438   2.104 -0.0221  0.6689 -0.1006
20195TIP3    H182076   1.347   3.371   2.123 -1.8636 -1.2413 -0.3112
20195TIP3    H282077   1.241   3.457   2.189 -1.2290 -0.3775 -0.4180
20196TIP3   OH282078   1.539   3.662   0.758  0.4044  0.1765  0.1005
20196TIP3    H182079   1.608   3.623   0.812 -0.1602 -0.1462  0.5866
20196TIP3    H282080   1.587   3.711   0.690  1.1200  1.2462  1.3488
20197TIP3   OH282081   4.178   0.639  14.176 -0.3392  0.5366  0.0018
20197TIP3    H182082   4.206   0.727  14.202 -0.2357  0.9534 -1.4556
20197TIP3    H282083   4.170   0.644  14.081 -0.0992 -1.1045 -0.1162
20198TIP3   OH282084   4.707   3.303   1.580 -0.0319 -0.2896  0.7779
20198TIP3    H182085   4.662   3.372   1.532  0.5793 -0.0679  0.5179
20198TIP3    H282086   4.785   3.346   1.615 -0.5601 -0.3921  2.1375
20199TIP3   OH282087   5.352   5.333   1.517 -0.0799  0.1067  0.1123
20199TIP3    H182088   5.387   5.262   1.464 -2.0956 -0.9830  0.2143
20199TIP3    H282089   5.302   5.290   1.585  0.9803  1.5615  1.8501
20200TIP3   OH282090   4.202   1.343  15.499 -0.0821 -0.0079 -0.0670
20200TIP3    H182091   4.233   1.315  15.585 -0.3308 -2.9776 -0.8931
20200TIP3    H282092   4.266   1.409  15.471  2.3924 -2.0083  0.6362
20201TIP3   OH282093   6.121   3.172   0.180  0.3552  0.5229 -0.1998
20201TIP3    H182094   6.077   3.258   0.175  0.6751  0.6667 -0.4896
20201TIP3    H282095   6.207   3.192   0.218  0.2948  0.2832  0.0595
20202TIP3   OH282096   2.220   0.929  12.359  0.2672 -0.6425  0.2836
20202TIP3    H182097   2.313   0.912  12.343 -0.1931 -2.9280 -0.0687
20202TIP3    H282098   2.186   0.847  12.394 -0.9771  1.0882  3.4230
20203TIP3   OH282099   6.027   6.166   4.739 -0.1339  0.1593 -0.1105
20203TIP3    H182100   5.971   6.092   4.720 -1.7100  1.5954 -1.2459
20203TIP3    H282101   5.998   6.197   4.825 -0.6063  0.4422 -0.3657
20204TIP3   OH282102   4.711   5.475   5.526  0.4807 -0.0425  0.2708
20204TIP3    H182103   4.699   5.384   5.500  1.0888  0.6681 -2.6629
20204TIP3    H282104   4.802   5.495   5.506  0.0562  1.5321 -0.1894
20205TIP3   OH282105   5.368   3.930  15.552  0.9986 -0.0851 -0.4212
20205TIP3    H182106   5.301   3.997  15.562 -0.1277 -1.3526  0.7283
20205TIP3    H282107   5.448   3.978  15.531  0.3088  1.6266  0.8362
20206TIP3   OH282108   2.477   3.352   4.535  0.4482 -0.1086 -0.1092
20206TIP3    H182109   2.390   3.330   4.503  1.0686 -0.6216 -1.4867
20206TIP3    H282110   2.468   3.441   4.569 -0.9037 -0.6363  0.9431
20207TIP3   OH282111   0.884   3.982   2.325  0.7560  0.4898  0.1592
20207TIP3    H182112   0.954   3.936   2.279  0.8761  0.4998  0.3313
20207TIP3    H282113   0.806   3.965   2.273  0.7909  0.0375  0.2551
20208TIP3   OH282114   3.932   6.435  13.097  0.3147  0.0344 -0.1893
20208TIP3    H182115   3.886   6.492  13.159 -1.7917 -3.4779  1.6394
20208TIP3    H282116   4.021   6.429  13.130 -0.0849  0.3751  0.9520
20209TIP3   OH282117   2.475   6.275   0.236  0.0661 -0.0495  0.1885
20209TIP3    H182118   2.456   6.248   0.146 -1.3078 -0.4258  0.5710
20209TIP3    H282119   2.517   6.360   0.228  1.8731 -1.0140 -0.9117
20210TIP3   OH282120   3.658   1.415   0.931  0.3758 -0.0572 -0.1538
20210TIP3    H182121   3.724   1.476   0.898  0.2565 -0.3657 -0.9783
20210TIP3    H282122   3.698   1.377   1.009  1.3081 -0.4686 -0.8214
20211TIP3   OH282123   5.951   2.680  16.698  0.5071  0.3367  0.3826
20211TIP3    H182124   6.041   2.709  16.713  0.3676  1.1102 -0.2332
20211TIP3    H282125   5.943   2.599  16.749  0.7355  1.6620  2.5724
20212TIP3   OH282126   2.091   2.521  14.932 -0.9119 -0.3590  0.2903
20212TIP3    H182127   2.018   2.466  14.958  1.6805 -3.8468  0.4620
20212TIP3    H282128   2.133   2.547  15.014  0.1731 -1.3693  0.0568
20213TIP3   OH282129   4.713   4.941  15.846  0.4473  0.3199  0.1243
20213TIP3    H182130   4.786   4.990  15.882 -0.2101  0.4213  1.3473
20213TIP3    H282131   4.674   4.896  15.922 -0.2255 -0.4210 -0.6427
20214TIP3   OH282132   4.410   6.526  17.280 -0.2132  0.3581  0.1543
20214TIP3    H182133   4.383   6.580  17.354 -1.6685  0.1112 -0.1749
20214TIP3    H282134   4.387   6.577  17.202  1.0940  0.5182 -0.1360
20215TIP3   OH282135   0.653   0.568   2.524 -0.0108  0.2158  0.1357
20215TIP3    H182136   0.559   0.551   2.534 -0.3128  1.1728 -0.9699
20215TIP3    H282137   0.688   0.557   2.613 -1.0070 -1.0599  0.3858
20216TIP3   OH282138   3.529   4.343  15.958  0.1013 -0.4996  0.3804
20216TIP3    H182139   3.532   4.287  16.035  1.7091 -1.3995 -0.3105
20216TIP3    H282140   3.616   4.385  15.955 -0.1536 -0.0134 -0.5931
20217TIP3   OH282141   1.596   0.453   1.188 -0.1771  0.5592  0.0415
20217TIP3    H182142   1.526   0.423   1.129 -0.5321  0.7343  0.3725
20217TIP3    H282143   1.566   0.537   1.221  0.4172  0.8682 -0.1882
20218TIP3   OH282144   1.286   3.015   3.289  0.2076 -0.4899 -0.0375
20218TIP3    H182145   1.343   3.009   3.365 -0.3263 -0.0442  0.3978
20218TIP3    H282146   1.342   3.053   3.221  0.4174 -0.0089  0.4029
20219TIP3   OH282147   5.574   0.693   3.644 -0.7424 -0.0171  0.1976
20219TIP3    H182148   5.549   0.718   3.554 -1.5977  0.4733  0.5640
20219TIP3    H282149   5.597   0.601   3.638  0.9810  0.4568 -0.8942
20220TIP3   OH282150   4.784   2.529   0.544  0.6363 -0.1017  0.1140
20220TIP3    H182151   4.720   2.594   0.515 -1.2898 -1.4180  1.2824
20220TIP3    H282152   4.795   2.472   0.468  1.1306  0.6738 -0.3976
20221TIP3   OH282153   2.896   5.695  13.272 -0.5980 -0.5848  0.2637
20221TIP3    H182154   2.845   5.774  13.290 -1.3196 -1.4503  2.2893
20221TIP3    H282155   2.919   5.662  13.359  2.1197 -1.0737 -0.5971
20222TIP3   OH282156   0.650   1.197   1.760 -0.2916  0.4848 -0.7783
20222TIP3    H182157   0.568   1.160   1.794  0.6350  0.3206  1.3635
20222TIP3    H282158   0.640   1.292   1.773 -1.2534  0.7404 -3.1008
20223TIP3   OH282159   6.609   3.730   5.038 -0.1483  0.2605  0.3135
20223TIP3    H182160   6.683   3.704   5.094  0.3454  0.1497 -0.3890
20223TIP3    H282161   6.575   3.647   5.004 -0.5790  0.3141  0.6052
20224TIP3   OH282162   0.863   1.157  14.467  0.0314  0.0509 -0.0489
20224TIP3    H182163   0.869   1.139  14.561 -0.5215 -1.2441 -0.2621
20224TIP3    H282164   0.870   1.071  14.425 -0.7207  0.5201 -1.1539
20225TIP3   OH282165   2.700   3.140  12.610 -0.1292 -0.4061  0.6369
20225TIP3    H182166   2.725   3.130  12.702  1.1070 -0.5621  0.2931
20225TIP3    H282167   2.689   3.050  12.579  1.7302 -0.4507  0.0367
20226TIP3   OH282168   5.412   3.146  11.697  0.0433  0.1492  0.4352
20226TIP3    H182169   5.457   3.070  11.660  0.7679  0.6569  0.2636
20226TIP3    H282170   5.319   3.122  11.695  0.3705 -1.2823  1.6780
20227TIP3   OH282171   5.970   1.627  14.783  0.5216  0.1905  0.1347
20227TIP3    H182172   5.957   1.694  14.850  1.7297 -0.4846  1.0550
20227TIP3    H282173   6.061   1.600  14.793  0.0953 -1.4705 -0.3379
20228TIP3   OH282174   1.241   3.940   0.126  0.4047 -0.2996 -0.1923
20228TIP3    H182175   1.317   3.977   0.081  0.2588 -0.5263 -0.6282
20228TIP3    H282176   1.273   3.919   0.214  1.4341 -2.3655 -1.0358
20229TIP3   OH282177   0.781   0.901  11.514 -0.7084 -0.1132 -0.0661
20229TIP3    H182178   0.735   0.826  11.475 -0.2072  0.0597 -0.9865
20229TIP3    H282179   0.793   0.962  11.442 -0.7207  0.6750  0.5931
20230TIP3   OH282180   0.079   6.536  15.727 -0.2486  0.0332  0.4765
20230TIP3    H182181   0.062   6.522  15.820  1.6818 -1.3228  0.6852
20230TIP3    H282182   0.077   6.448  15.690 -2.3360  0.6951 -1.0379
20231TIP3   OH282183   6.282   0.549   1.861 -0.1207  0.4748 -0.7459
20231TIP3    H182184   6.363   0.512   1.828 -0.3017 -0.2217 -0.4158
20231TIP3    H282185   6.240   0.477   1.909  0.3351  1.5615  1.3517
20232CLA    CLA82186   1.133   4.126  11.822  0.0390 -0.0305  0.3429
20233LIG     O182187   3.334   3.714  16.677 -0.0798 -0.0135  0.2840
20233LIG     O282188   3.523   3.153  16.409  0.1305  0.0729  0.4272
20233LIG     O382189   3.183   3.866  16.622  0.6376  0.2278  0.2064
20233LIG     O482190   3.519   3.941  16.598  0.4777 -0.2541  0.3134
20233LIG      N82191   3.154   3.331  16.597  0.3926 -0.7793 -0.6875
20233LIG     C182192   3.170   3.383  16.741 -0.4962  0.4691  0.0233
20233LIG     C282193   3.120   3.448  16.507  0.2756 -0.7132  0.0863
20233LIG     C382194   3.273   3.494  16.759  0.5261 -0.1971  0.0989
20233LIG     C482195   3.227   3.560  16.521 -0.1633 -0.0701 -0.4372
20233LIG     C582196   3.235   3.607  16.665 -0.4563 -0.2732  1.5508
20233LIG     C682197   3.282   3.256  16.564  0.3806  0.5986 -0.0738
20233LIG     C782198   3.030   3.243  16.590  0.0994  0.0013  0.2328
20233LIG     C882199   3.275   3.183  16.428  0.6609  0.0216  0.3345
20233LIG     C982200   3.396   3.084  16.424  0.2986 -0.6655  0.0624
20233LIG    C1082201   3.293   3.835  16.657 -0.4776  0.1416  0.2498
20233LIG    C1182202   3.406   3.953  16.690  0.2536  0.1354  0.7085
20233LIG    C1282203   3.442   3.914  16.839 -0.3601 -0.0793 -0.1195
20233LIG    C1382204   3.338   4.095  16.686  0.1119 -0.2448  0.7196
20233LIG    C1482205   3.636   3.067  16.426  0.2589 -0.3998 -0.3397
20233LIG    C1582206   3.338   3.889  16.933  0.2153 -0.1126 -0.4185
20233LIG    C1682207   3.343   4.192  16.794  0.3613  0.1199  0.3872
20233LIG    C1782208   3.574   3.900  16.884  0.0641  0.2119  0.3788
20233LIG    C1882209   3.284   4.130  16.566 -0.3471  0.0810  0.5678
20233LIG    C1982210   3.759   3.133  16.417  0.3156  0.8943 -0.2011
20233LIG    C2082211   3.629   2.933  16.458  0.1404 -1.4661 -0.0983
20233LIG    C2182212   3.370   3.854  17.062  1.1241  0.4397 -0.3340
20233LIG    C2282213   3.307   4.325  16.763 -0.0637 -0.0788 -0.0761
20233LIG    C2382214   3.607   3.867  17.012 -0.4109  0.1736 -0.1527
20233LIG    C2482215   3.255   4.261  16.534 -0.6140 -0.0292 -0.1312
20233LIG    C2582216   3.498   3.844  17.102 -0.2345 -0.0612 -0.4523
20233LIG    C2682217   3.271   4.362  16.632 -0.0219  0.2310 -0.7451
20233LIG    C2782218   3.876   3.064  16.439  0.1767 -0.2155  0.2122
20233LIG    C2882219   3.750   2.860  16.481  0.1040  0.4354  0.2045
20233LIG    C2982220   3.869   2.929  16.471 -0.1416 -0.7570 -0.7035
20233LIG     H182221   3.206   3.308  16.810  0.3189  1.6876  0.9589
20233LIG     H282222   3.080   3.419  16.790 -1.8841 -1.9135 -0.7436
20233LIG     H382223   3.030   3.487  16.551  1.2755  0.0354  1.4933
20233LIG     H482224   3.117   3.418  16.403  0.2363  1.3698 -0.5200
20233LIG     H582225   3.376   3.457  16.741  0.0337 -0.8844 -1.4223
20233LIG     H682226   3.281   3.531  16.863 -0.0180 -0.0200  0.0829
20233LIG     H782227   3.212   3.649  16.457 -2.4298 -0.1564 -0.0617
20233LIG     H882228   3.332   3.528  16.504 -0.3414 -0.3514 -1.0279
20233LIG     H982229   3.136   3.649  16.692 -0.0364  0.8430  1.3776
20233LIG    H1082230   3.312   3.198  16.649  2.8241 -1.4704 -2.2475
20233LIG    H1182231   3.353   3.336  16.548 -0.8506  1.0318 -3.8555
20233LIG    H1282232   2.943   3.280  16.641 -0.1166 -0.1540 -0.0220
20233LIG    H1382233   3.043   3.142  16.626  0.5483 -0.2109 -0.5026
20233LIG    H1482234   3.009   3.227  16.486  0.9744 -0.4076  0.1113
20233LIG    H1582235   3.271   3.256  16.344 -0.7419 -1.5180 -0.9560
20233LIG    H1682236   3.185   3.120  16.414  0.4654  0.1563  0.9536
20233LIG    H1782237   3.396   3.031  16.522 -0.5194  0.0073  0.4292
20233LIG    H1882238   3.387   3.008  16.344 -0.8359 -0.4514 -0.0208
20233LIG    H1982239   3.583   4.008  16.625 -0.5561  1.0318 -0.3680
20233LIG    H2082240   3.238   3.916  16.905 -0.2706 -3.1363 -1.7605
20233LIG    H2182241   3.375   4.176  16.896  0.2530 -1.2573  0.2142
20233LIG    H2282242   3.646   3.939  16.813 -1.0970  1.7917  0.0347
20233LIG    H2382243   3.278   4.059  16.484 -1.6296 -0.6738  1.2968
20233LIG    H2482244   3.764   3.240  16.401  1.9560  0.5900 -1.9295
20233LIG    H2582245   3.541   2.871  16.454  0.0554 -1.2815 -1.6301
20233LIG    H2682246   3.289   3.844  17.132  1.5337 -0.6198 -0.0041
20233LIG    H2782247   3.322   4.402  16.837 -0.1268 -0.7759  0.6699
20233LIG    H2882248   3.708   3.854  17.048 -0.7782 -1.9895  0.1496
20233LIG    H2982249   3.226   4.283  16.432  0.5098  1.7064 -0.1001
20233LIG    H3082250   3.519   3.823  17.206  0.9232  0.6791 -0.5265
20233LIG    H3182251   3.258   4.465  16.604  3.0313  0.1789 -2.6122
20233LIG    H3282252   3.972   3.113  16.436  0.0184  0.4044  3.2224
20233LIG    H3382253   3.738   2.753  16.490  3.0545 -0.1987 -2.3473
20233LIG    H3482254   3.961   2.878  16.496 -0.9954 -2.0887 -0.2501
   6.82013   6.82013  17.29240
